8
Lattice="5.509715 0.0 0.0 0.0 5.509715 0.0 0.0 0.0 5.509715" Properties=species:S:1:pos:R:3:mulliken_charges:R:1:forces:R:3 virial="23.211404118195787 1.774704030040945e-05 1.774704030040945e-05 1.774704030040945e-05 23.211404118195787 1.774704030040945e-05 1.774704030040945e-05 1.774704030040945e-05 23.211404118195787" fermi_energy=5.839563113700001 core_to_fermi_energy=16.48337833925619 config_type=EOS energy=-7857.729057307 stress="-0.13877588595006418 -1.0610565514001538e-07 -1.0610565514001538e-07 -1.0610565514001538e-07 -0.13877588595006418 -1.0610565514001538e-07 -1.0610565514001538e-07 -1.0610565514001538e-07 -0.13877588595006418" pbc="T T T"
P        1.37742875       1.37742875       4.13228625      -0.72000000      -0.00001000      -0.00001000       0.00000000
P        4.13228625       1.37742875       1.37742875      -0.72000000       0.00000000      -0.00001000      -0.00001000
P        1.37742875       4.13228625       1.37742875      -0.72000000      -0.00001000       0.00000000      -0.00001000
P        4.13228625       4.13228625       4.13228625      -0.72000000       0.00000000       0.00000000       0.00000000
In       0.00000000       0.00000000       0.00000000       0.72000000      -0.00000000      -0.00000000      -0.00000000
In       2.75485750       0.00000000       2.75485750       0.72000000       0.00001000      -0.00000000       0.00001000
In       0.00000000       2.75485750       2.75485750       0.72000000      -0.00000000       0.00001000       0.00001000
In       2.75485750       2.75485750       0.00000000       0.72000000       0.00001000       0.00001000      -0.00000000
