8
Lattice="6.704906 0.0 0.0 0.0 6.704906 0.0 0.0 0.0 6.704906" Properties=species:S:1:pos:R:3:mulliken_charges:R:1:forces:R:3 virial="-19.492707802863098 3.762683477071058e-06 3.762683477071058e-06 3.762683477071058e-06 -19.492707802863098 3.762683477071058e-06 3.762683477071058e-06 3.762683477071058e-06 -19.492707802863098" fermi_energy=0.3867009851295 core_to_fermi_energy=14.694082866904889 config_type=EOS energy=-7855.381625449 stress="0.06466869423438787 -1.2483018251766515e-08 -1.2483018251766515e-08 -1.2483018251766515e-08 0.06466869423438787 -1.2483018251766515e-08 -1.2483018251766515e-08 -1.2483018251766515e-08 0.06466869423438787" pbc="T T T"
P        1.67622650       1.67622650       5.02867950      -0.55000000       0.00000000       0.00000000       0.00000000
P        5.02867950       1.67622650       1.67622650      -0.55000000       0.00000000       0.00000000       0.00000000
P        1.67622650       5.02867950       1.67622650      -0.55000000       0.00000000       0.00000000       0.00000000
P        5.02867950       5.02867950       5.02867950      -0.55000000       0.00000000       0.00000000       0.00000000
In       0.00000000       0.00000000       0.00000000       0.55000000      -0.00000000      -0.00000000      -0.00000000
In       3.35245300       0.00000000       3.35245300       0.55000000      -0.00000000      -0.00000000      -0.00000000
In       0.00000000       3.35245300       3.35245300       0.55000000      -0.00000000      -0.00000000      -0.00000000
In       3.35245300       3.35245300       0.00000000       0.55000000      -0.00000000      -0.00000000      -0.00000000
