8
Lattice="7.082334 0.0 0.0 0.0 7.082334 0.0 0.0 0.0 7.082334" Properties=species:S:1:pos:R:3:mulliken_charges:R:1:forces:R:3 virial="-21.434580496522262 -6.651813691942823e-06 -6.651813691942823e-06 -6.651813691942823e-06 -21.434580496522262 -6.651813691942823e-06 -6.651813691942823e-06 -6.651813691942823e-06 -21.434578279251028" fermi_energy=-0.5222681027085001 core_to_fermi_energy=14.637824962134212 config_type=EOS energy=-7851.982213344 stress="0.06033728662931692 1.8724527377649774e-08 1.8724527377649774e-08 1.8724527377649774e-08 0.06033728662931692 1.8724527377649774e-08 1.8724527377649774e-08 1.8724527377649774e-08 0.060337280387807786" pbc="T T T"
P        1.77058350       1.77058350       5.31175050      -0.50000000      -0.00000000      -0.00000000      -0.00000000
P        5.31175050       1.77058350       1.77058350      -0.50000000      -0.00000000      -0.00000000      -0.00000000
P        1.77058350       5.31175050       1.77058350      -0.50000000      -0.00000000      -0.00000000      -0.00000000
P        5.31175050       5.31175050       5.31175050      -0.50000000      -0.00000000      -0.00000000      -0.00000000
In       0.00000000       0.00000000       0.00000000       0.50000000      -0.00000000      -0.00000000       0.00000000
In       3.54116700       0.00000000       3.54116700       0.50000000       0.00000000      -0.00000000       0.00000000
In       0.00000000       3.54116700       3.54116700       0.50000000      -0.00000000       0.00000000       0.00000000
In       3.54116700       3.54116700       0.00000000       0.50000000       0.00000000       0.00000000       0.00000000
