8
Lattice="4.283072 0.0 0.0 0.0 4.283072 0.0 0.0 0.0 4.283072" Properties=species:S:1:pos:R:3:mulliken_charges:R:1:forces:R:3 virial="247.69228596343228 -3.9232476398314235e-06 -3.432841684852496e-06 -3.9232476398314235e-06 247.69228694424422 -3.9232476398314235e-06 -3.432841684852496e-06 -3.9232476398314235e-06 247.69228645383822" fermi_energy=17.8141233426165 core_to_fermi_energy=23.572628639940213 config_type=EOS energy=-7772.715464505 stress="-3.152436563128758 4.993207300706606e-08 4.369056388118281e-08 4.993207300706606e-08 -3.1524365756117767 4.993207300706606e-08 4.369056388118281e-08 4.993207300706606e-08 -3.152436569370267" pbc="T T T"
P        1.07076800       1.07076800       3.21230400      -0.66000000       0.00000000      -0.00000000      -0.00000000
P        3.21230400       1.07076800       1.07076800      -0.66000000      -0.00000000      -0.00000000      -0.00000000
P        1.07076800       3.21230400       1.07076800      -0.66000000       0.00000000      -0.00000000      -0.00000000
P        3.21230400       3.21230400       3.21230400      -0.66000000      -0.00000000      -0.00000000      -0.00000000
In       0.00000000       0.00000000       0.00000000       0.66000000       0.00000000       0.00000000       0.00000000
In       2.14153600       0.00000000       2.14153600       0.66000000       0.00000000       0.00000000       0.00000000
In       0.00000000       2.14153600       2.14153600       0.66000000       0.00000000       0.00000000       0.00000000
In       2.14153600       2.14153600       0.00000000       0.66000000       0.00000000       0.00000000       0.00000000
