8
Lattice="5.792786 0.0 0.0 0.0 5.792786 0.0 0.0 0.0 5.792786" Properties=species:S:1:pos:R:3:mulliken_charges:R:1:forces:R:3 virial="5.222116131585842 1.941207886803497e-05 2.0625333797287154e-05 1.941207886803497e-05 5.222116131585842 2.0625333797287154e-05 2.0625333797287154e-05 2.0625333797287154e-05 5.222116131585842" fermi_energy=4.2704186265075 core_to_fermi_energy=15.8836334383716 config_type=EOS energy=-7859.795771219 stress="-0.026864828409809235 -9.986414601413212e-08 -1.0610565514001538e-07 -9.986414601413212e-08 -0.026864828409809235 -1.0610565514001538e-07 -1.0610565514001538e-07 -1.0610565514001538e-07 -0.026864828409809235" pbc="T T T"
P        1.44819650       1.44819650       4.34458950      -0.69000000      -0.00000000      -0.00000000      -0.00000000
P        4.34458950       1.44819650       1.44819650      -0.69000000      -0.00000000      -0.00000000      -0.00000000
P        1.44819650       4.34458950       1.44819650      -0.69000000      -0.00000000      -0.00000000      -0.00000000
P        4.34458950       4.34458950       4.34458950      -0.69000000      -0.00000000      -0.00000000      -0.00000000
In       0.00000000       0.00000000       0.00000000       0.69000000       0.00000000       0.00000000       0.00000000
In       2.89639300       0.00000000       2.89639300       0.69000000       0.00000000       0.00000000       0.00000000
In       0.00000000       2.89639300       2.89639300       0.69000000       0.00000000       0.00000000       0.00000000
In       2.89639300       2.89639300       0.00000000       0.69000000       0.00000000       0.00000000       0.00000000
