8
Lattice="5.069381 0.0 0.0 0.0 5.069381 0.0 0.0 0.0 5.069381" Properties=species:S:1:pos:R:3:mulliken_charges:R:1:forces:R:3 virial="68.57332327074455 -3.9842858419699726e-05 -3.9842858419699726e-05 -3.9842858419699726e-05 68.573322457625 -3.902973886011402e-05 -3.9842858419699726e-05 -3.902973886011402e-05 68.57332164450546" fermi_energy=8.822202968745 core_to_fermi_energy=17.891589256238788 config_type=EOS energy=-7846.710291559 stress="-0.526369115022353 3.058339471682796e-07 3.058339471682796e-07 3.058339471682796e-07 -0.5263691087808439 2.995924380423964e-07 3.058339471682796e-07 2.995924380423964e-07 -0.5263691025393348" pbc="T T T"
P        1.26734525       1.26734525       3.80203575      -0.73000000       0.00563000       0.00563000      -0.00562000
P        3.80203575       1.26734525       1.26734525      -0.73000000      -0.00562000       0.00563000       0.00563000
P        1.26734525       3.80203575       1.26734525      -0.73000000       0.00563000      -0.00562000       0.00563000
P        3.80203575       3.80203575       3.80203575      -0.73000000      -0.00562000      -0.00562000      -0.00562000
In       0.00000000       0.00000000       0.00000000       0.73000000       0.00000000       0.00000000       0.00000000
In       2.53469050       0.00000000       2.53469050       0.73000000      -0.00001000       0.00000000      -0.00001000
In       0.00000000       2.53469050       2.53469050       0.73000000       0.00000000      -0.00001000      -0.00001000
In       2.53469050       2.53469050       0.00000000       0.73000000      -0.00001000      -0.00001000       0.00000000
