8
Lattice="4.12581 0.0 0.0 0.0 4.12581 0.0 0.0 0.0 4.12581" Properties=species:S:1:pos:R:3:mulliken_charges:R:1:forces:R:3 virial="309.5419038397889 -0.0003037739419806708 -0.0003037739419806708 -0.0003037739419806708 309.5419047164814 -0.0003037739419806708 -0.0003037739419806708 -0.0003037739419806708 309.5419038397889" fermi_energy=20.319665993223 core_to_fermi_energy=25.34809855205475 config_type=EOS energy=-7741.53082172 stress="-4.407494478651176 4.325365824237098e-06 4.325365824237098e-06 4.325365824237098e-06 -4.4074944911341944 4.325365824237098e-06 4.325365824237098e-06 4.325365824237098e-06 -4.407494478651176" pbc="T T T"
P        1.03145250       1.03145250       3.09435750      -0.60000000       0.00004000       0.00004000       0.00004000
P        3.09435750       1.03145250       1.03145250      -0.60000000       0.00004000       0.00004000       0.00004000
P        1.03145250       3.09435750       1.03145250      -0.60000000       0.00004000       0.00004000       0.00004000
P        3.09435750       3.09435750       3.09435750      -0.60000000       0.00004000       0.00004000       0.00004000
In       0.00000000       0.00000000       0.00000000       0.60000000      -0.00004000      -0.00004000      -0.00004000
In       2.06290500       0.00000000       2.06290500       0.60000000      -0.00004000      -0.00004000      -0.00004000
In       0.00000000       2.06290500       2.06290500       0.60000000      -0.00004000      -0.00004000      -0.00004000
In       2.06290500       2.06290500       0.00000000       0.60000000      -0.00004000      -0.00004000      -0.00004000
