8
Lattice="4.251619 0.0 0.0 0.0 4.251619 0.0 0.0 0.0 4.251619" Properties=species:S:1:pos:R:3:mulliken_charges:R:1:forces:R:3 virial="259.1621480290265 -0.00013047326531267668 -0.00013047326531267668 -0.00013047326531267668 259.1621470696643 -0.00013047326531267668 -0.00013047326531267668 -0.00013047326531267668 259.1621470696643" fermi_energy=18.279628497258003 core_to_fermi_energy=23.893186096424028 config_type=EOS energy=-7767.112368921 stress="-3.3721629562303 1.6976904822402461e-06 1.6976904822402461e-06 1.6976904822402461e-06 -3.372162943747282 1.6976904822402461e-06 1.6976904822402461e-06 1.6976904822402461e-06 -3.372162943747282" pbc="T T T"
P        1.06290475       1.06290475       3.18871425      -0.65000000      -0.00001000      -0.00001000       0.00004000
P        3.18871425       1.06290475       1.06290475      -0.65000000       0.00004000      -0.00001000      -0.00001000
P        1.06290475       3.18871425       1.06290475      -0.65000000      -0.00001000       0.00004000      -0.00001000
P        3.18871425       3.18871425       3.18871425      -0.65000000       0.00004000       0.00004000       0.00004000
In       0.00000000       0.00000000       0.00000000       0.65000000       0.00001000       0.00001000       0.00001000
In       2.12580950       0.00000000       2.12580950       0.65000000      -0.00004000       0.00001000      -0.00004000
In       0.00000000       2.12580950       2.12580950       0.65000000       0.00001000      -0.00004000      -0.00004000
In       2.12580950       2.12580950       0.00000000       0.65000000      -0.00004000      -0.00004000       0.00001000
