8
Lattice="5.44681 0.0 0.0 0.0 5.44681 0.0 0.0 0.0 5.44681" Properties=species:S:1:pos:R:3:mulliken_charges:R:1:forces:R:3 virial="28.233875496855543 -4.135234523634801e-05 -4.135234523634801e-05 -4.135234523634801e-05 28.233875496855543 -4.034375145009562e-05 -4.135234523634801e-05 -4.034375145009562e-05 28.233875496855543" fermi_energy=6.1983452183325 core_to_fermi_energy=16.622316403147053 config_type=EOS energy=-7856.844514451 stress="-0.1747204811041517 2.559018741612136e-07 2.559018741612136e-07 2.559018741612136e-07 -0.1747204811041517 2.4966036503533035e-07 2.559018741612136e-07 2.4966036503533035e-07 -0.1747204811041517" pbc="T T T"
P        1.36170250       1.36170250       4.08510750      -0.72000000       0.00001000       0.00001000       0.00001000
P        4.08510750       1.36170250       1.36170250      -0.72000000       0.00001000       0.00001000       0.00001000
P        1.36170250       4.08510750       1.36170250      -0.72000000       0.00001000       0.00001000       0.00001000
P        4.08510750       4.08510750       4.08510750      -0.72000000       0.00001000       0.00001000       0.00001000
In       0.00000000       0.00000000       0.00000000       0.72000000      -0.00001000      -0.00001000      -0.00001000
In       2.72340500       0.00000000       2.72340500       0.72000000      -0.00001000      -0.00001000      -0.00001000
In       0.00000000       2.72340500       2.72340500       0.72000000      -0.00001000      -0.00001000      -0.00001000
In       2.72340500       2.72340500       0.00000000       0.72000000      -0.00001000      -0.00001000      -0.00001000
