8
Lattice="5.604072 0.0 0.0 0.0 5.604072 0.0 0.0 0.0 5.604072" Properties=species:S:1:pos:R:3:mulliken_charges:R:1:forces:R:3 virial="16.421127158749265 -0.0 -0.0 -0.0 16.421127158749265 0.0 -0.0 0.0 16.421127158749265" fermi_energy=5.3546290305255 core_to_fermi_energy=16.325393394670712 config_type=EOS energy=-7858.734629625 stress="-0.0933021915682169 0.0 0.0 0.0 -0.0933021915682169 -0.0 0.0 -0.0 -0.0933021915682169" pbc="T T T"
P        1.40101800       1.40101800       4.20305400      -0.71000000      -0.00000000      -0.00000000       0.00000000
P        4.20305400       1.40101800       1.40101800      -0.71000000       0.00000000      -0.00000000      -0.00000000
P        1.40101800       4.20305400       1.40101800      -0.71000000      -0.00000000      -0.00000000      -0.00000000
P        4.20305400       4.20305400       4.20305400      -0.71000000       0.00000000      -0.00000000       0.00000000
In       0.00000000       0.00000000       0.00000000       0.71000000       0.00000000       0.00000000       0.00000000
In       2.80203600       0.00000000       2.80203600       0.71000000       0.00000000       0.00000000       0.00000000
In       0.00000000       2.80203600       2.80203600       0.71000000       0.00000000       0.00000000       0.00000000
In       2.80203600       2.80203600       0.00000000       0.71000000       0.00000000       0.00000000       0.00000000
