8
Lattice="6.610548 0.0 0.0 0.0 6.610548 0.0 0.0 0.0 6.610548" Properties=species:S:1:pos:R:3:mulliken_charges:R:1:forces:R:3 virial="-18.47253006447502 -0.0 -0.0 -0.0 -18.47253006447502 0.0 -0.0 0.0 -18.47253006447502" fermi_energy=0.615684785697 core_to_fermi_energy=14.686058229615842 config_type=EOS energy=-7856.193433198 stress="0.06394608975684786 0.0 0.0 0.0 0.06394608975684786 -0.0 0.0 -0.0 0.06394608975684786" pbc="T T T"
P        1.65263700       1.65263700       4.95791100      -0.56000000       0.00000000       0.00000000       0.00000000
P        4.95791100       1.65263700       1.65263700      -0.56000000       0.00000000       0.00000000       0.00000000
P        1.65263700       4.95791100       1.65263700      -0.56000000       0.00000000       0.00000000       0.00000000
P        4.95791100       4.95791100       4.95791100      -0.56000000       0.00000000       0.00000000       0.00000000
In       0.00000000       0.00000000       0.00000000       0.56000000      -0.00000000      -0.00000000      -0.00000000
In       3.30527400       0.00000000       3.30527400       0.56000000       0.00000000      -0.00000000      -0.00000000
In       0.00000000       3.30527400       3.30527400       0.56000000      -0.00000000      -0.00000000      -0.00000000
In       3.30527400       3.30527400       0.00000000       0.56000000       0.00000000      -0.00000000      -0.00000000
