8
Lattice="5.572619 0.0 0.0 0.0 5.572619 0.0 0.0 0.0 5.572619" Properties=species:S:1:pos:R:3:mulliken_charges:R:1:forces:R:3 virial="18.590044531884917 1.6201637949326313e-05 1.6201637949326313e-05 1.6201637949326313e-05 18.59004345177572 1.6201637949326313e-05 1.6201637949326313e-05 1.6201637949326313e-05 18.59004345177572" fermi_energy=5.5083189301815 core_to_fermi_energy=16.37048592415335 config_type=EOS energy=-7858.439440977 stress="-0.10742426132398598 -9.362263688824888e-08 -9.362263688824888e-08 -9.362263688824888e-08 -0.10742425508247685 -9.362263688824888e-08 -9.362263688824888e-08 -9.362263688824888e-08 -0.10742425508247685" pbc="T T T"
P        1.39315475       1.39315475       4.17946425      -0.71000000       0.00000000       0.00000000      -0.00001000
P        4.17946425       1.39315475       1.39315475      -0.71000000      -0.00001000       0.00000000       0.00000000
P        1.39315475       4.17946425       1.39315475      -0.71000000       0.00000000      -0.00001000       0.00000000
P        4.17946425       4.17946425       4.17946425      -0.71000000      -0.00001000      -0.00001000      -0.00001000
In       0.00000000       0.00000000       0.00000000       0.71000000       0.00001000       0.00001000       0.00001000
In       2.78630950       0.00000000       2.78630950       0.71000000      -0.00000000       0.00001000      -0.00000000
In       0.00000000       2.78630950       2.78630950       0.71000000       0.00001000      -0.00000000      -0.00000000
In       2.78630950       2.78630950       0.00000000       0.71000000      -0.00000000      -0.00000000       0.00001000
