8
Lattice="4.723405 0.0 0.0 0.0 4.723405 0.0 0.0 0.0 4.723405" Properties=species:S:1:pos:R:3:mulliken_charges:R:1:forces:R:3 virial="126.74531810220003 6.380091380551088e-05 6.445865518494913e-05 6.380091380551088e-05 126.74531810220003 6.445865518494913e-05 6.445865518494913e-05 6.445865518494913e-05 126.74531744445864" fermi_energy=12.112930119099 core_to_fermi_energy=19.85292761863596 config_type=EOS energy=-7826.371223833 stress="-1.2027250897206452 -6.05426385210676e-07 -6.116678943365592e-07 -6.05426385210676e-07 -1.2027250897206452 -6.116678943365592e-07 -6.116678943365592e-07 -6.116678943365592e-07 -1.2027250834791359" pbc="T T T"
P        1.18085125       1.18085125       3.54255375      -0.74000000      -0.00999000      -0.00999000       0.00997000
P        3.54255375       1.18085125       1.18085125      -0.74000000       0.00997000      -0.00999000      -0.00999000
P        1.18085125       3.54255375       1.18085125      -0.74000000      -0.00999000       0.00997000      -0.00999000
P        3.54255375       3.54255375       3.54255375      -0.74000000       0.00997000       0.00997000       0.00997000
In       0.00000000       0.00000000       0.00000000       0.74000000      -0.00000000      -0.00000000      -0.00000000
In       2.36170250       0.00000000       2.36170250       0.74000000       0.00002000      -0.00000000       0.00002000
In       0.00000000       2.36170250       2.36170250       0.74000000      -0.00000000       0.00002000       0.00002000
In       2.36170250       2.36170250       0.00000000       0.74000000       0.00002000       0.00002000      -0.00000000
