8
Lattice="5.321 0.0 0.0 0.0 5.321 0.0 0.0 0.0 5.321" Properties=species:S:1:pos:R:3:mulliken_charges:R:1:forces:R:3 virial="39.59969087256235 -9.403063882293795e-07 -0.0 -9.403063882293795e-07 39.59969087256235 -0.0 -0.0 -0.0 39.599689932255956" fermi_energy=6.9804548316315005 core_to_fermi_energy=16.960257308391 config_type=EOS energy=-7854.477421269 stress="-0.2628524436898337 6.241509125883258e-09 0.0 6.241509125883258e-09 -0.2628524436898337 0.0 0.0 0.0 -0.26285243744832454" pbc="T T T"
P        1.33025000       1.33025000       3.99075000      -0.72000000      -0.00000000      -0.00000000       0.00000000
P        3.99075000       1.33025000       1.33025000      -0.72000000       0.00000000      -0.00000000      -0.00000000
P        1.33025000       3.99075000       1.33025000      -0.72000000      -0.00000000       0.00000000      -0.00000000
P        3.99075000       3.99075000       3.99075000      -0.72000000       0.00000000       0.00000000       0.00000000
In       0.00000000       0.00000000       0.00000000       0.72000000       0.00000000       0.00000000       0.00000000
In       2.66050000       0.00000000       2.66050000       0.72000000       0.00000000       0.00000000       0.00000000
In       0.00000000       2.66050000       2.66050000       0.72000000       0.00000000       0.00000000       0.00000000
In       2.66050000       2.66050000       0.00000000       0.72000000       0.00000000       0.00000000       0.00000000
