8
Lattice="5.163738 0.0 0.0 0.0 5.163738 0.0 0.0 0.0 5.163738" Properties=species:S:1:pos:R:3:mulliken_charges:R:1:forces:R:3 virial="56.62482005683282 6.61717973727359e-05 6.61717973727359e-05 6.61717973727359e-05 56.62482005683282 6.61717973727359e-05 6.61717973727359e-05 6.61717973727359e-05 56.62482005683282" fermi_energy=8.0840941641825 core_to_fermi_energy=17.499010884171135 config_type=EOS energy=-7850.167555296 stress="-0.41125788595703866 -4.805962026930109e-07 -4.805962026930109e-07 -4.805962026930109e-07 -0.41125788595703866 -4.805962026930109e-07 -4.805962026930109e-07 -4.805962026930109e-07 -0.41125788595703866" pbc="T T T"
P        1.29093450       1.29093450       3.87280350      -0.73000000       0.01110000       0.01110000      -0.01113000
P        3.87280350       1.29093450       1.29093450      -0.73000000      -0.01113000       0.01110000       0.01110000
P        1.29093450       3.87280350       1.29093450      -0.73000000       0.01110000      -0.01113000       0.01110000
P        3.87280350       3.87280350       3.87280350      -0.73000000      -0.01113000      -0.01113000      -0.01113000
In       0.00000000       0.00000000       0.00000000       0.73000000       0.00001000       0.00001000       0.00001000
In       2.58186900       0.00000000       2.58186900       0.73000000       0.00001000       0.00001000       0.00001000
In       0.00000000       2.58186900       2.58186900       0.73000000       0.00001000       0.00001000       0.00001000
In       2.58186900       2.58186900       0.00000000       0.73000000       0.00001000       0.00001000       0.00001000
