8
Lattice="6.547644 0.0 0.0 0.0 6.547644 0.0 0.0 0.0 6.547644" Properties=species:S:1:pos:R:3:mulliken_charges:R:1:forces:R:3 virial="-17.657563403591908 -0.0 -0.0 -0.0 -17.657563403591908 0.0 -0.0 0.0 -17.657563403591908" fermi_energy=0.8058107291985 core_to_fermi_energy=14.712005373191971 config_type=EOS energy=-7856.712468483 stress="0.06290361417811546 0.0 0.0 0.0 0.06290361417811546 -0.0 0.0 -0.0 0.06290361417811546" pbc="T T T"
P        1.63691100       1.63691100       4.91073300      -0.57000000       0.00000000       0.00000000       0.00000000
P        4.91073300       1.63691100       1.63691100      -0.57000000       0.00000000       0.00000000       0.00000000
P        1.63691100       4.91073300       1.63691100      -0.57000000       0.00000000       0.00000000       0.00000000
P        4.91073300       4.91073300       4.91073300      -0.57000000      -0.00000000       0.00000000       0.00000000
In       0.00000000       0.00000000       0.00000000       0.57000000       0.00000000      -0.00000000      -0.00000000
In       3.27382200       0.00000000       3.27382200       0.57000000      -0.00000000      -0.00000000      -0.00000000
In       0.00000000       3.27382200       3.27382200       0.57000000       0.00000000      -0.00000000      -0.00000000
In       3.27382200       3.27382200       0.00000000       0.57000000      -0.00000000      -0.00000000      -0.00000000
