8
Lattice="4.188714 0.0 0.0 0.0 4.188714 0.0 0.0 0.0 4.188714" Properties=species:S:1:pos:R:3:mulliken_charges:R:1:forces:R:3 virial="283.43679205719457 0.00027017616296188423 0.0002697174597989608 0.00027017616296188423 283.43679297460085 0.0002692587566360374 0.0002697174597989608 0.0002692587566360374 283.43679159849137" fermi_energy=19.265088786925503 core_to_fermi_energy=24.597949254078692 config_type=EOS energy=-7754.983264359 stress="-3.8566843815974874 -3.676248875145239e-06 -3.6700073660193554e-06 -3.676248875145239e-06 -3.8566843940805056 -3.663765856893472e-06 -3.6700073660193554e-06 -3.663765856893472e-06 -3.8566843753559783" pbc="T T T"
P        1.04717850       1.04717850       3.14153550      -0.63000000      -0.00004000      -0.00004000      -0.00004000
P        3.14153550       1.04717850       1.04717850      -0.63000000      -0.00004000      -0.00004000      -0.00004000
P        1.04717850       3.14153550       1.04717850      -0.63000000      -0.00004000      -0.00004000      -0.00004000
P        3.14153550       3.14153550       3.14153550      -0.63000000      -0.00004000      -0.00004000      -0.00004000
In       0.00000000       0.00000000       0.00000000       0.63000000       0.00004000       0.00004000       0.00004000
In       2.09435700       0.00000000       2.09435700       0.63000000       0.00004000       0.00004000       0.00004000
In       0.00000000       2.09435700       2.09435700       0.63000000       0.00004000       0.00004000       0.00004000
In       2.09435700       2.09435700       0.00000000       0.63000000       0.00004000       0.00004000       0.00004000
