8
Lattice="4.534691 0.0 0.0 0.0 4.534691 0.0 0.0 0.0 4.534691" Properties=species:S:1:pos:R:3:mulliken_charges:R:1:forces:R:3 virial="170.70739836011947 8.32278631264139e-05 8.32278631264139e-05 8.32278631264139e-05 170.70739836011947 8.32278631264139e-05 8.32278631264139e-05 8.32278631264139e-05 170.70739836011947" fermi_energy=14.348345355774 core_to_fermi_energy=21.290038658640633 config_type=EOS energy=-7808.259992177 stress="-1.8306665519407384 -8.925358050013059e-07 -8.925358050013059e-07 -8.925358050013059e-07 -1.8306665519407384 -8.925358050013059e-07 -8.925358050013059e-07 -8.925358050013059e-07 -1.8306665519407384" pbc="T T T"
P        1.13367275       1.13367275       3.40101825      -0.72000000      -0.00003000      -0.00003000       0.00000000
P        3.40101825       1.13367275       1.13367275      -0.72000000       0.00000000      -0.00003000      -0.00003000
P        1.13367275       3.40101825       1.13367275      -0.72000000      -0.00003000       0.00000000      -0.00003000
P        3.40101825       3.40101825       3.40101825      -0.72000000       0.00000000       0.00000000       0.00000000
In       0.00000000       0.00000000       0.00000000       0.72000000      -0.00000000      -0.00000000      -0.00000000
In       2.26734550       0.00000000       2.26734550       0.72000000       0.00003000      -0.00000000       0.00003000
In       0.00000000       2.26734550       2.26734550       0.72000000      -0.00000000       0.00003000       0.00003000
In       2.26734550       2.26734550       0.00000000       0.72000000       0.00003000       0.00003000      -0.00000000
