8
Lattice="6.484739 0.0 0.0 0.0 6.484739 0.0 0.0 0.0 6.484739" Properties=species:S:1:pos:R:3:mulliken_charges:R:1:forces:R:3 virial="-16.721285320102226 -0.0 -0.0 -0.0 -16.721285320102226 -0.0 -0.0 -0.0 -16.721285320102226" fermi_energy=1.008671600646 core_to_fermi_energy=14.746144231957981 config_type=EOS energy=-7857.210961725 stress="0.06131858917710653 0.0 0.0 0.0 0.06131858917710653 0.0 0.0 0.0 0.06131858917710653" pbc="T T T"
P        1.62118475       1.62118475       4.86355425      -0.58000000      -0.00000000      -0.00000000       0.00000000
P        4.86355425       1.62118475       1.62118475      -0.58000000       0.00000000      -0.00000000      -0.00000000
P        1.62118475       4.86355425       1.62118475      -0.58000000      -0.00000000       0.00000000      -0.00000000
P        4.86355425       4.86355425       4.86355425      -0.58000000       0.00000000       0.00000000       0.00000000
In       0.00000000       0.00000000       0.00000000       0.58000000      -0.00000000      -0.00000000      -0.00000000
In       3.24236950       0.00000000       3.24236950       0.58000000       0.00000000      -0.00000000       0.00000000
In       0.00000000       3.24236950       3.24236950       0.58000000      -0.00000000       0.00000000       0.00000000
In       3.24236950       3.24236950       0.00000000       0.58000000       0.00000000       0.00000000      -0.00000000
