8
Lattice="5.478262 0.0 0.0 0.0 5.478262 0.0 0.0 0.0 5.478262" Properties=species:S:1:pos:R:3:mulliken_charges:R:1:forces:R:3 virial="25.67080587765254 3.796817565255966e-05 3.796817565255966e-05 3.796817565255966e-05 25.67080587765254 3.899434256208831e-05 3.796817565255966e-05 3.899434256208831e-05 25.67080587765254" fermi_energy=6.016056153567001 core_to_fermi_energy=16.550131130800832 config_type=EOS energy=-7857.309661673 stress="-0.1561388967685029 -2.3093583765768052e-07 -2.3093583765768052e-07 -2.3093583765768052e-07 -0.1561388967685029 -2.371773467835638e-07 -2.3093583765768052e-07 -2.371773467835638e-07 -0.1561388967685029" pbc="T T T"
P        1.36956550       1.36956550       4.10869650      -0.72000000      -0.00001000      -0.00001000      -0.00001000
P        4.10869650       1.36956550       1.36956550      -0.72000000      -0.00001000      -0.00001000      -0.00001000
P        1.36956550       4.10869650       1.36956550      -0.72000000      -0.00001000      -0.00001000      -0.00001000
P        4.10869650       4.10869650       4.10869650      -0.72000000      -0.00001000      -0.00001000      -0.00001000
In       0.00000000       0.00000000       0.00000000       0.72000000       0.00001000       0.00001000       0.00001000
In       2.73913100       0.00000000       2.73913100       0.72000000       0.00001000       0.00001000       0.00001000
In       0.00000000       2.73913100       2.73913100       0.72000000       0.00001000       0.00001000       0.00001000
In       2.73913100       2.73913100       0.00000000       0.72000000       0.00001000       0.00001000       0.00001000
