8
Lattice="6.987977 0.0 0.0 0.0 6.987977 0.0 0.0 0.0 6.987977" Properties=species:S:1:pos:R:3:mulliken_charges:R:1:forces:R:3 virial="-21.238459565077637 2.1298254414345908e-06 4.2596508828691816e-06 2.1298254414345908e-06 -21.238459565077637 2.1298254414345908e-06 4.2596508828691816e-06 2.1298254414345908e-06 -21.238459565077637" fermi_energy=-0.3221555810955 core_to_fermi_energy=14.638754775142576 config_type=EOS energy=-7852.834721891 stress="0.062239860890123413 -6.241509125883258e-09 -1.2483018251766515e-08 -6.241509125883258e-09 0.062239860890123413 -6.241509125883258e-09 -1.2483018251766515e-08 -6.241509125883258e-09 0.062239860890123413" pbc="T T T"
P        1.74699425       1.74699425       5.24098275      -0.51000000       0.00000000       0.00000000      -0.00000000
P        5.24098275       1.74699425       1.74699425      -0.51000000      -0.00000000       0.00000000       0.00000000
P        1.74699425       5.24098275       1.74699425      -0.51000000       0.00000000      -0.00000000       0.00000000
P        5.24098275       5.24098275       5.24098275      -0.51000000      -0.00000000      -0.00000000      -0.00000000
In       0.00000000       0.00000000       0.00000000       0.51000000       0.00000000      -0.00000000      -0.00001000
In       3.49398850       0.00000000       3.49398850       0.51000000      -0.00000000      -0.00000000       0.00000000
In       0.00000000       3.49398850       3.49398850       0.51000000       0.00000000       0.00000000       0.00000000
In       3.49398850       3.49398850       0.00000000       0.51000000      -0.00000000       0.00000000      -0.00001000
