8
Lattice="6.89362 0.0 0.0 0.0 6.89362 0.0 0.0 0.0 6.89362" Properties=species:S:1:pos:R:3:mulliken_charges:R:1:forces:R:3 virial="-20.848163436388496 0.0 -0.0 0.0 -20.848165481098068 0.0 -0.0 0.0 -20.848165481098068" fermi_energy=-0.1054985377065 core_to_fermi_energy=14.647294251826366 config_type=EOS energy=-7853.694732991 stress="0.06363935703236545 -0.0 0.0 -0.0 0.06363936327387458 -0.0 0.0 -0.0 0.06363936327387458" pbc="T T T"
P        1.72340500       1.72340500       5.17021500      -0.52000000       0.00000000       0.00000000       0.00000000
P        5.17021500       1.72340500       1.72340500      -0.52000000      -0.00000000      -0.00000000      -0.00000000
P        1.72340500       5.17021500       1.72340500      -0.52000000       0.00000000      -0.00000000       0.00000000
P        5.17021500       5.17021500       5.17021500      -0.52000000      -0.00000000      -0.00000000      -0.00000000
In       0.00000000       0.00000000       0.00000000       0.52000000       0.00001000      -0.00000000      -0.00000000
In       3.44681000       0.00000000       3.44681000       0.52000000      -0.00001000      -0.00000000       0.00000000
In       0.00000000       3.44681000       3.44681000       0.52000000       0.00001000       0.00000000       0.00000000
In       3.44681000       3.44681000       0.00000000       0.52000000      -0.00001000       0.00000000      -0.00000000
