8
Lattice="5.981501 0.0 0.0 0.0 5.981501 0.0 0.0 0.0 5.981501" Properties=species:S:1:pos:R:3:mulliken_charges:R:1:forces:R:3 virial="-3.3495266116016396 -6.678672585940026e-06 -6.678672585940026e-06 -6.678672585940026e-06 -3.3495266116016396 -5.342938068752019e-06 -6.678672585940026e-06 -5.342938068752019e-06 -3.3495266116016396" fermi_energy=3.1810380594345005 core_to_fermi_energy=15.415678987011256 config_type=EOS energy=-7859.864301447 stress="0.01565138928782951 3.1207545629416294e-08 3.1207545629416294e-08 3.1207545629416294e-08 0.01565138928782951 2.496603650353303e-08 3.1207545629416294e-08 2.496603650353303e-08 0.01565138928782951" pbc="T T T"
P        1.49537525       1.49537525       4.48612575      -0.66000000      -0.00000000      -0.00000000       0.00000000
P        4.48612575       1.49537525       1.49537525      -0.66000000       0.00000000      -0.00000000      -0.00000000
P        1.49537525       4.48612575       1.49537525      -0.66000000      -0.00000000       0.00000000      -0.00000000
P        4.48612575       4.48612575       4.48612575      -0.66000000       0.00000000       0.00000000       0.00000000
In       0.00000000       0.00000000       0.00000000       0.66000000      -0.00000000      -0.00000000      -0.00000000
In       2.99075050       0.00000000       2.99075050       0.66000000       0.00000000      -0.00000000       0.00000000
In       0.00000000       2.99075050       2.99075050       0.66000000      -0.00000000       0.00000000       0.00000000
In       2.99075050       2.99075050       0.00000000       0.66000000       0.00000000       0.00000000      -0.00000000
