8
Lattice="6.201667 0.0 0.0 0.0 6.201667 0.0 0.0 0.0 6.201667" Properties=species:S:1:pos:R:3:mulliken_charges:R:1:forces:R:3 virial="-10.667272219267847 -2.9774531351339983e-06 -2.9774531351339983e-06 -2.9774531351339983e-06 -10.667272219267847 -2.9774531351339983e-06 -2.9774531351339983e-06 -2.9774531351339983e-06 -10.667272219267847" fermi_energy=2.103222330774 core_to_fermi_energy=15.026839731287748 config_type=EOS energy=-7859.081297588 stress="0.044722703520802744 1.2483018251766515e-08 1.2483018251766515e-08 1.2483018251766515e-08 0.044722703520802744 1.2483018251766515e-08 1.2483018251766515e-08 1.2483018251766515e-08 0.044722703520802744" pbc="T T T"
P        1.55041675       1.55041675       4.65125025      -0.63000000      -0.00000000      -0.00000000       0.00000000
P        4.65125025       1.55041675       1.55041675      -0.63000000       0.00000000      -0.00000000      -0.00000000
P        1.55041675       4.65125025       1.55041675      -0.63000000      -0.00000000       0.00000000      -0.00000000
P        4.65125025       4.65125025       4.65125025      -0.63000000       0.00000000       0.00000000       0.00000000
In       0.00000000       0.00000000       0.00000000       0.63000000       0.00000000       0.00000000       0.00000000
In       3.10083350       0.00000000       3.10083350       0.63000000      -0.00000000       0.00000000      -0.00000000
In       0.00000000       3.10083350       3.10083350       0.63000000       0.00000000      -0.00000000      -0.00000000
In       3.10083350       3.10083350       0.00000000       0.63000000      -0.00000000      -0.00000000       0.00000000
