8
Lattice="6.296024 0.0 0.0 0.0 6.296024 0.0 0.0 0.0 6.296024" Properties=species:S:1:pos:R:3:mulliken_charges:R:1:forces:R:3 virial="-13.06597968458581 0.0 -0.0 0.0 -13.06597968458581 0.0 -0.0 0.0 -13.06597968458581" fermi_energy=1.703269401393 core_to_fermi_energy=14.90776026369114 config_type=EOS energy=-7858.541234657 stress="0.05235315439699618 -0.0 0.0 -0.0 0.05235315439699618 -0.0 0.0 -0.0 0.05235315439699618" pbc="T T T"
P        1.57400600       1.57400600       4.72201800      -0.61000000      -0.00000000       0.00000000      -0.00000000
P        4.72201800       1.57400600       1.57400600      -0.61000000      -0.00000000       0.00000000      -0.00000000
P        1.57400600       4.72201800       1.57400600      -0.61000000      -0.00000000      -0.00000000      -0.00000000
P        4.72201800       4.72201800       4.72201800      -0.61000000      -0.00000000      -0.00000000      -0.00000000
In       0.00000000       0.00000000       0.00000000       0.61000000       0.00000000       0.00000000      -0.00000000
In       3.14801200       0.00000000       3.14801200       0.61000000       0.00000000       0.00000000       0.00000000
In       0.00000000       3.14801200       3.14801200       0.61000000       0.00000000      -0.00000000       0.00000000
In       3.14801200       3.14801200       0.00000000       0.61000000       0.00000000      -0.00000000      -0.00000000
