8
Lattice="6.579096 0.0 0.0 0.0 6.579096 0.0 0.0 0.0 6.579096" Properties=species:S:1:pos:R:3:mulliken_charges:R:1:forces:R:3 virial="-18.07958787463406 0.0 -0.0 0.0 -18.07958787463406 0.0 -0.0 0.0 -18.07958787463406" fermi_energy=0.709237525608 core_to_fermi_energy=14.69808892693098 config_type=EOS energy=-7856.455276408 stress="0.0634877382926795 -0.0 0.0 -0.0 0.0634877382926795 -0.0 0.0 -0.0 0.0634877382926795" pbc="T T T"
P        1.64477400       1.64477400       4.93432200      -0.57000000       0.00000000       0.00000000       0.00000000
P        4.93432200       1.64477400       1.64477400      -0.57000000       0.00000000       0.00000000       0.00000000
P        1.64477400       4.93432200       1.64477400      -0.57000000       0.00000000       0.00000000       0.00000000
P        4.93432200       4.93432200       4.93432200      -0.57000000       0.00000000       0.00000000       0.00000000
In       0.00000000       0.00000000       0.00000000       0.57000000       0.00000000      -0.00000000      -0.00000000
In       3.28954800       0.00000000       3.28954800       0.57000000      -0.00000000      -0.00000000       0.00000000
In       0.00000000       3.28954800       3.28954800       0.57000000       0.00000000      -0.00000000      -0.00000000
In       3.28954800       3.28954800       0.00000000       0.57000000      -0.00000000      -0.00000000      -0.00000000
