8
Lattice="5.666977 0.0 0.0 0.0 5.666977 0.0 0.0 0.0 5.666977" Properties=species:S:1:pos:R:3:mulliken_charges:R:1:forces:R:3 virial="12.402438935707243 1.3630921161771513e-05 1.3630921161771513e-05 1.3630921161771513e-05 12.402438935707243 1.3630921161771513e-05 1.3630921161771513e-05 1.3630921161771513e-05 12.402438935707243" fermi_energy=5.061263094231 core_to_fermi_energy=16.248533478581237 config_type=EOS energy=-7859.222569711 stress="-0.06814794235699285 -7.48981095105991e-08 -7.48981095105991e-08 -7.48981095105991e-08 -0.06814794235699285 -7.48981095105991e-08 -7.48981095105991e-08 -7.48981095105991e-08 -0.06814794235699285" pbc="T T T"
P        1.41674425       1.41674425       4.25023275      -0.70000000       0.00000000       0.00000000      -0.00001000
P        4.25023275       1.41674425       1.41674425      -0.70000000      -0.00001000       0.00000000       0.00000000
P        1.41674425       4.25023275       1.41674425      -0.70000000       0.00000000      -0.00001000       0.00000000
P        4.25023275       4.25023275       4.25023275      -0.70000000      -0.00001000      -0.00001000      -0.00001000
In       0.00000000       0.00000000       0.00000000       0.70000000      -0.00000000      -0.00000000      -0.00000000
In       2.83348850       0.00000000       2.83348850       0.70000000       0.00001000      -0.00000000       0.00001000
In       0.00000000       2.83348850       2.83348850       0.70000000      -0.00000000       0.00001000       0.00001000
In       2.83348850       2.83348850       0.00000000       0.70000000       0.00001000       0.00001000      -0.00000000
