8
Lattice="5.729881 0.0 0.0 0.0 5.729881 0.0 0.0 0.0 5.729881" Properties=species:S:1:pos:R:3:mulliken_charges:R:1:forces:R:3 virial="8.655751751105997 -1.1741576643665751e-05 -1.1741576643665751e-05 -1.1741576643665751e-05 8.655751751105997 -1.1741576643665751e-05 -1.1741576643665751e-05 -1.1741576643665751e-05 8.655751751105997" fermi_energy=4.710072965874 core_to_fermi_energy=16.111346739396794 config_type=EOS energy=-7859.569857303 stress="-0.04601166877793453 6.241509125883259e-08 6.241509125883259e-08 6.241509125883259e-08 -0.04601166877793453 6.241509125883259e-08 6.241509125883259e-08 6.241509125883259e-08 -0.04601166877793453" pbc="T T T"
P        1.43247025       1.43247025       4.29741075      -0.70000000       0.00001000       0.00001000      -0.00000000
P        4.29741075       1.43247025       1.43247025      -0.70000000      -0.00000000       0.00001000       0.00001000
P        1.43247025       4.29741075       1.43247025      -0.70000000       0.00001000      -0.00000000       0.00001000
P        4.29741075       4.29741075       4.29741075      -0.70000000      -0.00000000      -0.00000000      -0.00000000
In       0.00000000       0.00000000       0.00000000       0.70000000       0.00000000       0.00000000       0.00000000
In       2.86494050       0.00000000       2.86494050       0.70000000      -0.00001000       0.00000000      -0.00001000
In       0.00000000       2.86494050       2.86494050       0.70000000       0.00000000      -0.00001000      -0.00001000
In       2.86494050       2.86494050       0.00000000       0.70000000      -0.00001000      -0.00001000       0.00000000
