8
Lattice="5.258096 0.0 0.0 0.0 5.258096 0.0 0.0 0.0 5.258096" Properties=species:S:1:pos:R:3:mulliken_charges:R:1:forces:R:3 virial="46.00763990917901 -0.0 -9.073506252713763e-07 -0.0 46.00763900182839 -0.0 -9.073506252713763e-07 -0.0 46.00763990917901" fermi_energy=7.4040816655274995 core_to_fermi_energy=17.159375253900528 config_type=EOS energy=-7852.952251832 stress="-0.31647865373719974 0.0 6.241509125883258e-09 0.0 -0.31647864749569066 0.0 6.241509125883258e-09 0.0 -0.31647865373719974" pbc="T T T"
P        1.31452400       1.31452400       3.94357200      -0.73000000       0.00000000      -0.00000000      -0.00000000
P        3.94357200       1.31452400       1.31452400      -0.73000000      -0.00000000      -0.00000000       0.00000000
P        1.31452400       3.94357200       1.31452400      -0.73000000       0.00000000      -0.00000000       0.00000000
P        3.94357200       3.94357200       3.94357200      -0.73000000      -0.00000000      -0.00000000      -0.00000000
In       0.00000000       0.00000000       0.00000000       0.73000000       0.00000000       0.00000000       0.00000000
In       2.62904800       0.00000000       2.62904800       0.73000000       0.00000000       0.00000000       0.00000000
In       0.00000000       2.62904800       2.62904800       0.73000000       0.00000000       0.00000000       0.00000000
In       2.62904800       2.62904800       0.00000000       0.73000000       0.00000000       0.00000000       0.00000000
