8
Lattice="4.943572 0.0 0.0 0.0 4.943572 0.0 0.0 0.0 4.943572" Properties=species:S:1:pos:R:3:mulliken_charges:R:1:forces:R:3 virial="86.88195219278589 -7.540709341642811e-07 -7.540709341642811e-07 -7.540709341642811e-07 86.88195219278589 -7.540709341642811e-07 -7.540709341642811e-07 -7.540709341642811e-07 86.88195219278589" fermi_energy=9.9063317386095 core_to_fermi_energy=18.504732770737334 config_type=EOS energy=-7840.865913129 stress="-0.7191292926398443 6.241509125883258e-09 6.241509125883258e-09 6.241509125883258e-09 -0.7191292926398443 6.241509125883258e-09 6.241509125883258e-09 6.241509125883258e-09 -0.7191292926398443" pbc="T T T"
P        1.23589300       1.23589300       3.70767900      -0.74000000      -0.00242000      -0.00242000       0.00242000
P        3.70767900       1.23589300       1.23589300      -0.74000000       0.00242000      -0.00242000      -0.00242000
P        1.23589300       3.70767900       1.23589300      -0.74000000      -0.00242000       0.00242000      -0.00242000
P        3.70767900       3.70767900       3.70767900      -0.74000000       0.00242000       0.00242000       0.00242000
In       0.00000000       0.00000000       0.00000000       0.74000000       0.00000000       0.00000000       0.00000000
In       2.47178600       0.00000000       2.47178600       0.74000000       0.00000000       0.00000000       0.00000000
In       0.00000000       2.47178600       2.47178600       0.74000000       0.00000000       0.00000000       0.00000000
In       2.47178600       2.47178600       0.00000000       0.74000000       0.00000000       0.00000000       0.00000000
