8
Lattice="4.377429 0.0 0.0 0.0 4.377429 0.0 0.0 0.0 4.377429" Properties=species:S:1:pos:R:3:mulliken_charges:R:1:forces:R:3 virial="215.938381500472 0.00010313668498927854 0.00010313668498927854 0.00010313668498927854 215.93838097693552 0.00010313668498927854 0.00010313668498927854 0.00010313668498927854 215.938381500472" fermi_energy=16.4592140855925 core_to_fermi_energy=22.681325999261144 config_type=EOS energy=-7787.85234398 stress="-2.5743791517445165 -1.2295772977990017e-06 -1.2295772977990017e-06 -1.2295772977990017e-06 -2.5743791455030074 -1.2295772977990017e-06 -1.2295772977990017e-06 -1.2295772977990017e-06 -2.5743791517445165" pbc="T T T"
P        1.09435725       1.09435725       3.28307175      -0.68000000       0.00001000       0.00001000      -0.00004000
P        3.28307175       1.09435725       1.09435725      -0.68000000      -0.00004000       0.00001000       0.00001000
P        1.09435725       3.28307175       1.09435725      -0.68000000       0.00001000      -0.00004000       0.00001000
P        3.28307175       3.28307175       3.28307175      -0.68000000      -0.00004000      -0.00004000      -0.00004000
In       0.00000000       0.00000000       0.00000000       0.68000000      -0.00000000      -0.00000000      -0.00000000
In       2.18871450       0.00000000       2.18871450       0.68000000       0.00004000      -0.00000000       0.00004000
In       0.00000000       2.18871450       2.18871450       0.68000000      -0.00000000       0.00004000       0.00004000
In       2.18871450       2.18871450       0.00000000       0.68000000       0.00004000       0.00004000      -0.00000000
