8
Lattice="5.635524 0.0 0.0 0.0 5.635524 0.0 0.0 0.0 5.635524" Properties=species:S:1:pos:R:3:mulliken_charges:R:1:forces:R:3 virial="14.398932971281644 0.0 -0.0 0.0 14.398932971281644 0.0 -0.0 0.0 14.398932971281644" fermi_energy=5.2054017979275 core_to_fermi_energy=16.284956188848334 config_type=EOS energy=-7858.999167268 stress="-0.08045025019503768 -0.0 0.0 -0.0 -0.08045025019503768 -0.0 0.0 -0.0 -0.08045025019503768" pbc="T T T"
P        1.40888100       1.40888100       4.22664300      -0.71000000       0.00000000      -0.00000000       0.00000000
P        4.22664300       1.40888100       1.40888100      -0.71000000      -0.00000000      -0.00000000      -0.00000000
P        1.40888100       4.22664300       1.40888100      -0.71000000       0.00000000      -0.00000000      -0.00000000
P        4.22664300       4.22664300       4.22664300      -0.71000000      -0.00000000      -0.00000000       0.00000000
In       0.00000000       0.00000000       0.00000000       0.71000000       0.00000000       0.00000000       0.00000000
In       2.81776200       0.00000000       2.81776200       0.71000000       0.00000000       0.00000000       0.00000000
In       0.00000000       2.81776200       2.81776200       0.71000000       0.00000000       0.00000000       0.00000000
In       2.81776200       2.81776200       0.00000000       0.71000000       0.00000000       0.00000000       0.00000000
