8
Lattice="4.6605 0.0 0.0 0.0 4.6605 0.0 0.0 0.0 4.6605" Properties=species:S:1:pos:R:3:mulliken_charges:R:1:forces:R:3 virial="140.28108135453178 -1.8954328426895935e-06 -1.2636218951263955e-06 -1.8954328426895935e-06 140.28108135453178 -1.2636218951263955e-06 -1.2636218951263955e-06 -1.2636218951263955e-06 140.28108072272082" fermi_energy=12.8231200431645 core_to_fermi_energy=20.303952779243478 config_type=EOS energy=-7820.998744871 stress="-1.385803226170756 1.8724527377649774e-08 1.2483018251766515e-08 1.8724527377649774e-08 -1.385803226170756 1.2483018251766515e-08 1.2483018251766515e-08 1.2483018251766515e-08 -1.3858032199292467" pbc="T T T"
P        1.16512500       1.16512500       3.49537500      -0.74000000       0.00000000      -0.00000000      -0.00000000
P        3.49537500       1.16512500       1.16512500      -0.74000000      -0.00000000      -0.00000000      -0.00000000
P        1.16512500       3.49537500       1.16512500      -0.74000000       0.00000000       0.00000000      -0.00000000
P        3.49537500       3.49537500       3.49537500      -0.74000000      -0.00000000       0.00000000      -0.00000000
In       0.00000000       0.00000000       0.00000000       0.74000000       0.00000000       0.00000000       0.00000000
In       2.33025000       0.00000000       2.33025000       0.74000000       0.00000000       0.00000000       0.00000000
In       0.00000000       2.33025000       2.33025000       0.74000000       0.00000000       0.00000000       0.00000000
In       2.33025000       2.33025000       0.00000000       0.74000000       0.00000000       0.00000000       0.00000000
