8
Lattice="6.327477 0.0 0.0 0.0 6.327477 0.0 0.0 0.0 6.327477" Properties=species:S:1:pos:R:3:mulliken_charges:R:1:forces:R:3 virial="-13.77225720364656 1.5811800838458192e-06 1.5811800838458192e-06 1.5811800838458192e-06 -13.77225720364656 1.5811800838458192e-06 1.5811800838458192e-06 1.5811800838458192e-06 -13.77225720364656" fermi_energy=1.5779609757705 core_to_fermi_energy=14.874022228618815 config_type=EOS energy=-7858.340243501 stress="0.0543642497769744 -6.241509125883258e-09 -6.241509125883258e-09 -6.241509125883258e-09 0.0543642497769744 -6.241509125883258e-09 -6.241509125883258e-09 -6.241509125883258e-09 0.0543642497769744" pbc="T T T"
P        1.58186925       1.58186925       4.74560775      -0.61000000       0.00000000       0.00000000      -0.00000000
P        4.74560775       1.58186925       1.58186925      -0.61000000      -0.00000000       0.00000000       0.00000000
P        1.58186925       4.74560775       1.58186925      -0.61000000       0.00000000      -0.00000000       0.00000000
P        4.74560775       4.74560775       4.74560775      -0.61000000      -0.00000000      -0.00000000      -0.00000000
In       0.00000000       0.00000000       0.00000000       0.61000000      -0.00000000      -0.00000000      -0.00000000
In       3.16373850       0.00000000       3.16373850       0.61000000       0.00000000      -0.00000000       0.00000000
In       0.00000000       3.16373850       3.16373850       0.61000000      -0.00000000       0.00000000       0.00000000
In       3.16373850       3.16373850       0.00000000       0.61000000       0.00000000       0.00000000      -0.00000000
