8
Lattice="6.830715 0.0 0.0 0.0 6.830715 0.0 0.0 0.0 6.830715" Properties=species:S:1:pos:R:3:mulliken_charges:R:1:forces:R:3 virial="-20.486983606706534 1.989244227061097e-06 1.989244227061097e-06 1.989244227061097e-06 -20.486983606706534 1.989244227061097e-06 1.989244227061097e-06 1.989244227061097e-06 -20.486983606706534" fermi_energy=0.049307028714 core_to_fermi_energy=14.658034041060825 config_type=EOS energy=-7854.263956431 stress="0.06428054102335831 -6.241509125883258e-09 -6.241509125883258e-09 -6.241509125883258e-09 0.06428054102335831 -6.241509125883258e-09 -6.241509125883258e-09 -6.241509125883258e-09 0.06428054102335831" pbc="T T T"
P        1.70767875       1.70767875       5.12303625      -0.53000000      -0.00000000      -0.00000000       0.00000000
P        5.12303625       1.70767875       1.70767875      -0.53000000       0.00000000      -0.00000000      -0.00000000
P        1.70767875       5.12303625       1.70767875      -0.53000000      -0.00000000       0.00000000      -0.00000000
P        5.12303625       5.12303625       5.12303625      -0.53000000       0.00000000       0.00000000       0.00000000
In       0.00000000       0.00000000       0.00000000       0.53000000      -0.00000000       0.00000000       0.00000000
In       3.41535750       0.00000000       3.41535750       0.53000000      -0.00000000       0.00000000      -0.00000000
In       0.00000000       3.41535750       3.41535750       0.53000000      -0.00000000      -0.00000000      -0.00000000
In       3.41535750       3.41535750       0.00000000       0.53000000      -0.00000000      -0.00000000       0.00000000
