8
Lattice="5.226643 0.0 0.0 0.0 5.226643 0.0 0.0 0.0 5.226643" Properties=species:S:1:pos:R:3:mulliken_charges:R:1:forces:R:3 virial="49.41421428730055 -3.0299609978014912e-05 -3.0299609978014912e-05 -3.0299609978014912e-05 49.41421428730055 -3.0299609978014912e-05 -3.0299609978014912e-05 -3.0299609978014912e-05 49.41421428730055" fermi_energy=7.624575514131 core_to_fermi_energy=17.26694485008132 config_type=EOS energy=-7852.091485925 stress="-0.34608548321166466 2.1221131028003077e-07 2.1221131028003077e-07 2.1221131028003077e-07 -0.34608548321166466 2.1221131028003077e-07 2.1221131028003077e-07 2.1221131028003077e-07 -0.34608548321166466" pbc="T T T"
P        1.30666075       1.30666075       3.91998225      -0.73000000       0.01390000       0.01390000      -0.01389000
P        3.91998225       1.30666075       1.30666075      -0.73000000      -0.01389000       0.01390000       0.01390000
P        1.30666075       3.91998225       1.30666075      -0.73000000       0.01390000      -0.01389000       0.01390000
P        3.91998225       3.91998225       3.91998225      -0.73000000      -0.01389000      -0.01389000      -0.01389000
In       0.00000000       0.00000000       0.00000000       0.73000000       0.00000000       0.00000000       0.00000000
In       2.61332150       0.00000000       2.61332150       0.73000000      -0.00001000       0.00000000      -0.00001000
In       0.00000000       2.61332150       2.61332150       0.73000000       0.00000000      -0.00001000      -0.00001000
In       2.61332150       2.61332150       0.00000000       0.73000000      -0.00001000      -0.00001000       0.00000000
