8
Lattice="4.031452 0.0 0.0 0.0 4.031452 0.0 0.0 0.0 4.031452" Properties=species:S:1:pos:R:3:mulliken_charges:R:1:forces:R:3 virial="353.11950792319345 -4.907443811292686e-06 -4.907443811292686e-06 -4.907443811292686e-06 353.11950955900807 -4.907443811292686e-06 -4.907443811292686e-06 -4.907443811292686e-06 353.11950792319345" fermi_energy=21.9553695269025 core_to_fermi_energy=26.47249663349927 config_type=EOS energy=-7718.561522299 stress="-5.3893604474695875 7.48981095105991e-08 7.48981095105991e-08 7.48981095105991e-08 -5.389360472435624 7.48981095105991e-08 7.48981095105991e-08 7.48981095105991e-08 -5.3893604474695875" pbc="T T T"
P        1.00786300       1.00786300       3.02358900      -0.54000000      -0.00000000       0.00000000       0.00000000
P        3.02358900       1.00786300       1.00786300      -0.54000000       0.00000000       0.00000000      -0.00000000
P        1.00786300       3.02358900       1.00786300      -0.54000000      -0.00000000      -0.00000000      -0.00000000
P        3.02358900       3.02358900       3.02358900      -0.54000000       0.00000000      -0.00000000       0.00000000
In       0.00000000       0.00000000       0.00000000       0.54000000      -0.00000000       0.00000000      -0.00000000
In       2.01572600       0.00000000       2.01572600       0.54000000      -0.00000000       0.00000000      -0.00000000
In       0.00000000       2.01572600       2.01572600       0.54000000      -0.00000000       0.00000000      -0.00000000
In       2.01572600       2.01572600       0.00000000       0.54000000      -0.00000000       0.00000000      -0.00000000
