8
Lattice="5.037929 0.0 0.0 0.0 5.037929 0.0 0.0 0.0 5.037929" Properties=species:S:1:pos:R:3:mulliken_charges:R:1:forces:R:3 virial="72.8828890341724 3.990393663239542e-05 4.070201536504333e-05 3.990393663239542e-05 72.88288983225112 3.990393663239542e-05 4.070201536504333e-05 3.990393663239542e-05 72.8828890341724" fermi_energy=9.0820989021045 core_to_fermi_energy=18.034956789298562 config_type=EOS energy=-7845.390080725 stress="-0.569992907238907 -3.120754562941629e-07 -3.1831696542004614e-07 -3.120754562941629e-07 -0.5699929134804161 -3.120754562941629e-07 -3.1831696542004614e-07 -3.120754562941629e-07 -0.569992907238907" pbc="T T T"
P        1.25948225       1.25948225       3.77844675      -0.73000000       0.00358000       0.00358000      -0.00359000
P        3.77844675       1.25948225       1.25948225      -0.73000000      -0.00359000       0.00358000       0.00358000
P        1.25948225       3.77844675       1.25948225      -0.73000000       0.00358000      -0.00359000       0.00358000
P        3.77844675       3.77844675       3.77844675      -0.73000000      -0.00359000      -0.00359000      -0.00359000
In       0.00000000       0.00000000       0.00000000       0.73000000      -0.00000000      -0.00000000      -0.00000000
In       2.51896450       0.00000000       2.51896450       0.73000000       0.00002000      -0.00000000       0.00002000
In       0.00000000       2.51896450       2.51896450       0.73000000      -0.00000000       0.00002000       0.00002000
In       2.51896450       2.51896450       0.00000000       0.73000000       0.00002000       0.00002000      -0.00000000
