8
Lattice="5.698429 0.0 0.0 0.0 5.698429 0.0 0.0 0.0 5.698429" Properties=species:S:1:pos:R:3:mulliken_charges:R:1:forces:R:3 virial="10.488802694836496 -1.2704211624992535e-05 -1.2704211624992535e-05 -1.2704211624992535e-05 10.488802694836496 -1.2704211624992535e-05 -1.2704211624992535e-05 -1.2704211624992535e-05 10.488802694836496" fermi_energy=4.917804675147 core_to_fermi_energy=16.212322200771705 config_type=EOS energy=-7859.412209884 stress="-0.0566840002662458 6.865660038471584e-08 6.865660038471584e-08 6.865660038471584e-08 -0.0566840002662458 6.865660038471584e-08 6.865660038471584e-08 6.865660038471584e-08 -0.0566840002662458" pbc="T T T"
P        1.42460725       1.42460725       4.27382175      -0.70000000       0.00001000       0.00001000      -0.00000000
P        4.27382175       1.42460725       1.42460725      -0.70000000      -0.00000000       0.00001000       0.00001000
P        1.42460725       4.27382175       1.42460725      -0.70000000       0.00001000      -0.00000000       0.00001000
P        4.27382175       4.27382175       4.27382175      -0.70000000      -0.00000000      -0.00000000      -0.00000000
In       0.00000000       0.00000000       0.00000000       0.70000000       0.00000000       0.00000000       0.00000000
In       2.84921450       0.00000000       2.84921450       0.70000000      -0.00001000       0.00000000      -0.00001000
In       0.00000000       2.84921450       2.84921450       0.70000000       0.00000000      -0.00001000      -0.00001000
In       2.84921450       2.84921450       0.00000000       0.70000000      -0.00001000      -0.00001000       0.00000000
