8
Lattice="4.975024 0.0 0.0 0.0 4.975024 0.0 0.0 0.0 4.975024" Properties=species:S:1:pos:R:3:mulliken_charges:R:1:forces:R:3 virial="82.030179792094 -7.685553504526389e-07 -7.685553504526389e-07 -7.685553504526389e-07 82.03017902353865 -0.0 -7.685553504526389e-07 -0.0 82.03017902353865" fermi_energy=9.623959201653 core_to_fermi_energy=18.3413874555192 config_type=EOS energy=-7842.472474659 stress="-0.6661746814574415 6.241509125883258e-09 6.241509125883258e-09 6.241509125883258e-09 -0.6661746752159324 0.0 6.241509125883258e-09 0.0 -0.6661746752159324" pbc="T T T"
P        1.24375600       1.24375600       3.73126800      -0.74000000      -0.00051000      -0.00051000       0.00051000
P        3.73126800       1.24375600       1.24375600      -0.74000000       0.00051000      -0.00051000      -0.00051000
P        1.24375600       3.73126800       1.24375600      -0.74000000      -0.00051000       0.00051000      -0.00051000
P        3.73126800       3.73126800       3.73126800      -0.74000000       0.00051000       0.00051000       0.00051000
In       0.00000000       0.00000000       0.00000000       0.74000000       0.00000000       0.00000000       0.00000000
In       2.48751200       0.00000000       2.48751200       0.74000000       0.00000000       0.00000000       0.00000000
In       0.00000000       2.48751200       2.48751200       0.74000000       0.00000000       0.00000000       0.00000000
In       2.48751200       2.48751200       0.00000000       0.74000000       0.00000000       0.00000000       0.00000000
