8
Lattice="7.019429 0.0 0.0 0.0 7.019429 0.0 0.0 0.0 7.019429" Properties=species:S:1:pos:R:3:mulliken_charges:R:1:forces:R:3 virial="-21.288444763046975 4.3174265939336986e-06 4.3174265939336986e-06 4.3174265939336986e-06 -21.288444763046975 4.3174265939336986e-06 4.3174265939336986e-06 4.3174265939336986e-06 -21.288444763046975" fermi_energy=-0.3907826928045 core_to_fermi_energy=14.63775693367296 config_type=EOS energy=-7852.554805696 stress="0.061551491090138875 -1.2483018251766515e-08 -1.2483018251766515e-08 -1.2483018251766515e-08 0.061551491090138875 -1.2483018251766515e-08 -1.2483018251766515e-08 -1.2483018251766515e-08 0.061551491090138875" pbc="T T T"
P        1.75485725       1.75485725       5.26457175      -0.51000000       0.00000000       0.00000000      -0.00000000
P        5.26457175       1.75485725       1.75485725      -0.51000000      -0.00000000       0.00000000       0.00000000
P        1.75485725       5.26457175       1.75485725      -0.51000000       0.00000000      -0.00000000       0.00000000
P        5.26457175       5.26457175       5.26457175      -0.51000000      -0.00000000      -0.00000000      -0.00000000
In       0.00000000       0.00000000       0.00000000       0.51000000       0.00000000       0.00000000      -0.00001000
In       3.50971450       0.00000000       3.50971450       0.51000000      -0.00000000       0.00000000       0.00000000
In       0.00000000       3.50971450       3.50971450       0.51000000       0.00000000      -0.00000000       0.00000000
In       3.50971450       3.50971450       0.00000000       0.51000000      -0.00000000      -0.00000000      -0.00001000
