8
Lattice="4.817762 0.0 0.0 0.0 4.817762 0.0 0.0 0.0 4.817762" Properties=species:S:1:pos:R:3:mulliken_charges:R:1:forces:R:3 virial="108.31490447571615 0.00011306824462301897 0.00011306824462301897 0.00011306824462301897 108.31490447571615 0.00011306824462301897 0.00011306824462301897 0.00011306824462301897 108.31490447571615" fermi_energy=11.117047869168001 core_to_fermi_energy=19.228865808220636 config_type=EOS energy=-7833.336380362 stress="-0.9686172422270812 -1.0111244783930879e-06 -1.0111244783930879e-06 -1.0111244783930879e-06 -0.9686172422270812 -1.0111244783930879e-06 -1.0111244783930879e-06 -1.0111244783930879e-06 -0.9686172422270812" pbc="T T T"
P        1.20444050       1.20444050       3.61332150      -0.74000000      -0.00827000      -0.00827000       0.00823000
P        3.61332150       1.20444050       1.20444050      -0.74000000       0.00823000      -0.00827000      -0.00827000
P        1.20444050       3.61332150       1.20444050      -0.74000000      -0.00827000       0.00823000      -0.00827000
P        3.61332150       3.61332150       3.61332150      -0.74000000       0.00823000       0.00823000       0.00823000
In       0.00000000       0.00000000       0.00000000       0.74000000       0.00002000       0.00002000       0.00002000
In       2.40888100       0.00000000       2.40888100       0.74000000       0.00002000       0.00002000       0.00002000
In       0.00000000       2.40888100       2.40888100       0.74000000       0.00002000       0.00002000       0.00002000
In       2.40888100       2.40888100       0.00000000       0.74000000       0.00002000       0.00002000       0.00002000
