8
Lattice="4.062905 0.0 0.0 0.0 4.062905 0.0 0.0 0.0 4.062905" Properties=species:S:1:pos:R:3:mulliken_charges:R:1:forces:R:3 virial="337.95114167197727 0.00015781234127506264 0.00015781234127506264 0.00015781234127506264 337.95114334637873 0.00015781234127506264 0.00015781234127506264 0.00015781234127506264 337.95114167197727" fermi_energy=21.4079853163005 core_to_fermi_energy=26.10362101001418 config_type=EOS energy=-7726.616578624 stress="-5.038994855616358 -2.3530489404579884e-06 -2.3530489404579884e-06 -2.3530489404579884e-06 -5.038994880582394 -2.3530489404579884e-06 -2.3530489404579884e-06 -2.3530489404579884e-06 -5.038994855616358" pbc="T T T"
P        1.01572625       1.01572625       3.04717875      -0.56000000       0.00001000       0.00001000      -0.00006000
P        3.04717875       1.01572625       1.01572625      -0.56000000      -0.00006000       0.00001000       0.00001000
P        1.01572625       3.04717875       1.01572625      -0.56000000       0.00001000      -0.00006000       0.00001000
P        3.04717875       3.04717875       3.04717875      -0.56000000      -0.00006000      -0.00006000      -0.00006000
In       0.00000000       0.00000000       0.00000000       0.56000000      -0.00001000      -0.00001000      -0.00001000
In       2.03145250       0.00000000       2.03145250       0.56000000       0.00006000      -0.00001000       0.00006000
In       0.00000000       2.03145250       2.03145250       0.56000000      -0.00001000       0.00006000       0.00006000
In       2.03145250       2.03145250       0.00000000       0.56000000       0.00006000       0.00006000      -0.00001000
