8
Lattice="6.264572 0.0 0.0 0.0 6.264572 0.0 0.0 0.0 6.264572" Properties=species:S:1:pos:R:3:mulliken_charges:R:1:forces:R:3 virial="-12.311352310989145 0.0 -0.0 0.0 -12.311352310989145 0.0 -0.0 0.0 -12.311352310989145" fermi_energy=1.8325234777680002 core_to_fermi_energy=14.94442379471106 config_type=EOS energy=-7858.732277085 stress="0.05007622066032834 -0.0 0.0 -0.0 0.05007622066032834 -0.0 0.0 -0.0 0.05007622066032834" pbc="T T T"
P        1.56614300       1.56614300       4.69842900      -0.62000000      -0.00000000       0.00000000      -0.00000000
P        4.69842900       1.56614300       1.56614300      -0.62000000      -0.00000000       0.00000000      -0.00000000
P        1.56614300       4.69842900       1.56614300      -0.62000000      -0.00000000      -0.00000000      -0.00000000
P        4.69842900       4.69842900       4.69842900      -0.62000000      -0.00000000       0.00000000      -0.00000000
In       0.00000000       0.00000000       0.00000000       0.62000000      -0.00000000      -0.00000000       0.00000000
In       3.13228600       0.00000000       3.13228600       0.62000000       0.00000000      -0.00000000       0.00000000
In       0.00000000       3.13228600       3.13228600       0.62000000       0.00000000      -0.00000000       0.00000000
In       3.13228600       3.13228600       0.00000000       0.62000000       0.00000000      -0.00000000       0.00000000
