8
Lattice="6.10731 0.0 0.0 0.0 6.10731 0.0 0.0 0.0 6.10731" Properties=species:S:1:pos:R:3:mulliken_charges:R:1:forces:R:3 virial="-7.843573869099504 8.53081953439704e-06 8.53081953439704e-06 8.53081953439704e-06 -7.843573869099504 8.53081953439704e-06 8.53081953439704e-06 8.53081953439704e-06 -7.843573869099504" fermi_energy=2.5401011089215 core_to_fermi_energy=15.173878624344255 config_type=EOS energy=-7859.509670684 stress="0.03443214642119437 -3.744905475529955e-08 -3.744905475529955e-08 -3.744905475529955e-08 0.03443214642119437 -3.744905475529955e-08 -3.744905475529955e-08 -3.744905475529955e-08 0.03443214642119437" pbc="T T T"
P        1.52682750       1.52682750       4.58048250      -0.64000000      -0.00000000      -0.00000000      -0.00000000
P        4.58048250       1.52682750       1.52682750      -0.64000000      -0.00000000      -0.00000000      -0.00000000
P        1.52682750       4.58048250       1.52682750      -0.64000000      -0.00000000      -0.00000000      -0.00000000
P        4.58048250       4.58048250       4.58048250      -0.64000000      -0.00000000      -0.00000000      -0.00000000
In       0.00000000       0.00000000       0.00000000       0.64000000       0.00000000       0.00000000       0.00000000
In       3.05365500       0.00000000       3.05365500       0.64000000       0.00000000       0.00000000       0.00000000
In       0.00000000       3.05365500       3.05365500       0.64000000       0.00000000       0.00000000       0.00000000
In       3.05365500       3.05365500       0.00000000       0.64000000       0.00000000       0.00000000       0.00000000
