8
Lattice="6.799263 0.0 0.0 0.0 6.799263 0.0 0.0 0.0 6.799263" Properties=species:S:1:pos:R:3:mulliken_charges:R:1:forces:R:3 virial="-20.273559845895683 -1.9618921557056295e-06 -1.9618921557056295e-06 -1.9618921557056295e-06 -20.273559845895683 -1.9618921557056295e-06 -1.9618921557056295e-06 -1.9618921557056295e-06 -20.273559845895683" fermi_energy=0.13007041791 core_to_fermi_energy=14.665127232658442 config_type=EOS energy=-7854.546466353 stress="0.06449773929942992 6.241509125883258e-09 6.241509125883258e-09 6.241509125883258e-09 0.06449773929942992 6.241509125883258e-09 6.241509125883258e-09 6.241509125883258e-09 0.06449773929942992" pbc="T T T"
P        1.69981575       1.69981575       5.09944725      -0.54000000      -0.00000000      -0.00000000       0.00000000
P        5.09944725       1.69981575       1.69981575      -0.54000000       0.00000000      -0.00000000      -0.00000000
P        1.69981575       5.09944725       1.69981575      -0.54000000      -0.00000000       0.00000000      -0.00000000
P        5.09944725       5.09944725       5.09944725      -0.54000000       0.00000000       0.00000000       0.00000000
In       0.00000000       0.00000000       0.00000000       0.54000000       0.00000000       0.00000000       0.00000000
In       3.39963150       0.00000000       3.39963150       0.54000000       0.00000000       0.00000000      -0.00000000
In       0.00000000       3.39963150       3.39963150       0.54000000       0.00000000      -0.00000000      -0.00000000
In       3.39963150       3.39963150       0.00000000       0.54000000       0.00000000      -0.00000000       0.00000000
