8
Lattice="4.691953 0.0 0.0 0.0 4.691953 0.0 0.0 0.0 4.691953" Properties=species:S:1:pos:R:3:mulliken_charges:R:1:forces:R:3 virial="133.38425818168642 -6.962646152796197e-05 -6.962646152796197e-05 -6.962646152796197e-05 133.38425882637588 -6.962646152796197e-05 -6.962646152796197e-05 -6.962646152796197e-05 133.38425818168642" fermi_energy=12.4636032311505 core_to_fermi_energy=20.074836731347304 config_type=EOS energy=-7823.764709536 stress="-1.2913489643650653 6.740829855953918e-07 6.740829855953918e-07 6.740829855953918e-07 -1.2913489706065746 6.740829855953918e-07 6.740829855953918e-07 6.740829855953918e-07 -1.2913489643650653" pbc="T T T"
P        1.17298825       1.17298825       3.51896475      -0.74000000      -0.01004000      -0.01004000       0.01005000
P        3.51896475       1.17298825       1.17298825      -0.74000000       0.01005000      -0.01004000      -0.01003000
P        1.17298825       3.51896475       1.17298825      -0.74000000      -0.01004000       0.01005000      -0.01003000
P        3.51896475       3.51896475       3.51896475      -0.74000000       0.01006000       0.01006000       0.01006000
In       0.00000000       0.00000000       0.00000000       0.74000000      -0.00002000      -0.00002000      -0.00002000
In       2.34597650       0.00000000       2.34597650       0.74000000       0.00000000      -0.00002000       0.00000000
In       0.00000000       2.34597650       2.34597650       0.74000000      -0.00002000       0.00000000       0.00000000
In       2.34597650       2.34597650       0.00000000       0.74000000       0.00000000       0.00000000      -0.00002000
