8
Lattice="5.415358 0.0 0.0 0.0 5.415358 0.0 0.0 0.0 5.415358" Properties=species:S:1:pos:R:3:mulliken_charges:R:1:forces:R:3 virial="30.904582145710556 -4.3613787521669015e-05 -4.3613787521669015e-05 -4.3613787521669015e-05 30.904582145710556 -4.3613787521669015e-05 -4.3613787521669015e-05 -4.3613787521669015e-05 30.904582145710556" fermi_energy=6.3859949258445 core_to_fermi_energy=16.699495236662862 config_type=EOS energy=-7856.331256553 stress="-0.1945993381455788 2.7462640153886334e-07 2.7462640153886334e-07 2.7462640153886334e-07 -0.1945993381455788 2.7462640153886334e-07 2.7462640153886334e-07 2.7462640153886334e-07 -0.1945993381455788" pbc="T T T"
P        1.35383950       1.35383950       4.06151850      -0.72000000       0.00001000       0.00001000       0.00001000
P        4.06151850       1.35383950       1.35383950      -0.72000000       0.00001000       0.00001000       0.00001000
P        1.35383950       4.06151850       1.35383950      -0.72000000       0.00001000       0.00001000       0.00001000
P        4.06151850       4.06151850       4.06151850      -0.72000000       0.00001000       0.00001000       0.00001000
In       0.00000000       0.00000000       0.00000000       0.72000000      -0.00001000      -0.00001000      -0.00001000
In       2.70767900       0.00000000       2.70767900       0.72000000      -0.00001000      -0.00001000      -0.00001000
In       0.00000000       2.70767900       2.70767900       0.72000000      -0.00001000      -0.00001000      -0.00001000
In       2.70767900       2.70767900       0.00000000       0.72000000      -0.00001000      -0.00001000      -0.00001000
