8
Lattice="5.855691 0.0 0.0 0.0 5.855691 0.0 0.0 0.0 5.855691" Properties=species:S:1:pos:R:3:mulliken_charges:R:1:forces:R:3 virial="2.088282490241417 -8.772474283066015e-06 -8.772474283066015e-06 -8.772474283066015e-06 2.088282490241417 -8.772474283066015e-06 -8.772474283066015e-06 -8.772474283066015e-06 2.088282490241417" fermi_energy=3.8894048207385 core_to_fermi_energy=15.712326072048766 config_type=EOS energy=-7859.909774034 stress="-0.010400513765879063 4.369056388118281e-08 4.369056388118281e-08 4.369056388118281e-08 -0.010400513765879063 4.369056388118281e-08 4.369056388118281e-08 4.369056388118281e-08 -0.010400513765879063" pbc="T T T"
P        1.46392275       1.46392275       4.39176825      -0.68000000      -0.00000000      -0.00000000       0.00001000
P        4.39176825       1.46392275       1.46392275      -0.68000000       0.00001000      -0.00000000      -0.00000000
P        1.46392275       4.39176825       1.46392275      -0.68000000      -0.00000000       0.00001000      -0.00000000
P        4.39176825       4.39176825       4.39176825      -0.68000000       0.00001000       0.00001000       0.00001000
In       0.00000000       0.00000000       0.00000000       0.68000000       0.00000000       0.00000000       0.00000000
In       2.92784550       0.00000000       2.92784550       0.68000000      -0.00001000       0.00000000      -0.00001000
In       0.00000000       2.92784550       2.92784550       0.68000000       0.00000000      -0.00001000      -0.00001000
In       2.92784550       2.92784550       0.00000000       0.68000000      -0.00001000      -0.00001000       0.00000000
