8
Lattice="4.408881 0.0 0.0 0.0 4.408881 0.0 0.0 0.0 4.408881" Properties=species:S:1:pos:R:3:mulliken_charges:R:1:forces:R:3 virial="206.18317440813678 -0.00010430601464393072 -0.00010430601464393072 -0.00010430601464393072 206.18317440813678 -0.00010430601464393072 -0.00010430601464393072 -0.00010430601464393072 206.1831733383315" fermi_energy=16.019505323457 core_to_fermi_energy=22.39023085300317 config_type=EOS energy=-7792.384935677 stress="-2.405847476463189 1.2170942795472352e-06 1.2170942795472352e-06 1.2170942795472352e-06 -2.405847476463189 1.2170942795472352e-06 1.2170942795472352e-06 1.2170942795472352e-06 -2.405847463980171" pbc="T T T"
P        1.10222025       1.10222025       3.30666075      -0.69000000       0.00003000       0.00003000      -0.00001000
P        3.30666075       1.10222025       1.10222025      -0.69000000      -0.00001000       0.00003000       0.00003000
P        1.10222025       3.30666075       1.10222025      -0.69000000       0.00003000      -0.00000000       0.00003000
P        3.30666075       3.30666075       3.30666075      -0.69000000      -0.00001000      -0.00000000      -0.00001000
In       0.00000000       0.00000000       0.00000000       0.69000000       0.00000000       0.00000000       0.00000000
In       2.20444050       0.00000000       2.20444050       0.69000000      -0.00003000       0.00000000      -0.00003000
In       0.00000000       2.20444050       2.20444050       0.69000000       0.00000000      -0.00003000      -0.00003000
In       2.20444050       2.20444050       0.00000000       0.69000000      -0.00003000      -0.00003000       0.00000000
