 +-------------------------------------------------+
 |                                                 |
 |      CCC   AA    SSS  TTTTT  EEEEE  PPPP        |
 |     C     A  A  S       T    E      P   P       |
 |     C     AAAA   SS     T    EEE    PPPP        |
 |     C     A  A     S    T    E      P           |
 |      CCC  A  A  SSS     T    EEEEE  P           |
 |                                                 |
 +-------------------------------------------------+
 |                                                 |
 | Welcome to Academic Release CASTEP version 24.1 |
 | Ab Initio Total Energy Program                  |
 |                                                 |
 | Authors:                                        |
 | M. Segall, M. Probert, C. Pickard, P. Hasnip,   |
 | S. Clark, K. Refson, J. R. Yates,               |
 | A. Bartok-Partay, M. Payne                      |
 |                                                 |
 | Contributors:                                   |
 | P. Lindan, P. Haynes, J. White, V. Milman,      |
 | N. Govind, M. Gibson, P. Tulip, V. Cocula,      |
 | B. Montanari, D. Quigley, M. Glover,            |
 | L. Bernasconi, A. Perlov, M. Plummer,           |
 | E. McNellis, J. Meyer, J. Gale, D. Jochym       |
 | J. Aarons, B. Walker, R. Gillen, D. Jones       |
 | T. Green, I. J. Bush, C. J. Armstrong,          |
 | E. J. Higgins, E. L. Brown, M. S. McFly,        |
 | J. Wilkins, B-C. Shih, P. J. P. Byrne,          |
 | R. J. Maurer, J. C. Womack, J. Dziedzic,        |
 | L. LeBlanc, T. K. Stenczel, J. Kermode,         |
 | S. Sturniolo, B. Shi, B. Durham, M. Evans,      |
 | M. J. Smith, A. Tamerus, Z. Hawkhead,           |
 | V. Ravindran, T. Hollins, S. A. Joyce,          |
 | R. T. Strong, A. M. Reilly, S. J. Donaldson     |
 |                                                 |
 | Copyright (c) 2000 - 2023                       |
 |                                                 |
 |     Distributed under license from Cambridge    |
 |     Enterprise for academic use only.           |
 |                                                 |
 | Please cite                                     |
 |                                                 |
 |     "First principles methods using CASTEP"     |
 |                                                 |
 |         Zeitschrift fuer Kristallographie       |
 |           220(5-6) pp. 567-570 (2005)           |
 |                                                 |
 | S. J. Clark, M. D. Segall, C. J. Pickard,       |
 | P. J. Hasnip, M. J. Probert, K. Refson,         |
 | M. C. Payne                                     |
 |                                                 |
 |       in all publications arising from          |
 |              your use of CASTEP                 |
 |                                                 |
 +-------------------------------------------------+
 |                                                 |
 |              http://www.castep.org              |
 |                                                 |
 +-------------------------------------------------+



 Compiled for  GNU 11.2.0 on 04-04-2024 18:39:17
 from code version 6355fd106 Castep241_branch Thu Mar 7 17:56:19 2024 +0000
 Compiler: GNU Fortran 11.2.0; Optimisation: FAST
 Comms   : MPI VERSION : CRAY MPICH version 8.1.23.14 (ANL base 3.4a2)
 MATHLIBS: default (LAPACK version 3.10.1)
 FFT Lib : fftw3 version commercial-fftw-3.3.10-sse2-avx-avx2-avx2_128
 Fundamental constants values: CODATA 2018

 Run started: Sun, 27 Apr 2025 06:47:01 +0100

 Atomic calculation performed for P: 1s2 2s2 2p6 3s2 3p3

 Converged in 47 iterations to an ae energy of -9309.074 eV

   ============================================================                
   | Pseudopotential Report - Date of generation 27-04-2025   |                
   ------------------------------------------------------------                
   | Element: P Ionic charge:  5.00 Level of theory: RSCAN    |                
   | Atomic Solver: Koelling-Harmon                           |                
   |                                                          |                
   |               Reference Electronic Structure             |                
   |         Orbital         Occupation         Energy        |                
   |            3s              2.000           -0.535        |                
   |            3p              3.000           -0.209        |                
   |                                                          |                
   |                 Pseudopotential Definition               |                
   |        Beta     l      e      Rc     scheme   norm       |                
   |          1      0   -0.535   1.807     qc      0         |                
   |          2      0    0.250   1.807     qc      0         |                
   |          3      1   -0.209   1.807     qc      0         |                
   |          4      1    0.250   1.807     qc      0         |                
   |          5      2    0.000   1.807     qc      0         |                
   |          6      2    0.250   1.807     qc      0         |                
   |         loc     3    0.000   1.807     pn      0         |                
   |                                                          |                
   | Augmentation charge Rinner = 1.263                       |                
   | Partial core correction Rc = 1.263                       |                
   ------------------------------------------------------------                
   | "3|1.8|4|4|5|30:31:32"                                   |                
   ------------------------------------------------------------                
   |      Author: Chris J. Pickard, Cambridge University      |                
   ============================================================                
 Warning: otfg_output_psp cannot write out meta-GGA pseudopotentials presently.

 Atomic calculation performed for In:
 1s2 2s2 2p6 3s2 3p6 3d10 4s2 4p6 4d10 5s2 5p1

 Converged in 84 iterations to an ae energy of -160093.328 eV

   ============================================================                
   | Pseudopotential Report - Date of generation 27-04-2025   |                
   ------------------------------------------------------------                
   | Element: In Ionic charge: 13.00 Level of theory: RSCAN   |                
   | Atomic Solver: Koelling-Harmon                           |                
   |                                                          |                
   |               Reference Electronic Structure             |                
   |         Orbital         Occupation         Energy        |                
   |            4d             10.000           -0.711        |                
   |            5s              2.000           -0.313        |                
   |            5p              1.000           -0.095        |                
   |                                                          |                
   |                 Pseudopotential Definition               |                
   |        Beta     l      e      Rc     scheme   norm       |                
   |          1      0   -0.313   2.501     qc      0         |                
   |          2      0    0.250   2.501     qc      0         |                
   |          3      1   -0.095   2.501     qc      0         |                
   |          4      1    0.250   2.501     qc      0         |                
   |          5      2   -0.711   2.207     qc      0         |                
   |          6      2    0.250   2.207     qc      0         |                
   |         loc     3    0.000   2.501     pn      0         |                
   |                                                          |                
   | Augmentation charge Rinner = 1.504                       |                
   | Partial core correction Rc = 1.504                       |                
   ------------------------------------------------------------                
   | "3|2.5|2.5|1.5|7|8|9|50:51:42U2.2U2.2"                   |                
   ------------------------------------------------------------                
   |      Author: Chris J. Pickard, Cambridge University      |                
   ============================================================                
 Warning: otfg_output_psp cannot write out meta-GGA pseudopotentials presently.

 Pseudo atomic calculation performed for P 3s2 3p3

 Converged in 23 iterations to a total energy of -208.0292 eV

 Pseudo atomic calculation performed for In 4d10 5s2 5p1

 Converged in 42 iterations to a total energy of -1747.4501 eV
 Calculation parallelised over 108 processes.
 Data is distributed by G-vector(3-way) and k-point(36-way)
 Each process may use up to 16 threads.

 ************************************ Title ************************************
 

 ***************************** General Parameters ******************************
  
 output verbosity                               : normal  (1)
 write checkpoint data to                       : P_Vacancy_Migration_5->3_Singlepoints_1.check
 type of calculation                            : single point energy
 stress calculation                             : off
 density difference calculation                 : off
 electron localisation func (ELF) calculation   : off
 Hirshfeld analysis                             : on
 polarisation (Berry phase) analysis            : off
 molecular orbital projected DOS                : off
 deltaSCF calculation                           : off
 unlimited duration calculation
 timing information                             : on
 memory usage estimate                          : on
 write extra output files                       : on
 write final potential to formatted file        : off
 write final density to formatted file          : off
 write BibTeX reference list                    : on
 write OTFG pseudopotential files               : on
 write electrostatic potential file             : on
 write bands file                               : on
 checkpoint writing                             : off
  
 output         length unit                     : A
 output           mass unit                     : amu
 output           time unit                     : ps
 output         charge unit                     : e
 output           spin unit                     : hbar/2
 output         energy unit                     : eV
 output          force unit                     : eV/A
 output       velocity unit                     : A/ps
 output       pressure unit                     : GPa
 output     inv_length unit                     : 1/A
 output      frequency unit                     : cm-1
 output force constant unit                     : eV/A**2
 output         volume unit                     : A**3
 output   IR intensity unit                     : (D/A)**2/amu
 output         dipole unit                     : D
 output         efield unit                     : eV/A/e
 output        entropy unit                     : J/mol/K
 output    efield chi2 unit                     : pm/V
  
 wavefunctions paging                           : none
 random number generator seed                   :   64701572
 data distribution                              : optimal for this architecture
 optimization strategy                          : balance speed and memory

 *********************** Exchange-Correlation Parameters ***********************
  
 using functional                               : RSCAN
 relativistic treatment                         : Koelling-Harmon
 DFT+D: Semi-empirical dispersion correction    : off

 ************************* Pseudopotential Parameters **************************
  
 pseudopotential representation                 : reciprocal space
 <beta|phi> representation                      : reciprocal space
 spin-orbit coupling                            : off

 **************************** Basis Set Parameters *****************************
  
 plane wave basis set cut-off                   :   900.0000   eV
 size of standard grid                          :     2.0000
 size of   fine   gmax                          :    30.7390   1/A
 finite basis set correction                    : none

 **************************** Electronic Parameters ****************************
  
 number of  electrons                           :  571.0    
 net charge of system                           :  0.000    
 net spin   of system                           :  1.000    
 number of  up  spins                           :  286.0    
 number of down spins                           :  285.0    
 treating system as spin-polarized
 number of bands                                :        343

 ********************* Electronic Minimization Parameters **********************
  
 Method: Treating system as metallic with density mixing treatment of electrons,
         and number of  SD  steps               :          1
         and number of  CG  steps               :          4
  
 total energy / atom convergence tol.           : 0.1000E-07   eV
 eigen-energy convergence tolerance             : 0.2203E-08   eV
 max force / atom convergence tol.              : ignored
 convergence tolerance window                   :          3   cycles
 max. number of SCF cycles                      :        100
 number of fixed-spin iterations                :         10
 smearing scheme                                : Gaussian
 smearing width                                 : 0.2000       eV
 Fermi energy convergence tolerance             : 0.2721E-13   eV
 periodic dipole correction                     : NONE

 ************************** Density Mixing Parameters **************************
  
 density-mixing scheme                          : Pulay
 max. length of mixing history                  :         20
 charge density mixing amplitude                : 0.5000    
   spin density mixing amplitude                :  2.000    
 cut-off energy for mixing                      :  900.0       eV

 *********************** Population Analysis Parameters ************************
  
 Population analysis with cutoff                :  3.000       A
 Population analysis output                     : summary and pdos components

 *******************************************************************************
  

                           -------------------------------
                                      Unit Cell
                           -------------------------------
        Real Lattice(A)                      Reciprocal Lattice(1/A)
    11.8016820    -0.0000080    -0.0000080        0.532397442   0.000000361   0.000000361
    -0.0000080    11.8016820    -0.0000080        0.000000361   0.532397442   0.000000361
    -0.0000080    -0.0000080    11.8016820        0.000000361   0.000000361   0.532397442

                       Lattice parameters(A)       Cell Angles
                    a =     11.801682          alpha =   90.000078
                    b =     11.801682          beta  =   90.000078
                    c =     11.801682          gamma =   90.000078

                       Current cell volume =          1643.734705       A**3
                                   density =             2.819410   AMU/A**3
                                           =             4.681741     g/cm^3

                           -------------------------------
                                     Cell Contents
                           -------------------------------
                         Total number of ions in cell =   63
                      Total number of species in cell =    2
                        Max number of any one species =   32

            xxxxxxxxxxxxxxxxxxxxxxxxxxxxxxxxxxxxxxxxxxxxxxxxxxxxxxxxxxxx
            x  Element    Atom        Fractional coordinates of atoms  x
            x            Number           u          v          w      x
            x----------------------------------------------------------x
            x  P            1         0.121540   0.143077   0.385129   x 
            x  P            2         0.385128   0.143077   0.121541   x 
            x  P            3         0.128184   0.376171   0.128184   x 
            x  P            4         0.126170   0.124964   0.875095   x 
            x  P            5         0.376648   0.126520   0.627476   x 
            x  P            6         0.123434   0.386594   0.633080   x 
            x  P            7         0.375486   0.382493   0.872070   x 
            x  P            8         0.132506   0.621803   0.372871   x 
            x  P            9         0.372871   0.621803   0.132506   x 
            x  P           10         0.137033   0.892086   0.137033   x 
            x  P           11         0.371641   0.887864   0.371641   x 
            x  P           12         0.124734   0.631814   0.880817   x 
            x  P           13         0.377063   0.628733   0.617090   x 
            x  P           14         0.125795   0.875297   0.625592   x 
            x  P           15         0.374635   0.871683   0.878033   x 
            x  P           16         0.627476   0.126520   0.376648   x 
            x  P           17         0.875095   0.124964   0.126170   x 
            x  P           18         0.633080   0.386595   0.123434   x 
            x  P           19         0.872070   0.382493   0.375486   x 
            x  P           20         0.624428   0.127117   0.877865   x 
            x  P           21         0.877865   0.127117   0.624428   x 
            x  P           22         0.620296   0.375999   0.620296   x 
            x  P           23         0.875146   0.376109   0.875146   x 
            x  P           24         0.617090   0.628733   0.377063   x 
            x  P           25         0.880817   0.631814   0.124734   x 
            x  P           26         0.625592   0.875297   0.125795   x 
            x  P           27         0.878033   0.871683   0.374635   x 
            x  P           28         0.626223   0.626490   0.874225   x 
            x  P           29         0.874225   0.626490   0.626223   x 
            x  P           30         0.627082   0.878834   0.627082   x 
            x  P           31         0.876325   0.879514   0.876325   x 
            x  In           1         0.004419  -0.000888   0.004419   x 
            x  In           2         0.259145   0.036460   0.259143   x 
            x  In           3        -0.005317   0.256624   0.249260   x 
            x  In           4         0.249260   0.256624  -0.005317   x 
            x  In           5         0.001219  -0.000803   0.499683   x 
            x  In           6         0.251708  -0.001318   0.751780   x 
            x  In           7         0.001253   0.251121   0.751444   x 
            x  In           8         0.250836   0.261864   0.514066   x 
            x  In           9         0.001669   0.500624   0.001669   x 
            x  In          10         0.265906   0.482040   0.265906   x 
            x  In          11         0.011720   0.753988   0.247815   x 
            x  In          12         0.247815   0.753988   0.011720   x 
            x  In          13         0.001070   0.505438   0.499138   x 
            x  In          14         0.252482   0.514325   0.751308   x 
            x  In          15        -0.001243   0.752099   0.751725   x 
            x  In          16         0.250421   0.755881   0.495129   x 
            x  In          17         0.499683  -0.000803   0.001219   x 
            x  In          18         0.751780  -0.001318   0.251708   x 
            x  In          19         0.514065   0.261864   0.250836   x 
            x  In          20         0.751444   0.251121   0.001253   x 
            x  In          21         0.500970   0.000760   0.500970   x 
            x  In          22         0.751536   0.006007   0.751536   x 
            x  In          23         0.501225   0.252500   0.751975   x 
            x  In          24         0.751975   0.252500   0.501225   x 
            x  In          25         0.499138   0.505438   0.001070   x 
            x  In          26         0.751308   0.514325   0.252482   x 
            x  In          27         0.495129   0.755881   0.250421   x 
            x  In          28         0.751725   0.752099  -0.001243   x 
            x  In          29         0.485155   0.488328   0.485155   x 
            x  In          30         0.747703   0.498975   0.747703   x 
            x  In          31         0.501637   0.750388   0.748213   x 
            x  In          32         0.748213   0.750388   0.501637   x 
            xxxxxxxxxxxxxxxxxxxxxxxxxxxxxxxxxxxxxxxxxxxxxxxxxxxxxxxxxxxx


                         No user defined ionic velocities

                           -------------------------------
                                   Details of Species
                           -------------------------------

                               Mass of species in AMU
                                    P   30.9737600
                                    In  114.8180000

                          Electric Quadrupole Moment (Barn)
                                    P    1.0000000 No Isotope Defined
                                    In    0.7700000 Isotope115

                          Files used for pseudopotentials:
                                    P 3|1.8|4|4|5|30:31:32
                                    In 3|2.5|2.5|1.5|7|8|9|50:51:42U2.2U2.2

                           -------------------------------
                              k-Points For BZ Sampling
                           -------------------------------
                       MP grid size for SCF calculation is  4  4  4
                            with an offset of   0.125  0.125  0.125
                       Number of kpoints used =            36

                           -------------------------------
                               Symmetry and Constraints
                           -------------------------------

                      Maximum deviation from symmetry =  0.00000         ANG

                      Number of symmetry operations   =           1
                      Number of ionic constraints     =           3
                      Point group of crystal =     1: C1, 1, 1
                      Space group of crystal =     8: Cm, C -2y

             Set iprint > 1 for details on symmetry rotations/translations

                         Centre of mass is constrained
             Set iprint > 1 for details of linear ionic constraints

                         Number of cell constraints= 0
                         Cell constraints are:  1 2 3 4 5 6

                         External pressure/stress (GPa)
                          0.00000   0.00000   0.00000
                                    0.00000   0.00000
                                              0.00000
 
+---------------- MEMORY AND SCRATCH DISK ESTIMATES PER PROCESS --------------+
|                                                     Memory          Disk    |
| Baseline code, static data and system overhead      368.0 MB         0.0 MB |
| BLAS internal memory storage                          0.0 MB         0.0 MB |
| Model and support data                             4302.1 MB         0.0 MB |
| Electronic energy minimisation requirements        1320.9 MB         0.0 MB |
| Force calculation requirements                      127.4 MB         0.0 MB |
|                                               ----------------------------- |
| Approx. total storage required per process         5991.0 MB         0.0 MB |
|                                                                             |
| Requirements will fluctuate during execution and may exceed these estimates |
+-----------------------------------------------------------------------------+
Calculating approximate eigenstates for fixed initial Hamiltonian
Cut-off for approx. calculation is   89.988 eV
Improving approx. states at cut-off of  450.000 eV
Resetting cut-off to  900.000 eV
Calculating total energy with cut-off of  900.000 eV.
------------------------------------------------------------------------ <-- SCF
SCF loop      Energy           Fermi           Energy gain       Timer   <-- SCF
                               energy          per atom          (sec)   <-- SCF
------------------------------------------------------------------------ <-- SCF
Initial  -6.28294789E+004  0.00000000E+000                       442.25  <-- SCF
      1  -6.25860882E+004  3.11379611E+000  -3.86334545E+000     895.30  <-- SCF
      2  -6.25863514E+004  3.11343810E+000   4.17870658E-003    1202.40  <-- SCF
      3  -6.26536276E+004  3.19738946E+000   1.06787649E+000    1555.66  <-- SCF
      4  -6.26659015E+004  3.24172420E+000   1.94822515E-001    2043.17  <-- SCF
      5  -6.26731903E+004  3.34110107E+000   1.15695659E-001    2388.04  <-- SCF
      6  -6.26622481E+004  3.51834112E+000  -1.73685658E-001    2731.47  <-- SCF
      7  -6.26609905E+004  3.56425317E+000  -1.99621863E-002    3083.28  <-- SCF
      8  -6.26608749E+004  3.58396901E+000  -1.83365537E-003    3459.71  <-- SCF
      9  -6.26616486E+004  3.58999759E+000   1.22805220E-002    3805.12  <-- SCF
     10  -6.26620687E+004  3.84683150E+000   6.66864920E-003    4157.46  <-- SCF
     11  -6.26621583E+004  3.85132229E+000   1.42119099E-003    4512.15  <-- SCF
     12  -6.26621862E+004  3.85267102E+000   4.43405089E-004    4861.92  <-- SCF
     13  -6.26621980E+004  3.85305643E+000   1.87129690E-004    5214.09  <-- SCF
     14  -6.26622029E+004  3.85371454E+000   7.75073810E-005    5578.32  <-- SCF
     15  -6.26622038E+004  3.85404577E+000   1.39318605E-005    5950.93  <-- SCF
     16  -6.26622050E+004  3.85478183E+000   1.91492015E-005    6315.38  <-- SCF
     17  -6.26622054E+004  3.85522690E+000   6.12059602E-006    6681.13  <-- SCF
     18  -6.26622057E+004  3.85581998E+000   5.77193071E-006    7041.78  <-- SCF
     19  -6.26622058E+004  3.85596017E+000   1.05561490E-006    7384.59  <-- SCF
     20  -6.26622058E+004  3.85598093E+000   3.46420851E-007    7710.54  <-- SCF
     21  -6.26622058E+004  3.85598201E+000   2.08764752E-007    8022.14  <-- SCF
     22  -6.26622058E+004  3.85598559E+000   7.13891379E-008    8307.72  <-- SCF
     23  -6.26622058E+004  3.85597808E+000   9.65840102E-008    8628.92  <-- SCF
     24  -6.26622058E+004  3.85597278E+000   1.53398180E-008    8894.28  <-- SCF
     25  -6.26622058E+004  3.85596895E+000   1.43465344E-008    9160.37  <-- SCF
     26  -6.26622058E+004  3.85596918E+000   1.68978020E-009    9408.66  <-- SCF
     27  -6.26622058E+004  3.85597275E+000   3.06214964E-010    9650.49  <-- SCF
------------------------------------------------------------------------ <-- SCF
 
Integrated Spin Density     =    0.222094E-03 hbar/2
Integrated |Spin Density|   =    0.592484E-03 hbar/2
 
Final energy, E             =  -62662.07932420     eV
Final free energy (E-TS)    =  -62662.20583516     eV
(energies not corrected for finite basis set)
 
NB est. 0K energy (E-0.5TS)      =  -62662.14257968     eV
 

 ************************** Forces **************************
 *                                                          *
 *               Cartesian components (eV/A)                *
 * -------------------------------------------------------- *
 *                         x            y            z      *
 *                                                          *
 * P               1      0.14503     -0.11605     -0.12136 *
 * P               2     -0.12115     -0.11592      0.14475 *
 * P               3      0.02193      0.03904      0.02190 *
 * P               4      0.03445      0.03523      0.02971 *
 * P               5      0.01204      0.07912     -0.05309 *
 * P               6      0.02280     -0.02983     -0.04905 *
 * P               7      0.01712     -0.01854      0.04041 *
 * P               8     -0.05638      0.07228     -0.00293 *
 * P               9     -0.00293      0.07227     -0.05640 *
 * P              10     -0.07318     -0.08777     -0.07322 *
 * P              11      0.07520     -0.13115      0.07518 *
 * P              12      0.01791      0.00563     -0.02374 *
 * P              13      0.02039     -0.02798      0.05429 *
 * P              14     -0.00443      0.04651     -0.00717 *
 * P              15      0.03343      0.07990     -0.02096 *
 * P              16     -0.05311      0.07914      0.01202 *
 * P              17      0.02970      0.03525      0.03442 *
 * P              18     -0.04911     -0.02988      0.02276 *
 * P              19      0.04037     -0.01850      0.01710 *
 * P              20     -0.00075      0.03630     -0.01919 *
 * P              21     -0.01925      0.03628     -0.00069 *
 * P              22      0.02482      0.06198      0.02484 *
 * P              23      0.01208      0.04361      0.01209 *
 * P              24      0.05428     -0.02798      0.02038 *
 * P              25     -0.02375      0.00564      0.01789 *
 * P              26     -0.00718      0.04652     -0.00444 *
 * P              27     -0.02096      0.07989      0.03343 *
 * P              28      0.00982      0.01897      0.00394 *
 * P              29      0.00393      0.01897      0.00983 *
 * P              30      0.00093      0.02722      0.00094 *
 * P              31      0.01282      0.01888      0.01283 *
 * In              1     -0.02090      0.08486     -0.02090 *
 * In              2     -0.21956     -0.61774     -0.21916 *
 * In              3      0.08650      0.01862      0.02939 *
 * In              4      0.02937      0.01862      0.08652 *
 * In              5      0.01971      0.06630      0.03431 *
 * In              6     -0.05823     -0.00181      0.01103 *
 * In              7      0.00912      0.00507      0.01130 *
 * In              8      0.03458      0.08221     -0.17686 *
 * In              9      0.02343      0.02574      0.02344 *
 * In             10      0.04457      0.00528      0.04457 *
 * In             11     -0.04208     -0.00317      0.07799 *
 * In             12      0.07796     -0.00317     -0.04206 *
 * In             13     -0.01699      0.00123     -0.00823 *
 * In             14     -0.01435     -0.05183      0.03525 *
 * In             15      0.02526      0.00163     -0.01544 *
 * In             16     -0.00557     -0.03776      0.04129 *
 * In             17      0.03430      0.06633      0.01972 *
 * In             18      0.01105     -0.00182     -0.05822 *
 * In             19     -0.17683      0.08222      0.03462 *
 * In             20      0.01133      0.00506      0.00913 *
 * In             21      0.01800      0.06938      0.01800 *
 * In             22      0.00943     -0.07360      0.00937 *
 * In             23     -0.00461      0.06126     -0.02268 *
 * In             24     -0.02265      0.06127     -0.00461 *
 * In             25     -0.00823      0.00124     -0.01698 *
 * In             26      0.03530     -0.05183     -0.01429 *
 * In             27      0.04129     -0.03776     -0.00554 *
 * In             28     -0.01542      0.00164      0.02526 *
 * In             29     -0.02696     -0.13783     -0.02696 *
 * In             30     -0.01524      0.01869     -0.01525 *
 * In             31     -0.01869      0.00333     -0.00177 *
 * In             32     -0.00175      0.00333     -0.01870 *
 *                                                          *
 ************************************************************

 Pseudo atomic calculation performed for P 3s2 3p3

 Converged in 23 iterations to a total energy of -208.0292 eV

 Pseudo atomic calculation performed for In 4d10 5s2 5p1

 Converged in 42 iterations to a total energy of -1747.4501 eV
Charge spilling parameter for spin component 1 = 0.17%
Charge spilling parameter for spin component 2 = 0.17%

                   Orbital Populations                  
  ---------------------------------------------------------------
     Ion    Atom   Orbital              Up        Down      Spin
  ---------------------------------------------------------------
      P     1      S                    0.873     0.873    -0.000
      P     1      Px                   0.642     0.642    -0.000
      P     1      Py                   0.655     0.655     0.000
      P     1      Pz                   0.659     0.659     0.000
      P     2      S                    0.873     0.873     0.000
      P     2      Px                   0.659     0.659     0.000
      P     2      Py                   0.655     0.655     0.000
      P     2      Pz                   0.642     0.642    -0.000
      P     3      S                    0.873     0.873     0.000
      P     3      Px                   0.643     0.643    -0.000
      P     3      Py                   0.667     0.667     0.000
      P     3      Pz                   0.643     0.643    -0.000
      P     4      S                    0.868     0.868    -0.000
      P     4      Px                   0.657     0.657    -0.000
      P     4      Py                   0.654     0.654     0.000
      P     4      Pz                   0.657     0.657     0.000
      P     5      S                    0.872     0.872    -0.000
      P     5      Px                   0.663     0.663     0.000
      P     5      Py                   0.645     0.645     0.000
      P     5      Pz                   0.651     0.651     0.000
      P     6      S                    0.871     0.871     0.000
      P     6      Px                   0.647     0.647     0.000
      P     6      Py                   0.661     0.661     0.000
      P     6      Pz                   0.652     0.652     0.000
      P     7      S                    0.868     0.868     0.000
      P     7      Px                   0.656     0.656    -0.000
      P     7      Py                   0.653     0.653    -0.000
      P     7      Pz                   0.659     0.659    -0.000
      P     8      S                    0.873     0.873     0.000
      P     8      Px                   0.647     0.647    -0.000
      P     8      Py                   0.643     0.643     0.000
      P     8      Pz                   0.664     0.664    -0.000
      P     9      S                    0.873     0.873     0.000
      P     9      Px                   0.664     0.664     0.000
      P     9      Py                   0.643     0.643     0.000
      P     9      Pz                   0.647     0.647    -0.000
      P    10      S                    0.873     0.873     0.000
      P    10      Px                   0.655     0.655    -0.000
      P    10      Py                   0.648     0.648     0.000
      P    10      Pz                   0.655     0.655    -0.000
      P    11      S                    0.869     0.869     0.000
      P    11      Px                   0.658     0.658     0.000
      P    11      Py                   0.650     0.650     0.000
      P    11      Pz                   0.658     0.658     0.000
      P    12      S                    0.869     0.869     0.000
      P    12      Px                   0.656     0.656     0.000
      P    12      Py                   0.657     0.657     0.000
      P    12      Pz                   0.653     0.653    -0.000
      P    13      S                    0.873     0.873     0.000
      P    13      Px                   0.663     0.663    -0.000
      P    13      Py                   0.647     0.647     0.000
      P    13      Pz                   0.643     0.643     0.000
      P    14      S                    0.868     0.868     0.000
      P    14      Px                   0.656     0.656    -0.000
      P    14      Py                   0.658     0.658    -0.000
      P    14      Pz                   0.654     0.654     0.000
      P    15      S                    0.873     0.873     0.000
      P    15      Px                   0.660     0.660     0.000
      P    15      Py                   0.651     0.651     0.000
      P    15      Pz                   0.647     0.647     0.000
      P    16      S                    0.872     0.872    -0.000
      P    16      Px                   0.651     0.651     0.000
      P    16      Py                   0.645     0.645     0.000
      P    16      Pz                   0.663     0.663     0.000
      P    17      S                    0.868     0.868     0.000
      P    17      Px                   0.657     0.657     0.000
      P    17      Py                   0.654     0.654     0.000
      P    17      Pz                   0.657     0.657    -0.000
      P    18      S                    0.871     0.871     0.000
      P    18      Px                   0.652     0.652     0.000
      P    18      Py                   0.661     0.661     0.000
      P    18      Pz                   0.647     0.647     0.000
      P    19      S                    0.868     0.868     0.000
      P    19      Px                   0.659     0.659     0.000
      P    19      Py                   0.653     0.653    -0.000
      P    19      Pz                   0.656     0.656    -0.000
      P    20      S                    0.868     0.868    -0.000
      P    20      Px                   0.655     0.655    -0.000
      P    20      Py                   0.657     0.657    -0.000
      P    20      Pz                   0.656     0.656     0.000
      P    21      S                    0.868     0.868    -0.000
      P    21      Px                   0.656     0.656    -0.000
      P    21      Py                   0.657     0.657    -0.000
      P    21      Pz                   0.655     0.655    -0.000
      P    22      S                    0.873     0.873    -0.000
      P    22      Px                   0.644     0.644    -0.000
      P    22      Py                   0.664     0.664     0.000
      P    22      Pz                   0.644     0.644    -0.000
      P    23      S                    0.872     0.872     0.000
      P    23      Px                   0.649     0.649     0.000
      P    23      Py                   0.660     0.660     0.000
      P    23      Pz                   0.649     0.649     0.000
      P    24      S                    0.873     0.873     0.000
      P    24      Px                   0.643     0.643     0.000
      P    24      Py                   0.647     0.647     0.000
      P    24      Pz                   0.663     0.663    -0.000
      P    25      S                    0.869     0.869     0.000
      P    25      Px                   0.653     0.653    -0.000
      P    25      Py                   0.657     0.657     0.000
      P    25      Pz                   0.656     0.656    -0.000
      P    26      S                    0.868     0.868     0.000
      P    26      Px                   0.654     0.654     0.000
      P    26      Py                   0.658     0.658    -0.000
      P    26      Pz                   0.656     0.656    -0.000
      P    27      S                    0.873     0.873     0.000
      P    27      Px                   0.647     0.647     0.000
      P    27      Py                   0.651     0.651     0.000
      P    27      Pz                   0.660     0.660     0.000
      P    28      S                    0.868     0.868     0.000
      P    28      Px                   0.656     0.656     0.000
      P    28      Py                   0.656     0.656     0.000
      P    28      Pz                   0.655     0.655     0.000
      P    29      S                    0.868     0.868     0.000
      P    29      Px                   0.655     0.655     0.000
      P    29      Py                   0.656     0.656    -0.000
      P    29      Pz                   0.656     0.656     0.000
      P    30      S                    0.868     0.868    -0.000
      P    30      Px                   0.656     0.656     0.000
      P    30      Py                   0.655     0.655     0.000
      P    30      Pz                   0.656     0.656     0.000
      P    31      S                    0.868     0.868     0.000
      P    31      Px                   0.656     0.656     0.000
      P    31      Py                   0.656     0.656     0.000
      P    31      Pz                   0.656     0.656     0.000
     In     1      Dzz                  1.000     1.000     0.000
     In     1      Dzy                  0.999     0.999    -0.000
     In     1      Dzx                  0.998     0.998    -0.000
     In     1      Dxx-yy               1.000     1.000    -0.000
     In     1      Dxy                  0.999     0.999    -0.000
     In     1      S                    0.706     0.706     0.000
     In     1      Px                   0.242     0.242     0.000
     In     1      Py                   0.237     0.237     0.000
     In     1      Pz                   0.242     0.242     0.000
     In     1      S                   -0.250    -0.250     0.000
     In     2      Dzz                  1.000     1.000     0.000
     In     2      Dzy                  0.999     0.999    -0.000
     In     2      Dzx                  0.998     0.998    -0.000
     In     2      Dxx-yy               1.000     1.000     0.000
     In     2      Dxy                  0.999     0.999    -0.000
     In     2      S                    0.709     0.709     0.000
     In     2      Px                   0.237     0.237     0.000
     In     2      Py                   0.238     0.238    -0.000
     In     2      Pz                   0.237     0.237    -0.000
     In     2      S                   -0.250    -0.250     0.000
     In     3      Dzz                  1.000     1.000    -0.000
     In     3      Dzy                  0.998     0.998     0.000
     In     3      Dzx                  0.998     0.998     0.000
     In     3      Dxx-yy               1.000     1.000     0.000
     In     3      Dxy                  0.999     0.999    -0.000
     In     3      S                    0.708     0.708     0.000
     In     3      Px                   0.240     0.240     0.000
     In     3      Py                   0.238     0.238    -0.000
     In     3      Pz                   0.243     0.243    -0.000
     In     3      S                   -0.249    -0.249    -0.000
     In     4      Dzz                  1.000     1.000     0.000
     In     4      Dzy                  0.999     0.999    -0.000
     In     4      Dzx                  0.998     0.998     0.000
     In     4      Dxx-yy               1.000     1.000    -0.000
     In     4      Dxy                  0.998     0.998     0.000
     In     4      S                    0.708     0.708     0.000
     In     4      Px                   0.243     0.243    -0.000
     In     4      Py                   0.238     0.238    -0.000
     In     4      Pz                   0.240     0.240     0.000
     In     4      S                   -0.249    -0.249     0.000
     In     5      Dzz                  1.000     1.000     0.000
     In     5      Dzy                  0.998     0.998     0.000
     In     5      Dzx                  0.999     0.999     0.000
     In     5      Dxx-yy               1.000     1.000     0.000
     In     5      Dxy                  0.999     0.999    -0.000
     In     5      S                    0.711     0.711    -0.000
     In     5      Px                   0.238     0.238     0.000
     In     5      Py                   0.241     0.241    -0.000
     In     5      Pz                   0.238     0.238     0.000
     In     5      S                   -0.251    -0.251    -0.000
     In     6      Dzz                  1.000     1.000    -0.000
     In     6      Dzy                  0.999     0.999    -0.000
     In     6      Dzx                  0.998     0.998    -0.000
     In     6      Dxx-yy               1.000     1.000    -0.000
     In     6      Dxy                  0.998     0.998    -0.000
     In     6      S                    0.711     0.711     0.000
     In     6      Px                   0.240     0.240     0.000
     In     6      Py                   0.240     0.240     0.000
     In     6      Pz                   0.239     0.239    -0.000
     In     6      S                   -0.252    -0.252     0.000
     In     7      Dzz                  1.000     1.000    -0.000
     In     7      Dzy                  0.998     0.998    -0.000
     In     7      Dzx                  0.999     0.999     0.000
     In     7      Dxx-yy               1.000     1.000     0.000
     In     7      Dxy                  0.998     0.998     0.000
     In     7      S                    0.710     0.710    -0.000
     In     7      Px                   0.239     0.239     0.000
     In     7      Py                   0.244     0.244     0.000
     In     7      Pz                   0.238     0.238     0.000
     In     7      S                   -0.255    -0.255     0.000
     In     8      Dzz                  1.000     1.000    -0.000
     In     8      Dzy                  0.999     0.999    -0.000
     In     8      Dzx                  0.999     0.999     0.000
     In     8      Dxx-yy               1.000     1.000    -0.000
     In     8      Dxy                  0.999     0.999     0.000
     In     8      S                    0.727     0.727    -0.000
     In     8      Px                   0.242     0.242     0.000
     In     8      Py                   0.244     0.244     0.000
     In     8      Pz                   0.232     0.232     0.000
     In     8      S                   -0.236    -0.236     0.000
     In     9      Dzz                  1.000     1.000     0.000
     In     9      Dzy                  0.998     0.998     0.000
     In     9      Dzx                  0.999     0.999     0.000
     In     9      Dxx-yy               1.000     1.000     0.000
     In     9      Dxy                  0.998     0.998     0.000
     In     9      S                    0.712     0.712     0.000
     In     9      Px                   0.239     0.239    -0.000
     In     9      Py                   0.241     0.241    -0.000
     In     9      Pz                   0.239     0.239    -0.000
     In     9      S                   -0.247    -0.247    -0.000
     In    10      Dzz                  1.000     1.000     0.000
     In    10      Dzy                  0.999     0.999    -0.000
     In    10      Dzx                  0.999     0.999     0.000
     In    10      Dxx-yy               1.000     1.000     0.000
     In    10      Dxy                  0.999     0.999    -0.000
     In    10      S                    0.728     0.728    -0.000
     In    10      Px                   0.243     0.243     0.000
     In    10      Py                   0.243     0.243    -0.000
     In    10      Pz                   0.243     0.243     0.000
     In    10      S                   -0.225    -0.225     0.000
     In    11      Dzz                  1.000     1.000     0.000
     In    11      Dzy                  0.999     0.999    -0.000
     In    11      Dzx                  0.999     0.999     0.000
     In    11      Dxx-yy               1.000     1.000    -0.000
     In    11      Dxy                  0.999     0.999    -0.000
     In    11      S                    0.708     0.708     0.000
     In    11      Px                   0.241     0.241     0.000
     In    11      Py                   0.242     0.242    -0.000
     In    11      Pz                   0.236     0.236     0.000
     In    11      S                   -0.247    -0.247     0.000
     In    12      Dzz                  1.000     1.000    -0.000
     In    12      Dzy                  0.999     0.999     0.000
     In    12      Dzx                  0.999     0.999    -0.000
     In    12      Dxx-yy               1.000     1.000     0.000
     In    12      Dxy                  0.999     0.999    -0.000
     In    12      S                    0.708     0.708     0.000
     In    12      Px                   0.236     0.236    -0.000
     In    12      Py                   0.242     0.242    -0.000
     In    12      Pz                   0.241     0.241     0.000
     In    12      S                   -0.247    -0.247    -0.000
     In    13      Dzz                  1.000     1.000     0.000
     In    13      Dzy                  0.999     0.999    -0.000
     In    13      Dzx                  0.998     0.998     0.000
     In    13      Dxx-yy               1.000     1.000     0.000
     In    13      Dxy                  0.999     0.999     0.000
     In    13      S                    0.708     0.708    -0.000
     In    13      Px                   0.240     0.240    -0.000
     In    13      Py                   0.238     0.238    -0.000
     In    13      Pz                   0.242     0.242    -0.000
     In    13      S                   -0.250    -0.250     0.000
     In    14      Dzz                  1.000     1.000     0.000
     In    14      Dzy                  0.999     0.999     0.000
     In    14      Dzx                  0.998     0.998     0.000
     In    14      Dxx-yy               1.000     1.000    -0.000
     In    14      Dxy                  0.999     0.999     0.000
     In    14      S                    0.707     0.707     0.000
     In    14      Px                   0.241     0.241    -0.000
     In    14      Py                   0.240     0.240    -0.000
     In    14      Pz                   0.239     0.239    -0.000
     In    14      S                   -0.249    -0.249    -0.000
     In    15      Dzz                  1.000     1.000     0.000
     In    15      Dzy                  0.998     0.998    -0.000
     In    15      Dzx                  0.998     0.998    -0.000
     In    15      Dxx-yy               1.000     1.000     0.000
     In    15      Dxy                  0.999     0.999    -0.000
     In    15      S                    0.708     0.708     0.000
     In    15      Px                   0.240     0.240     0.000
     In    15      Py                   0.239     0.239    -0.000
     In    15      Pz                   0.241     0.241    -0.000
     In    15      S                   -0.255    -0.255    -0.000
     In    16      Dzz                  1.000     1.000    -0.000
     In    16      Dzy                  0.998     0.998    -0.000
     In    16      Dzx                  0.999     0.999    -0.000
     In    16      Dxx-yy               1.000     1.000     0.000
     In    16      Dxy                  0.998     0.998     0.000
     In    16      S                    0.707     0.707     0.000
     In    16      Px                   0.238     0.238    -0.000
     In    16      Py                   0.242     0.242    -0.000
     In    16      Pz                   0.241     0.241     0.000
     In    16      S                   -0.246    -0.246     0.000
     In    17      Dzz                  1.000     1.000     0.000
     In    17      Dzy                  0.999     0.999     0.000
     In    17      Dzx                  0.999     0.999     0.000
     In    17      Dxx-yy               1.000     1.000     0.000
     In    17      Dxy                  0.998     0.998     0.000
     In    17      S                    0.711     0.711    -0.000
     In    17      Px                   0.238     0.238    -0.000
     In    17      Py                   0.241     0.241     0.000
     In    17      Pz                   0.238     0.238     0.000
     In    17      S                   -0.251    -0.251    -0.000
     In    18      Dzz                  1.000     1.000    -0.000
     In    18      Dzy                  0.998     0.998    -0.000
     In    18      Dzx                  0.998     0.998     0.000
     In    18      Dxx-yy               1.000     1.000    -0.000
     In    18      Dxy                  0.999     0.999     0.000
     In    18      S                    0.711     0.711     0.000
     In    18      Px                   0.239     0.239     0.000
     In    18      Py                   0.240     0.240     0.000
     In    18      Pz                   0.240     0.240     0.000
     In    18      S                   -0.252    -0.252     0.000
     In    19      Dzz                  1.000     1.000    -0.000
     In    19      Dzy                  0.999     0.999    -0.000
     In    19      Dzx                  0.999     0.999     0.000
     In    19      Dxx-yy               1.000     1.000    -0.000
     In    19      Dxy                  0.999     0.999     0.000
     In    19      S                    0.727     0.727    -0.000
     In    19      Px                   0.232     0.232     0.000
     In    19      Py                   0.244     0.244     0.000
     In    19      Pz                   0.242     0.242     0.000
     In    19      S                   -0.236    -0.236     0.000
     In    20      Dzz                  1.000     1.000    -0.000
     In    20      Dzy                  0.998     0.998    -0.000
     In    20      Dzx                  0.999     0.999     0.000
     In    20      Dxx-yy               1.000     1.000     0.000
     In    20      Dxy                  0.998     0.998     0.000
     In    20      S                    0.710     0.710    -0.000
     In    20      Px                   0.238     0.238     0.000
     In    20      Py                   0.244     0.244     0.000
     In    20      Pz                   0.239     0.239     0.000
     In    20      S                   -0.255    -0.255     0.000
     In    21      Dzz                  1.000     1.000     0.000
     In    21      Dzy                  0.999     0.999    -0.000
     In    21      Dzx                  0.998     0.998     0.000
     In    21      Dxx-yy               1.000     1.000     0.000
     In    21      Dxy                  0.999     0.999    -0.000
     In    21      S                    0.709     0.709    -0.000
     In    21      Px                   0.241     0.241     0.000
     In    21      Py                   0.240     0.240     0.000
     In    21      Pz                   0.241     0.241     0.000
     In    21      S                   -0.256    -0.256     0.000
     In    22      Dzz                  1.000     1.000     0.000
     In    22      Dzy                  0.999     0.999    -0.000
     In    22      Dzx                  0.998     0.998    -0.000
     In    22      Dxx-yy               1.000     1.000     0.000
     In    22      Dxy                  0.999     0.999    -0.000
     In    22      S                    0.708     0.708     0.000
     In    22      Px                   0.241     0.241     0.000
     In    22      Py                   0.239     0.239     0.000
     In    22      Pz                   0.241     0.241     0.000
     In    22      S                   -0.251    -0.251    -0.000
     In    23      Dzz                  1.000     1.000    -0.000
     In    23      Dzy                  0.998     0.998    -0.000
     In    23      Dzx                  0.999     0.999    -0.000
     In    23      Dxx-yy               1.000     1.000     0.000
     In    23      Dxy                  0.999     0.999    -0.000
     In    23      S                    0.709     0.709    -0.000
     In    23      Px                   0.240     0.240     0.000
     In    23      Py                   0.242     0.242    -0.000
     In    23      Pz                   0.239     0.239     0.000
     In    23      S                   -0.250    -0.250     0.000
     In    24      Dzz                  1.000     1.000     0.000
     In    24      Dzy                  0.999     0.999    -0.000
     In    24      Dzx                  0.999     0.999    -0.000
     In    24      Dxx-yy               1.000     1.000    -0.000
     In    24      Dxy                  0.998     0.998    -0.000
     In    24      S                    0.709     0.709     0.000
     In    24      Px                   0.239     0.239     0.000
     In    24      Py                   0.242     0.242    -0.000
     In    24      Pz                   0.240     0.240     0.000
     In    24      S                   -0.250    -0.250     0.000
     In    25      Dzz                  1.000     1.000    -0.000
     In    25      Dzy                  0.999     0.999    -0.000
     In    25      Dzx                  0.998     0.998     0.000
     In    25      Dxx-yy               1.000     1.000     0.000
     In    25      Dxy                  0.999     0.999    -0.000
     In    25      S                    0.708     0.708    -0.000
     In    25      Px                   0.242     0.242     0.000
     In    25      Py                   0.238     0.238    -0.000
     In    25      Pz                   0.240     0.240    -0.000
     In    25      S                   -0.250    -0.250     0.000
     In    26      Dzz                  1.000     1.000    -0.000
     In    26      Dzy                  0.999     0.999     0.000
     In    26      Dzx                  0.998     0.998    -0.000
     In    26      Dxx-yy               1.000     1.000     0.000
     In    26      Dxy                  0.999     0.999     0.000
     In    26      S                    0.707     0.707     0.000
     In    26      Px                   0.239     0.239    -0.000
     In    26      Py                   0.240     0.240    -0.000
     In    26      Pz                   0.241     0.241    -0.000
     In    26      S                   -0.249    -0.249     0.000
     In    27      Dzz                  1.000     1.000    -0.000
     In    27      Dzy                  0.998     0.998    -0.000
     In    27      Dzx                  0.999     0.999    -0.000
     In    27      Dxx-yy               1.000     1.000     0.000
     In    27      Dxy                  0.998     0.998    -0.000
     In    27      S                    0.707     0.707     0.000
     In    27      Px                   0.241     0.241     0.000
     In    27      Py                   0.242     0.242    -0.000
     In    27      Pz                   0.238     0.238    -0.000
     In    27      S                   -0.246    -0.246    -0.000
     In    28      Dzz                  1.000     1.000     0.000
     In    28      Dzy                  0.999     0.999    -0.000
     In    28      Dzx                  0.998     0.998    -0.000
     In    28      Dxx-yy               1.000     1.000     0.000
     In    28      Dxy                  0.998     0.998    -0.000
     In    28      S                    0.708     0.708     0.000
     In    28      Px                   0.241     0.241    -0.000
     In    28      Py                   0.239     0.239    -0.000
     In    28      Pz                   0.240     0.240     0.000
     In    28      S                   -0.255    -0.255    -0.000
     In    29      Dzz                  1.000     1.000    -0.000
     In    29      Dzy                  0.999     0.999    -0.000
     In    29      Dzx                  0.999     0.999     0.000
     In    29      Dxx-yy               1.000     1.000    -0.000
     In    29      Dxy                  0.999     0.999    -0.000
     In    29      S                    0.720     0.720    -0.000
     In    29      Px                   0.244     0.244    -0.000
     In    29      Py                   0.251     0.251    -0.000
     In    29      Pz                   0.244     0.244    -0.000
     In    29      S                   -0.226    -0.226     0.000
     In    30      Dzz                  1.000     1.000     0.000
     In    30      Dzy                  0.999     0.999    -0.000
     In    30      Dzx                  0.999     0.999     0.000
     In    30      Dxx-yy               1.000     1.000    -0.000
     In    30      Dxy                  0.999     0.999     0.000
     In    30      S                    0.712     0.712     0.000
     In    30      Px                   0.239     0.239    -0.000
     In    30      Py                   0.240     0.240    -0.000
     In    30      Pz                   0.239     0.239     0.000
     In    30      S                   -0.247    -0.247    -0.000
     In    31      Dzz                  1.000     1.000     0.000
     In    31      Dzy                  0.999     0.999    -0.000
     In    31      Dzx                  0.998     0.998     0.000
     In    31      Dxx-yy               1.000     1.000     0.000
     In    31      Dxy                  0.999     0.999     0.000
     In    31      S                    0.710     0.710     0.000
     In    31      Px                   0.240     0.240     0.000
     In    31      Py                   0.238     0.238    -0.000
     In    31      Pz                   0.241     0.241     0.000
     In    31      S                   -0.251    -0.251     0.000
     In    32      Dzz                  1.000     1.000     0.000
     In    32      Dzy                  0.999     0.999     0.000
     In    32      Dzx                  0.998     0.998     0.000
     In    32      Dxx-yy               1.000     1.000     0.000
     In    32      Dxy                  0.999     0.999    -0.000
     In    32      S                    0.710     0.710     0.000
     In    32      Px                   0.241     0.241     0.000
     In    32      Py                   0.238     0.238    -0.000
     In    32      Pz                   0.240     0.240     0.000
     In    32      S                   -0.251    -0.251     0.000
  ---------------------------------------------------------------
                           Total:     285.500   285.500     0.000
  ---------------------------------------------------------------

     Atomic Populations (Mulliken)
     -----------------------------
Species          Ion Spin      s       p       d       f      Total   Charge(e)   Spin(hbar/2)
==============================================================================================
  P               1   up:     0.873   1.956   0.000   0.000   2.829    -0.657        0.000
                  1   dn:     0.873   1.955   0.000   0.000   2.829
  P               2   up:     0.873   1.956   0.000   0.000   2.829    -0.657        0.000
                  2   dn:     0.873   1.955   0.000   0.000   2.829
  P               3   up:     0.873   1.953   0.000   0.000   2.826    -0.653       -0.000
                  3   dn:     0.873   1.953   0.000   0.000   2.826
  P               4   up:     0.868   1.967   0.000   0.000   2.836    -0.671        0.000
                  4   dn:     0.868   1.967   0.000   0.000   2.836
  P               5   up:     0.872   1.959   0.000   0.000   2.830    -0.661        0.000
                  5   dn:     0.872   1.959   0.000   0.000   2.830
  P               6   up:     0.871   1.961   0.000   0.000   2.831    -0.662        0.000
                  6   dn:     0.871   1.960   0.000   0.000   2.831
  P               7   up:     0.868   1.968   0.000   0.000   2.836    -0.672       -0.000
                  7   dn:     0.868   1.968   0.000   0.000   2.836
  P               8   up:     0.873   1.954   0.000   0.000   2.827    -0.653        0.000
                  8   dn:     0.873   1.954   0.000   0.000   2.827
  P               9   up:     0.873   1.954   0.000   0.000   2.827    -0.653        0.000
                  9   dn:     0.873   1.954   0.000   0.000   2.827
  P              10   up:     0.873   1.957   0.000   0.000   2.830    -0.661       -0.000
                 10   dn:     0.873   1.957   0.000   0.000   2.830
  P              11   up:     0.869   1.966   0.000   0.000   2.835    -0.670        0.000
                 11   dn:     0.869   1.966   0.000   0.000   2.835
  P              12   up:     0.869   1.966   0.000   0.000   2.835    -0.669        0.000
                 12   dn:     0.869   1.966   0.000   0.000   2.835
  P              13   up:     0.873   1.954   0.000   0.000   2.826    -0.653        0.000
                 13   dn:     0.873   1.954   0.000   0.000   2.826
  P              14   up:     0.868   1.968   0.000   0.000   2.836    -0.672       -0.000
                 14   dn:     0.868   1.968   0.000   0.000   2.836
  P              15   up:     0.873   1.958   0.000   0.000   2.831    -0.662        0.000
                 15   dn:     0.873   1.958   0.000   0.000   2.831
  P              16   up:     0.872   1.959   0.000   0.000   2.830    -0.661        0.000
                 16   dn:     0.872   1.959   0.000   0.000   2.830
  P              17   up:     0.868   1.967   0.000   0.000   2.836    -0.671        0.000
                 17   dn:     0.868   1.967   0.000   0.000   2.836
  P              18   up:     0.871   1.961   0.000   0.000   2.831    -0.662        0.000
                 18   dn:     0.871   1.960   0.000   0.000   2.831
  P              19   up:     0.868   1.968   0.000   0.000   2.836    -0.672       -0.000
                 19   dn:     0.868   1.968   0.000   0.000   2.836
  P              20   up:     0.868   1.968   0.000   0.000   2.836    -0.672       -0.000
                 20   dn:     0.868   1.968   0.000   0.000   2.836
  P              21   up:     0.868   1.968   0.000   0.000   2.836    -0.672       -0.000
                 21   dn:     0.868   1.968   0.000   0.000   2.836
  P              22   up:     0.873   1.952   0.000   0.000   2.826    -0.651       -0.000
                 22   dn:     0.873   1.952   0.000   0.000   2.826
  P              23   up:     0.872   1.959   0.000   0.000   2.831    -0.662        0.000
                 23   dn:     0.872   1.959   0.000   0.000   2.831
  P              24   up:     0.873   1.954   0.000   0.000   2.826    -0.653        0.000
                 24   dn:     0.873   1.954   0.000   0.000   2.826
  P              25   up:     0.869   1.966   0.000   0.000   2.835    -0.669       -0.000
                 25   dn:     0.869   1.966   0.000   0.000   2.835
  P              26   up:     0.868   1.968   0.000   0.000   2.836    -0.672       -0.000
                 26   dn:     0.868   1.968   0.000   0.000   2.836
  P              27   up:     0.873   1.958   0.000   0.000   2.831    -0.662        0.000
                 27   dn:     0.873   1.958   0.000   0.000   2.831
  P              28   up:     0.868   1.968   0.000   0.000   2.836    -0.672        0.000
                 28   dn:     0.868   1.968   0.000   0.000   2.836
  P              29   up:     0.868   1.968   0.000   0.000   2.836    -0.672        0.000
                 29   dn:     0.868   1.968   0.000   0.000   2.836
  P              30   up:     0.868   1.968   0.000   0.000   2.836    -0.672        0.000
                 30   dn:     0.868   1.968   0.000   0.000   2.836
  P              31   up:     0.868   1.968   0.000   0.000   2.836    -0.672        0.000
                 31   dn:     0.868   1.968   0.000   0.000   2.836
  In              1   up:     0.456   0.721   4.995   0.000   6.172     0.657        0.000
                  1   dn:     0.456   0.721   4.995   0.000   6.172
  In              2   up:     0.459   0.713   4.995   0.000   6.166     0.667        0.000
                  2   dn:     0.459   0.713   4.995   0.000   6.166
  In              3   up:     0.459   0.721   4.995   0.000   6.174     0.651       -0.000
                  3   dn:     0.459   0.721   4.995   0.000   6.174
  In              4   up:     0.459   0.721   4.995   0.000   6.174     0.651        0.000
                  4   dn:     0.459   0.721   4.995   0.000   6.174
  In              5   up:     0.460   0.717   4.995   0.000   6.171     0.658       -0.000
                  5   dn:     0.460   0.717   4.995   0.000   6.171
  In              6   up:     0.458   0.720   4.995   0.000   6.173     0.655        0.000
                  6   dn:     0.458   0.720   4.995   0.000   6.173
  In              7   up:     0.456   0.721   4.995   0.000   6.172     0.656        0.000
                  7   dn:     0.456   0.721   4.995   0.000   6.172
  In              8   up:     0.491   0.717   4.996   0.000   6.204     0.593        0.000
                  8   dn:     0.491   0.717   4.996   0.000   6.204
  In              9   up:     0.465   0.719   4.995   0.000   6.178     0.643       -0.000
                  9   dn:     0.465   0.719   4.995   0.000   6.178
  In             10   up:     0.503   0.729   4.996   0.000   6.228     0.544       -0.000
                 10   dn:     0.503   0.729   4.996   0.000   6.228
  In             11   up:     0.461   0.719   4.995   0.000   6.175     0.651        0.000
                 11   dn:     0.461   0.719   4.995   0.000   6.175
  In             12   up:     0.461   0.719   4.995   0.000   6.175     0.651        0.000
                 12   dn:     0.461   0.719   4.995   0.000   6.175
  In             13   up:     0.458   0.720   4.995   0.000   6.173     0.655       -0.000
                 13   dn:     0.458   0.720   4.995   0.000   6.173
  In             14   up:     0.458   0.720   4.995   0.000   6.173     0.654       -0.000
                 14   dn:     0.458   0.720   4.995   0.000   6.173
  In             15   up:     0.452   0.720   4.995   0.000   6.167     0.665       -0.000
                 15   dn:     0.452   0.720   4.995   0.000   6.167
  In             16   up:     0.461   0.721   4.995   0.000   6.177     0.646        0.000
                 16   dn:     0.461   0.721   4.995   0.000   6.177
  In             17   up:     0.460   0.717   4.995   0.000   6.171     0.658       -0.000
                 17   dn:     0.460   0.717   4.995   0.000   6.171
  In             18   up:     0.458   0.720   4.995   0.000   6.173     0.655        0.000
                 18   dn:     0.458   0.720   4.995   0.000   6.173
  In             19   up:     0.491   0.717   4.996   0.000   6.204     0.593        0.000
                 19   dn:     0.491   0.717   4.996   0.000   6.204
  In             20   up:     0.456   0.721   4.995   0.000   6.172     0.656        0.000
                 20   dn:     0.456   0.721   4.995   0.000   6.172
  In             21   up:     0.454   0.722   4.995   0.000   6.171     0.658        0.000
                 21   dn:     0.454   0.722   4.995   0.000   6.171
  In             22   up:     0.457   0.720   4.995   0.000   6.172     0.657        0.000
                 22   dn:     0.457   0.720   4.995   0.000   6.172
  In             23   up:     0.459   0.721   4.995   0.000   6.175     0.650       -0.000
                 23   dn:     0.459   0.721   4.995   0.000   6.175
  In             24   up:     0.459   0.721   4.995   0.000   6.175     0.650        0.000
                 24   dn:     0.459   0.721   4.995   0.000   6.175
  In             25   up:     0.458   0.720   4.995   0.000   6.173     0.655        0.000
                 25   dn:     0.458   0.720   4.995   0.000   6.173
  In             26   up:     0.458   0.720   4.995   0.000   6.173     0.654        0.000
                 26   dn:     0.458   0.720   4.995   0.000   6.173
  In             27   up:     0.461   0.721   4.995   0.000   6.177     0.646       -0.000
                 27   dn:     0.461   0.721   4.995   0.000   6.177
  In             28   up:     0.452   0.720   4.995   0.000   6.167     0.665       -0.000
                 28   dn:     0.452   0.720   4.995   0.000   6.167
  In             29   up:     0.494   0.739   4.996   0.000   6.229     0.542       -0.000
                 29   dn:     0.494   0.739   4.996   0.000   6.229
  In             30   up:     0.464   0.718   4.995   0.000   6.178     0.645        0.000
                 30   dn:     0.464   0.718   4.995   0.000   6.178
  In             31   up:     0.459   0.719   4.995   0.000   6.173     0.654        0.000
                 31   dn:     0.459   0.719   4.995   0.000   6.173
  In             32   up:     0.459   0.719   4.995   0.000   6.173     0.654        0.000
                 32   dn:     0.459   0.719   4.995   0.000   6.173
==============================================================================================

                 Bond                   Population        Spin       Length (A)
================================================================================
              P 6  -- In 8                   0.68        -0.00          2.52990
              P 18 -- In 19                  0.68        -0.00          2.52990
              P 2  -- In 2                   0.68        -0.00          2.53594
              P 1  -- In 2                   0.68        -0.00          2.53599
              P 11 -- In 21                  0.67         0.00          2.53660
              P 24 -- In 26                  0.67        -0.00          2.54830
              P 13 -- In 14                  0.67        -0.00          2.54830
              P 10 -- In 1                   0.68        -0.00          2.54838
              P 30 -- In 21                  0.66        -0.00          2.54967
              P 14 -- In 5                   0.67        -0.00          2.55101
              P 26 -- In 17                  0.67        -0.00          2.55101
              P 20 -- In 20                  0.66        -0.00          2.55131
              P 21 -- In 7                   0.66        -0.00          2.55131
              P 20 -- In 23                  0.66        -0.00          2.55169
              P 21 -- In 24                  0.66        -0.00          2.55169
              P 31 -- In 15                  0.65        -0.00          2.55171
              P 31 -- In 28                  0.65        -0.00          2.55171
              P 28 -- In 31                  0.66         0.00          2.55177
              P 29 -- In 32                  0.66         0.00          2.55177
              P 8  -- In 13                  0.67        -0.00          2.55199
              P 9  -- In 25                  0.67        -0.00          2.55199
              P 22 -- In 24                  0.65        -0.00          2.55225
              P 22 -- In 23                  0.65         0.00          2.55225
              P 3  -- In 3                   0.65         0.00          2.55238
              P 3  -- In 4                   0.65         0.00          2.55238
              P 20 -- In 22                  0.65        -0.00          2.55262
              P 21 -- In 22                  0.65         0.00          2.55263
              P 17 -- In 3                   0.66         0.00          2.55272
              P 4  -- In 4                   0.66        -0.00          2.55272
              P 4  -- In 7                   0.66         0.00          2.55335
              P 17 -- In 20                  0.66         0.00          2.55336
              P 7  -- In 4                   0.66        -0.00          2.55336
              P 19 -- In 3                   0.66        -0.00          2.55336
              P 26 -- In 27                  0.65         0.00          2.55343
              P 14 -- In 16                  0.65         0.00          2.55343
              P 23 -- In 7                   0.64        -0.00          2.55383
              P 23 -- In 20                  0.64        -0.00          2.55383
              P 9  -- In 27                  0.66         0.00          2.55386
              P 8  -- In 16                  0.66         0.00          2.55386
              P 16 -- In 24                  0.63        -0.00          2.55556
              P 5  -- In 23                  0.63        -0.00          2.55556
              P 29 -- In 13                  0.65        -0.00          2.55566
              P 28 -- In 25                  0.65         0.00          2.55566
              P 25 -- In 26                  0.65         0.00          2.55570
              P 12 -- In 14                  0.65         0.00          2.55570
              P 30 -- In 32                  0.65         0.00          2.55603
              P 30 -- In 31                  0.65         0.00          2.55603
              P 17 -- In 18                  0.66        -0.00          2.55619
              P 4  -- In 6                   0.66        -0.00          2.55619
              P 18 -- In 26                  0.64        -0.00          2.55707
              P 6  -- In 14                  0.64        -0.00          2.55708
              P 12 -- In 9                   0.65         0.00          2.55749
              P 25 -- In 9                   0.65        -0.00          2.55749
              P 26 -- In 18                  0.66         0.00          2.55858
              P 14 -- In 6                   0.66        -0.00          2.55858
              P 12 -- In 15                  0.65        -0.00          2.55863
              P 25 -- In 28                  0.65        -0.00          2.55863
              P 5  -- In 8                   0.68        -0.00          2.55877
              P 16 -- In 19                  0.68        -0.00          2.55877
              P 28 -- In 30                  0.65        -0.00          2.55923
              P 29 -- In 30                  0.65        -0.00          2.55923
              P 28 -- In 28                  0.66        -0.00          2.55954
              P 29 -- In 15                  0.66        -0.00          2.55954
              P 6  -- In 13                  0.63         0.00          2.55955
              P 18 -- In 25                  0.63         0.00          2.55955
              P 19 -- In 13                  0.66        -0.00          2.55981
              P 7  -- In 25                  0.66        -0.00          2.55981
              P 10 -- In 11                  0.67         0.00          2.55982
              P 10 -- In 12                  0.67         0.00          2.55983
              P 15 -- In 17                  0.64        -0.00          2.56050
              P 27 -- In 5                   0.64        -0.00          2.56050
              P 13 -- In 16                  0.64        -0.00          2.56069
              P 24 -- In 27                  0.64        -0.00          2.56069
              P 7  -- In 14                  0.66        -0.00          2.56108
              P 19 -- In 26                  0.66        -0.00          2.56108
              P 31 -- In 1                   0.65        -0.00          2.56180
              P 7  -- In 23                  0.66         0.00          2.56211
              P 19 -- In 24                  0.66         0.00          2.56212
              P 21 -- In 5                   0.64        -0.00          2.56238
              P 20 -- In 17                  0.64        -0.00          2.56238
              P 31 -- In 22                  0.65         0.00          2.56248
              P 30 -- In 22                  0.65        -0.00          2.56264
              P 15 -- In 6                   0.64         0.00          2.56343
              P 27 -- In 18                  0.64        -0.00          2.56343
              P 25 -- In 11                  0.66        -0.00          2.56428
              P 12 -- In 12                  0.66        -0.00          2.56428
              P 26 -- In 28                  0.64         0.00          2.56469
              P 14 -- In 15                  0.64         0.00          2.56469
              P 16 -- In 21                  0.64        -0.00          2.56603
              P 5  -- In 21                  0.64        -0.00          2.56603
              P 6  -- In 7                   0.62         0.00          2.56646
              P 18 -- In 20                  0.62         0.00          2.56646
              P 11 -- In 16                  0.65         0.00          2.56841
              P 11 -- In 27                  0.65        -0.00          2.56841
              P 17 -- In 1                   0.63        -0.00          2.56906
              P 4  -- In 1                   0.63        -0.00          2.56906
              P 11 -- In 2                   0.64        -0.00          2.56918
              P 16 -- In 18                  0.61         0.00          2.56952
              P 5  -- In 6                   0.61         0.00          2.56952
              P 1  -- In 3                   0.62         0.00          2.57065
              P 2  -- In 4                   0.62         0.00          2.57066
              P 2  -- In 19                  0.66        -0.00          2.57082
              P 1  -- In 8                   0.66         0.00          2.57083
              P 3  -- In 9                   0.62         0.00          2.57213
              P 24 -- In 32                  0.63         0.00          2.57244
              P 13 -- In 31                  0.63        -0.00          2.57244
              P 23 -- In 9                   0.62        -0.00          2.57266
              P 23 -- In 30                  0.61         0.00          2.57426
              P 22 -- In 30                  0.62         0.00          2.57450
              P 15 -- In 31                  0.63        -0.00          2.57739
              P 27 -- In 32                  0.63        -0.00          2.57739
              P 9  -- In 12                  0.63        -0.00          2.57756
              P 8  -- In 11                  0.63        -0.00          2.57756
              P 15 -- In 12                  0.61        -0.00          2.58043
              P 27 -- In 11                  0.61        -0.00          2.58044
              P 1  -- In 5                   0.60        -0.00          2.59371
              P 2  -- In 17                  0.60         0.00          2.59372
              P 8  -- In 10                  0.60        -0.00          2.60630
              P 9  -- In 10                  0.60        -0.00          2.60630
              P 13 -- In 29                  0.62        -0.00          2.60719
              P 24 -- In 29                  0.62        -0.00          2.60719
              P 3  -- In 10                  0.61        -0.00          2.61622
              P 22 -- In 29                  0.61        -0.00          2.61625
              P 10 -- In 2                   0.56        -0.00          2.65645
================================================================================

 Hirshfeld supercell size:           2           2           2
Standard grid dimensions: 240 240 240
Fine grid dimensions:     240 240 240


     Hirshfeld Analysis
     ------------------
Species   Ion     Hirshfeld Charge (e)  Spin (hbar/2)
===================================================
  P        1                -0.23        0.00
  P        2                -0.23        0.00
  P        3                -0.24        0.00
  P        4                -0.24        0.00
  P        5                -0.23        0.00
  P        6                -0.23       -0.00
  P        7                -0.24       -0.00
  P        8                -0.24        0.00
  P        9                -0.24        0.00
  P       10                -0.24       -0.00
  P       11                -0.24       -0.00
  P       12                -0.24       -0.00
  P       13                -0.24        0.00
  P       14                -0.24        0.00
  P       15                -0.24        0.00
  P       16                -0.23        0.00
  P       17                -0.24        0.00
  P       18                -0.23       -0.00
  P       19                -0.24       -0.00
  P       20                -0.24        0.00
  P       21                -0.24        0.00
  P       22                -0.24        0.00
  P       23                -0.23        0.00
  P       24                -0.24        0.00
  P       25                -0.24       -0.00
  P       26                -0.24        0.00
  P       27                -0.24        0.00
  P       28                -0.24       -0.00
  P       29                -0.24       -0.00
  P       30                -0.24        0.00
  P       31                -0.24        0.00
  In       1                 0.24        0.00
  In       2                 0.24       -0.00
  In       3                 0.23       -0.00
  In       4                 0.23       -0.00
  In       5                 0.24        0.00
  In       6                 0.24        0.00
  In       7                 0.24        0.00
  In       8                 0.21        0.00
  In       9                 0.24       -0.00
  In      10                 0.16        0.00
  In      11                 0.24       -0.00
  In      12                 0.24       -0.00
  In      13                 0.23       -0.00
  In      14                 0.23       -0.00
  In      15                 0.24        0.00
  In      16                 0.23       -0.00
  In      17                 0.24        0.00
  In      18                 0.24        0.00
  In      19                 0.21        0.00
  In      20                 0.24        0.00
  In      21                 0.23        0.00
  In      22                 0.24        0.00
  In      23                 0.23        0.00
  In      24                 0.23        0.00
  In      25                 0.23       -0.00
  In      26                 0.23       -0.00
  In      27                 0.23       -0.00
  In      28                 0.24        0.00
  In      29                 0.17        0.00
  In      30                 0.24        0.00
  In      31                 0.24        0.00
  In      32                 0.24        0.00
===================================================

 
 A BibTeX formatted list of references used in this run has been written to 
 P_Vacancy_Migration_5->3_Singlepoints_1.bib
 
Initialisation time =     30.49 s
Calculation time    =   9889.37 s
Finalisation time   =    173.84 s
Total time          =  10093.70 s
Peak Memory Use     = 9628088 kB
 
Overall parallel efficiency rating: Terrible (33%)
 
Data was distributed by:-
G-vector (3-way); efficiency rating: Poor (36%)
k-point (36-way); efficiency rating: Very good (80%)
