 +-------------------------------------------------+
 |                                                 |
 |      CCC   AA    SSS  TTTTT  EEEEE  PPPP        |
 |     C     A  A  S       T    E      P   P       |
 |     C     AAAA   SS     T    EEE    PPPP        |
 |     C     A  A     S    T    E      P           |
 |      CCC  A  A  SSS     T    EEEEE  P           |
 |                                                 |
 +-------------------------------------------------+
 |                                                 |
 | Welcome to Academic Release CASTEP version 24.1 |
 | Ab Initio Total Energy Program                  |
 |                                                 |
 | Authors:                                        |
 | M. Segall, M. Probert, C. Pickard, P. Hasnip,   |
 | S. Clark, K. Refson, J. R. Yates,               |
 | A. Bartok-Partay, M. Payne                      |
 |                                                 |
 | Contributors:                                   |
 | P. Lindan, P. Haynes, J. White, V. Milman,      |
 | N. Govind, M. Gibson, P. Tulip, V. Cocula,      |
 | B. Montanari, D. Quigley, M. Glover,            |
 | L. Bernasconi, A. Perlov, M. Plummer,           |
 | E. McNellis, J. Meyer, J. Gale, D. Jochym       |
 | J. Aarons, B. Walker, R. Gillen, D. Jones       |
 | T. Green, I. J. Bush, C. J. Armstrong,          |
 | E. J. Higgins, E. L. Brown, M. S. McFly,        |
 | J. Wilkins, B-C. Shih, P. J. P. Byrne,          |
 | R. J. Maurer, J. C. Womack, J. Dziedzic,        |
 | L. LeBlanc, T. K. Stenczel, J. Kermode,         |
 | S. Sturniolo, B. Shi, B. Durham, M. Evans,      |
 | M. J. Smith, A. Tamerus, Z. Hawkhead,           |
 | V. Ravindran, T. Hollins, S. A. Joyce,          |
 | R. T. Strong, A. M. Reilly, S. J. Donaldson     |
 |                                                 |
 | Copyright (c) 2000 - 2023                       |
 |                                                 |
 |     Distributed under license from Cambridge    |
 |     Enterprise for academic use only.           |
 |                                                 |
 | Please cite                                     |
 |                                                 |
 |     "First principles methods using CASTEP"     |
 |                                                 |
 |         Zeitschrift fuer Kristallographie       |
 |           220(5-6) pp. 567-570 (2005)           |
 |                                                 |
 | S. J. Clark, M. D. Segall, C. J. Pickard,       |
 | P. J. Hasnip, M. J. Probert, K. Refson,         |
 | M. C. Payne                                     |
 |                                                 |
 |       in all publications arising from          |
 |              your use of CASTEP                 |
 |                                                 |
 +-------------------------------------------------+
 |                                                 |
 |              http://www.castep.org              |
 |                                                 |
 +-------------------------------------------------+



 Compiled for  GNU 11.2.0 on 04-04-2024 18:39:17
 from code version 6355fd106 Castep241_branch Thu Mar 7 17:56:19 2024 +0000
 Compiler: GNU Fortran 11.2.0; Optimisation: FAST
 Comms   : MPI VERSION : CRAY MPICH version 8.1.23.14 (ANL base 3.4a2)
 MATHLIBS: default (LAPACK version 3.10.1)
 FFT Lib : fftw3 version commercial-fftw-3.3.10-sse2-avx-avx2-avx2_128
 Fundamental constants values: CODATA 2018

 Run started: Tue, 29 Jul 2025 23:10:29 +0100

 Atomic calculation performed for P: 1s2 2s2 2p6 3s2 3p3

 Converged in 47 iterations to an ae energy of -9309.074 eV

   ============================================================                
   | Pseudopotential Report - Date of generation 29-07-2025   |                
   ------------------------------------------------------------                
   | Element: P Ionic charge:  5.00 Level of theory: RSCAN    |                
   | Atomic Solver: Koelling-Harmon                           |                
   |                                                          |                
   |               Reference Electronic Structure             |                
   |         Orbital         Occupation         Energy        |                
   |            3s              2.000           -0.535        |                
   |            3p              3.000           -0.209        |                
   |                                                          |                
   |                 Pseudopotential Definition               |                
   |        Beta     l      e      Rc     scheme   norm       |                
   |          1      0   -0.535   1.807     qc      0         |                
   |          2      0    0.250   1.807     qc      0         |                
   |          3      1   -0.209   1.807     qc      0         |                
   |          4      1    0.250   1.807     qc      0         |                
   |          5      2    0.000   1.807     qc      0         |                
   |          6      2    0.250   1.807     qc      0         |                
   |         loc     3    0.000   1.807     pn      0         |                
   |                                                          |                
   | Augmentation charge Rinner = 1.263                       |                
   | Partial core correction Rc = 1.263                       |                
   ------------------------------------------------------------                
   | "3|1.8|4|4|5|30:31:32"                                   |                
   ------------------------------------------------------------                
   |      Author: Chris J. Pickard, Cambridge University      |                
   ============================================================                
 Warning: otfg_output_psp cannot write out meta-GGA pseudopotentials presently.

 Atomic calculation performed for In:
 1s2 2s2 2p6 3s2 3p6 3d10 4s2 4p6 4d10 5s2 5p1

 Converged in 84 iterations to an ae energy of -160093.328 eV

   ============================================================                
   | Pseudopotential Report - Date of generation 29-07-2025   |                
   ------------------------------------------------------------                
   | Element: In Ionic charge: 13.00 Level of theory: RSCAN   |                
   | Atomic Solver: Koelling-Harmon                           |                
   |                                                          |                
   |               Reference Electronic Structure             |                
   |         Orbital         Occupation         Energy        |                
   |            4d             10.000           -0.711        |                
   |            5s              2.000           -0.313        |                
   |            5p              1.000           -0.095        |                
   |                                                          |                
   |                 Pseudopotential Definition               |                
   |        Beta     l      e      Rc     scheme   norm       |                
   |          1      0   -0.313   2.501     qc      0         |                
   |          2      0    0.250   2.501     qc      0         |                
   |          3      1   -0.095   2.501     qc      0         |                
   |          4      1    0.250   2.501     qc      0         |                
   |          5      2   -0.711   2.207     qc      0         |                
   |          6      2    0.250   2.207     qc      0         |                
   |         loc     3    0.000   2.501     pn      0         |                
   |                                                          |                
   | Augmentation charge Rinner = 1.504                       |                
   | Partial core correction Rc = 1.504                       |                
   ------------------------------------------------------------                
   | "3|2.5|2.5|1.5|7|8|9|50:51:42U2.2U2.2"                   |                
   ------------------------------------------------------------                
   |      Author: Chris J. Pickard, Cambridge University      |                
   ============================================================                
 Warning: otfg_output_psp cannot write out meta-GGA pseudopotentials presently.

 Pseudo atomic calculation performed for P 3s2 3p3

 Converged in 23 iterations to a total energy of -208.0292 eV

 Pseudo atomic calculation performed for In 4d10 5s2 5p1

 Converged in 42 iterations to a total energy of -1747.4501 eV
 Calculation parallelised over 108 processes.
 Data is distributed by G-vector(3-way) and k-point(36-way)
 Each process may use up to 16 threads.

 ************************************ Title ************************************
 

 ***************************** General Parameters ******************************
  
 output verbosity                               : normal  (1)
 write checkpoint data to                       : P_Vacancy_Migration_5->3_Singlepoints_1.check
 type of calculation                            : single point energy
 stress calculation                             : off
 density difference calculation                 : off
 electron localisation func (ELF) calculation   : off
 Hirshfeld analysis                             : on
 polarisation (Berry phase) analysis            : off
 molecular orbital projected DOS                : off
 deltaSCF calculation                           : off
 unlimited duration calculation
 timing information                             : on
 memory usage estimate                          : on
 write extra output files                       : on
 write final potential to formatted file        : off
 write final density to formatted file          : off
 write BibTeX reference list                    : on
 write OTFG pseudopotential files               : on
 write electrostatic potential file             : on
 write bands file                               : on
 checkpoint writing                             : off
  
 output         length unit                     : A
 output           mass unit                     : amu
 output           time unit                     : ps
 output         charge unit                     : e
 output           spin unit                     : hbar/2
 output         energy unit                     : eV
 output          force unit                     : eV/A
 output       velocity unit                     : A/ps
 output       pressure unit                     : GPa
 output     inv_length unit                     : 1/A
 output      frequency unit                     : cm-1
 output force constant unit                     : eV/A**2
 output         volume unit                     : A**3
 output   IR intensity unit                     : (D/A)**2/amu
 output         dipole unit                     : D
 output         efield unit                     : eV/A/e
 output        entropy unit                     : J/mol/K
 output    efield chi2 unit                     : pm/V
  
 wavefunctions paging                           : none
 random number generator seed                   :  231030085
 data distribution                              : optimal for this architecture
 optimization strategy                          : balance speed and memory

 *********************** Exchange-Correlation Parameters ***********************
  
 using functional                               : RSCAN
 relativistic treatment                         : Koelling-Harmon
 DFT+D: Semi-empirical dispersion correction    : off

 ************************* Pseudopotential Parameters **************************
  
 pseudopotential representation                 : reciprocal space
 <beta|phi> representation                      : reciprocal space
 spin-orbit coupling                            : off

 **************************** Basis Set Parameters *****************************
  
 plane wave basis set cut-off                   :   900.0000   eV
 size of standard grid                          :     2.0000
 size of   fine   gmax                          :    30.7390   1/A
 finite basis set correction                    : none

 **************************** Electronic Parameters ****************************
  
 number of  electrons                           :  571.0    
 net charge of system                           :  0.000    
 net spin   of system                           :  1.000    
 number of  up  spins                           :  286.0    
 number of down spins                           :  285.0    
 treating system as spin-polarized
 number of bands                                :        343

 ********************* Electronic Minimization Parameters **********************
  
 Method: Treating system as metallic with density mixing treatment of electrons,
         and number of  SD  steps               :          1
         and number of  CG  steps               :          4
  
 total energy / atom convergence tol.           : 0.1000E-07   eV
 eigen-energy convergence tolerance             : 0.2203E-08   eV
 max force / atom convergence tol.              : ignored
 convergence tolerance window                   :          3   cycles
 max. number of SCF cycles                      :        100
 number of fixed-spin iterations                :         10
 smearing scheme                                : Gaussian
 smearing width                                 : 0.2000       eV
 Fermi energy convergence tolerance             : 0.2721E-13   eV
 periodic dipole correction                     : NONE

 ************************** Density Mixing Parameters **************************
  
 density-mixing scheme                          : Pulay
 max. length of mixing history                  :         20
 charge density mixing amplitude                : 0.5000    
   spin density mixing amplitude                :  2.000    
 cut-off energy for mixing                      :  900.0       eV

 *********************** Population Analysis Parameters ************************
  
 Population analysis with cutoff                :  3.000       A
 Population analysis output                     : summary and pdos components

 *******************************************************************************
  

                           -------------------------------
                                      Unit Cell
                           -------------------------------
        Real Lattice(A)                      Reciprocal Lattice(1/A)
    11.8016820    -0.0000080    -0.0000080        0.532397442   0.000000361   0.000000361
    -0.0000080    11.8016820    -0.0000080        0.000000361   0.532397442   0.000000361
    -0.0000080    -0.0000080    11.8016820        0.000000361   0.000000361   0.532397442

                       Lattice parameters(A)       Cell Angles
                    a =     11.801682          alpha =   90.000078
                    b =     11.801682          beta  =   90.000078
                    c =     11.801682          gamma =   90.000078

                       Current cell volume =          1643.734705       A**3
                                   density =             2.819410   AMU/A**3
                                           =             4.681741     g/cm^3

                           -------------------------------
                                     Cell Contents
                           -------------------------------
                         Total number of ions in cell =   63
                      Total number of species in cell =    2
                        Max number of any one species =   32

            xxxxxxxxxxxxxxxxxxxxxxxxxxxxxxxxxxxxxxxxxxxxxxxxxxxxxxxxxxxx
            x  Element    Atom        Fractional coordinates of atoms  x
            x            Number           u          v          w      x
            x----------------------------------------------------------x
            x  P            1         0.121360   0.143024   0.385003   x 
            x  P            2         0.385002   0.143024   0.121362   x 
            x  P            3         0.128084   0.376495   0.128084   x 
            x  P            4         0.126222   0.125011   0.875202   x 
            x  P            5         0.376839   0.126223   0.627787   x 
            x  P            6         0.123229   0.386547   0.633286   x 
            x  P            7         0.375498   0.382495   0.871948   x 
            x  P            8         0.132411   0.621885   0.372974   x 
            x  P            9         0.372974   0.621885   0.132411   x 
            x  P           10         0.137084   0.891891   0.137084   x 
            x  P           11         0.371647   0.887918   0.371647   x 
            x  P           12         0.124744   0.631800   0.880647   x 
            x  P           13         0.376999   0.629009   0.617129   x 
            x  P           14         0.125723   0.875443   0.625589   x 
            x  P           15         0.374651   0.871626   0.878030   x 
            x  P           16         0.627787   0.126223   0.376839   x 
            x  P           17         0.875203   0.125011   0.126222   x 
            x  P           18         0.633286   0.386548   0.123229   x 
            x  P           19         0.871949   0.382495   0.375498   x 
            x  P           20         0.624461   0.127145   0.877844   x 
            x  P           21         0.877844   0.127145   0.624460   x 
            x  P           22         0.620141   0.376259   0.620141   x 
            x  P           23         0.875074   0.376182   0.875074   x 
            x  P           24         0.617129   0.629009   0.376999   x 
            x  P           25         0.880647   0.631800   0.124744   x 
            x  P           26         0.625589   0.875443   0.125723   x 
            x  P           27         0.878030   0.871626   0.374651   x 
            x  P           28         0.626232   0.626465   0.874319   x 
            x  P           29         0.874319   0.626465   0.626232   x 
            x  P           30         0.627175   0.878799   0.627175   x 
            x  P           31         0.876406   0.879549   0.876406   x 
            x  In           1         0.004545  -0.000893   0.004545   x 
            x  In           2         0.259132   0.036446   0.259129   x 
            x  In           3        -0.005276   0.256895   0.249179   x 
            x  In           4         0.249179   0.256895  -0.005276   x 
            x  In           5         0.001116  -0.000778   0.499606   x 
            x  In           6         0.251671  -0.001413   0.751939   x 
            x  In           7         0.001105   0.251048   0.751660   x 
            x  In           8         0.250065   0.260829   0.515128   x 
            x  In           9         0.001526   0.500780   0.001526   x 
            x  In          10         0.265884   0.482327   0.265884   x 
            x  In          11         0.011597   0.753886   0.247844   x 
            x  In          12         0.247844   0.753886   0.011597   x 
            x  In          13         0.001053   0.505353   0.499093   x 
            x  In          14         0.252546   0.514319   0.751161   x 
            x  In          15        -0.001237   0.752173   0.751693   x 
            x  In          16         0.250331   0.756004   0.495141   x 
            x  In          17         0.499606  -0.000778   0.001116   x 
            x  In          18         0.751939  -0.001413   0.251671   x 
            x  In          19         0.515128   0.260828   0.250065   x 
            x  In          20         0.751660   0.251048   0.001105   x 
            x  In          21         0.501017   0.000618   0.501017   x 
            x  In          22         0.751593   0.005985   0.751593   x 
            x  In          23         0.501381   0.252613   0.751900   x 
            x  In          24         0.751900   0.252613   0.501381   x 
            x  In          25         0.499093   0.505353   0.001053   x 
            x  In          26         0.751161   0.514319   0.252546   x 
            x  In          27         0.495141   0.756004   0.250330   x 
            x  In          28         0.751693   0.752173  -0.001237   x 
            x  In          29         0.484964   0.488893   0.484964   x 
            x  In          30         0.747639   0.499047   0.747640   x 
            x  In          31         0.501707   0.750385   0.748316   x 
            x  In          32         0.748316   0.750385   0.501707   x 
            xxxxxxxxxxxxxxxxxxxxxxxxxxxxxxxxxxxxxxxxxxxxxxxxxxxxxxxxxxxx


                         No user defined ionic velocities

                           -------------------------------
                                   Details of Species
                           -------------------------------

                               Mass of species in AMU
                                    P   30.9737600
                                    In  114.8180000

                          Electric Quadrupole Moment (Barn)
                                    P    1.0000000 No Isotope Defined
                                    In    0.7700000 Isotope115

                          Files used for pseudopotentials:
                                    P 3|1.8|4|4|5|30:31:32
                                    In 3|2.5|2.5|1.5|7|8|9|50:51:42U2.2U2.2

                           -------------------------------
                              k-Points For BZ Sampling
                           -------------------------------
                       MP grid size for SCF calculation is  4  4  4
                            with an offset of   0.125  0.125  0.125
                       Number of kpoints used =            36

                           -------------------------------
                               Symmetry and Constraints
                           -------------------------------

                      Maximum deviation from symmetry =  0.00000         ANG

                      Number of symmetry operations   =           1
                      Number of ionic constraints     =           3
                      Point group of crystal =     1: C1, 1, 1
                      Space group of crystal =     8: Cm, C -2y

             Set iprint > 1 for details on symmetry rotations/translations

                         Centre of mass is constrained
             Set iprint > 1 for details of linear ionic constraints

                         Number of cell constraints= 0
                         Cell constraints are:  1 2 3 4 5 6

                         External pressure/stress (GPa)
                          0.00000   0.00000   0.00000
                                    0.00000   0.00000
                                              0.00000
 
+---------------- MEMORY AND SCRATCH DISK ESTIMATES PER PROCESS --------------+
|                                                     Memory          Disk    |
| Baseline code, static data and system overhead      368.0 MB         0.0 MB |
| BLAS internal memory storage                          0.0 MB         0.0 MB |
| Model and support data                             4302.1 MB         0.0 MB |
| Electronic energy minimisation requirements        1320.9 MB         0.0 MB |
| Force calculation requirements                      127.4 MB         0.0 MB |
|                                               ----------------------------- |
| Approx. total storage required per process         5991.0 MB         0.0 MB |
|                                                                             |
| Requirements will fluctuate during execution and may exceed these estimates |
+-----------------------------------------------------------------------------+
Calculating approximate eigenstates for fixed initial Hamiltonian
Cut-off for approx. calculation is   89.988 eV
Improving approx. states at cut-off of  450.000 eV
Resetting cut-off to  900.000 eV
Calculating total energy with cut-off of  900.000 eV.
------------------------------------------------------------------------ <-- SCF
SCF loop      Energy           Fermi           Energy gain       Timer   <-- SCF
                               energy          per atom          (sec)   <-- SCF
------------------------------------------------------------------------ <-- SCF
Initial  -6.28293430E+004  0.00000000E+000                       444.37  <-- SCF
      1  -6.25861012E+004  3.12606372E+000  -3.86098049E+000     881.99  <-- SCF
      2  -6.25863569E+004  3.12568287E+000   4.05813564E-003    1190.02  <-- SCF
      3  -6.26536127E+004  3.20819068E+000   1.06755296E+000    1530.02  <-- SCF
      4  -6.26658861E+004  3.25257962E+000   1.94815825E-001    2011.62  <-- SCF
      5  -6.26732175E+004  3.35180518E+000   1.16371008E-001    2358.56  <-- SCF
      6  -6.26622397E+004  3.53144196E+000  -1.74250116E-001    2701.95  <-- SCF
      7  -6.26609870E+004  3.57822040E+000  -1.98842061E-002    3051.39  <-- SCF
      8  -6.26608667E+004  3.59743460E+000  -1.90956669E-003    3419.71  <-- SCF
      9  -6.26616304E+004  3.60341224E+000   1.21223933E-002    3768.98  <-- SCF
     10  -6.26620595E+004  3.86452292E+000   6.81018990E-003    4116.86  <-- SCF
     11  -6.26621494E+004  3.86891442E+000   1.42707299E-003    4472.73  <-- SCF
     12  -6.26621774E+004  3.87013736E+000   4.44564836E-004    4822.01  <-- SCF
     13  -6.26621893E+004  3.87046798E+000   1.88690268E-004    5180.87  <-- SCF
     14  -6.26621941E+004  3.87105757E+000   7.71936447E-005    5543.31  <-- SCF
     15  -6.26621950E+004  3.87136747E+000   1.41274036E-005    5926.13  <-- SCF
     16  -6.26621963E+004  3.87204230E+000   1.92850215E-005    6292.32  <-- SCF
     17  -6.26621966E+004  3.87245224E+000   6.08173520E-006    6676.22  <-- SCF
     18  -6.26621970E+004  3.87299863E+000   5.50802900E-006    7037.66  <-- SCF
     19  -6.26621970E+004  3.87312169E+000   9.48995725E-007    7375.30  <-- SCF
     20  -6.26621971E+004  3.87313218E+000   2.89182616E-007    7694.17  <-- SCF
     21  -6.26621971E+004  3.87312400E+000   1.71764596E-007    8010.80  <-- SCF
     22  -6.26621971E+004  3.87312417E+000   5.38916731E-008    8290.59  <-- SCF
     23  -6.26621971E+004  3.87311273E+000   7.39060324E-008    8601.96  <-- SCF
     24  -6.26621971E+004  3.87310698E+000   1.18223725E-008    8861.90  <-- SCF
     25  -6.26621971E+004  3.87310275E+000   1.14517326E-008    9128.42  <-- SCF
     26  -6.26621971E+004  3.87310242E+000   1.69744049E-009    9385.54  <-- SCF
     27  -6.26621971E+004  3.87310579E+000   3.43141464E-010    9626.96  <-- SCF
------------------------------------------------------------------------ <-- SCF
 
Integrated Spin Density     =    0.208684E-03 hbar/2
Integrated |Spin Density|   =    0.569194E-03 hbar/2
 
Final energy, E             =  -62662.07065852     eV
Final free energy (E-TS)    =  -62662.19708054     eV
(energies not corrected for finite basis set)
 
NB est. 0K energy (E-0.5TS)      =  -62662.13386953     eV
 

 ************************** Forces **************************
 *                                                          *
 *               Cartesian components (eV/A)                *
 * -------------------------------------------------------- *
 *                         x            y            z      *
 *                                                          *
 * P               1      0.14965     -0.11700     -0.11920 *
 * P               2     -0.11897     -0.11684      0.14933 *
 * P               3      0.02610      0.03924      0.02608 *
 * P               4      0.03404      0.03459      0.03045 *
 * P               5      0.01134      0.08127     -0.05579 *
 * P               6      0.02385     -0.02809     -0.05064 *
 * P               7      0.01712     -0.01826      0.04362 *
 * P               8     -0.05797      0.07422     -0.00858 *
 * P               9     -0.00857      0.07421     -0.05799 *
 * P              10     -0.07476     -0.08335     -0.07479 *
 * P              11      0.07351     -0.13242      0.07348 *
 * P              12      0.01725      0.00569     -0.01956 *
 * P              13      0.02327     -0.02983      0.05879 *
 * P              14     -0.00396      0.04743     -0.00817 *
 * P              15      0.03267      0.08156     -0.01928 *
 * P              16     -0.05582      0.08127      0.01132 *
 * P              17      0.03043      0.03460      0.03400 *
 * P              18     -0.05069     -0.02815      0.02381 *
 * P              19      0.04356     -0.01822      0.01709 *
 * P              20     -0.00140      0.03617     -0.02008 *
 * P              21     -0.02014      0.03615     -0.00134 *
 * P              22      0.02539      0.06600      0.02540 *
 * P              23      0.01230      0.04684      0.01232 *
 * P              24      0.05878     -0.02985      0.02325 *
 * P              25     -0.01957      0.00569      0.01724 *
 * P              26     -0.00818      0.04744     -0.00397 *
 * P              27     -0.01928      0.08154      0.03267 *
 * P              28      0.01066      0.01909      0.00095 *
 * P              29      0.00094      0.01909      0.01067 *
 * P              30     -0.00035      0.02584     -0.00034 *
 * P              31      0.01198      0.01882      0.01198 *
 * In              1     -0.02108      0.08269     -0.02108 *
 * In              2     -0.21930     -0.61943     -0.21885 *
 * In              3      0.08191      0.01708      0.02846 *
 * In              4      0.02844      0.01708      0.08193 *
 * In              5      0.01719      0.06476      0.03565 *
 * In              6     -0.05917     -0.00442      0.01400 *
 * In              7      0.01008      0.00377      0.00979 *
 * In              8      0.04333      0.08966     -0.19630 *
 * In              9      0.02449      0.02476      0.02448 *
 * In             10      0.05849     -0.00287      0.05850 *
 * In             11     -0.03786     -0.00281      0.07884 *
 * In             12      0.07881     -0.00282     -0.03785 *
 * In             13     -0.01825      0.00389     -0.00873 *
 * In             14     -0.01435     -0.04783      0.03924 *
 * In             15      0.02515      0.00148     -0.01502 *
 * In             16     -0.00787     -0.03615      0.04149 *
 * In             17      0.03565      0.06479      0.01720 *
 * In             18      0.01401     -0.00443     -0.05915 *
 * In             19     -0.19628      0.08968      0.04336 *
 * In             20      0.00983      0.00377      0.01009 *
 * In             21      0.01759      0.06501      0.01759 *
 * In             22      0.01013     -0.07241      0.01007 *
 * In             23     -0.00314      0.06293     -0.01899 *
 * In             24     -0.01896      0.06294     -0.00314 *
 * In             25     -0.00873      0.00391     -0.01825 *
 * In             26      0.03929     -0.04783     -0.01427 *
 * In             27      0.04149     -0.03615     -0.00783 *
 * In             28     -0.01501      0.00147      0.02515 *
 * In             29     -0.03616     -0.15888     -0.03616 *
 * In             30     -0.01683      0.01491     -0.01685 *
 * In             31     -0.02165      0.00335     -0.00445 *
 * In             32     -0.00443      0.00336     -0.02166 *
 *                                                          *
 ************************************************************

 Pseudo atomic calculation performed for P 3s2 3p3

 Converged in 23 iterations to a total energy of -208.0292 eV

 Pseudo atomic calculation performed for In 4d10 5s2 5p1

 Converged in 42 iterations to a total energy of -1747.4501 eV
Charge spilling parameter for spin component 1 = 0.17%
Charge spilling parameter for spin component 2 = 0.17%

                   Orbital Populations                  
  ---------------------------------------------------------------
     Ion    Atom   Orbital              Up        Down      Spin
  ---------------------------------------------------------------
      P     1      S                    0.873     0.873     0.000
      P     1      Px                   0.642     0.642    -0.000
      P     1      Py                   0.655     0.655    -0.000
      P     1      Pz                   0.659     0.659     0.000
      P     2      S                    0.873     0.873     0.000
      P     2      Px                   0.659     0.659     0.000
      P     2      Py                   0.655     0.655     0.000
      P     2      Pz                   0.642     0.642    -0.000
      P     3      S                    0.873     0.873     0.000
      P     3      Px                   0.643     0.643    -0.000
      P     3      Py                   0.667     0.667     0.000
      P     3      Pz                   0.643     0.643    -0.000
      P     4      S                    0.868     0.868     0.000
      P     4      Px                   0.657     0.657    -0.000
      P     4      Py                   0.654     0.654     0.000
      P     4      Pz                   0.657     0.657    -0.000
      P     5      S                    0.872     0.872    -0.000
      P     5      Px                   0.662     0.662    -0.000
      P     5      Py                   0.645     0.645    -0.000
      P     5      Pz                   0.652     0.652     0.000
      P     6      S                    0.871     0.871     0.000
      P     6      Px                   0.648     0.648    -0.000
      P     6      Py                   0.660     0.660    -0.000
      P     6      Pz                   0.653     0.653     0.000
      P     7      S                    0.868     0.868     0.000
      P     7      Px                   0.656     0.656    -0.000
      P     7      Py                   0.653     0.653     0.000
      P     7      Pz                   0.659     0.659    -0.000
      P     8      S                    0.873     0.873     0.000
      P     8      Px                   0.647     0.647    -0.000
      P     8      Py                   0.643     0.643     0.000
      P     8      Pz                   0.664     0.664     0.000
      P     9      S                    0.873     0.873     0.000
      P     9      Px                   0.664     0.664     0.000
      P     9      Py                   0.643     0.643     0.000
      P     9      Pz                   0.647     0.647    -0.000
      P    10      S                    0.873     0.873    -0.000
      P    10      Px                   0.655     0.655    -0.000
      P    10      Py                   0.648     0.648     0.000
      P    10      Pz                   0.655     0.655    -0.000
      P    11      S                    0.869     0.869     0.000
      P    11      Px                   0.658     0.658    -0.000
      P    11      Py                   0.650     0.650     0.000
      P    11      Pz                   0.658     0.658    -0.000
      P    12      S                    0.869     0.869     0.000
      P    12      Px                   0.656     0.656    -0.000
      P    12      Py                   0.657     0.657     0.000
      P    12      Pz                   0.653     0.653     0.000
      P    13      S                    0.873     0.873     0.000
      P    13      Px                   0.663     0.663    -0.000
      P    13      Py                   0.647     0.647     0.000
      P    13      Pz                   0.643     0.643    -0.000
      P    14      S                    0.868     0.868    -0.000
      P    14      Px                   0.656     0.656     0.000
      P    14      Py                   0.658     0.658    -0.000
      P    14      Pz                   0.654     0.654    -0.000
      P    15      S                    0.873     0.873     0.000
      P    15      Px                   0.660     0.660    -0.000
      P    15      Py                   0.651     0.651    -0.000
      P    15      Pz                   0.647     0.647     0.000
      P    16      S                    0.872     0.872    -0.000
      P    16      Px                   0.652     0.652    -0.000
      P    16      Py                   0.645     0.645    -0.000
      P    16      Pz                   0.662     0.662     0.000
      P    17      S                    0.868     0.868     0.000
      P    17      Px                   0.657     0.657    -0.000
      P    17      Py                   0.654     0.654     0.000
      P    17      Pz                   0.657     0.657    -0.000
      P    18      S                    0.871     0.871    -0.000
      P    18      Px                   0.653     0.653     0.000
      P    18      Py                   0.660     0.660    -0.000
      P    18      Pz                   0.648     0.648    -0.000
      P    19      S                    0.868     0.868     0.000
      P    19      Px                   0.659     0.659     0.000
      P    19      Py                   0.653     0.653     0.000
      P    19      Pz                   0.656     0.656    -0.000
      P    20      S                    0.868     0.868     0.000
      P    20      Px                   0.655     0.655    -0.000
      P    20      Py                   0.657     0.657     0.000
      P    20      Pz                   0.656     0.656    -0.000
      P    21      S                    0.868     0.868     0.000
      P    21      Px                   0.656     0.656    -0.000
      P    21      Py                   0.657     0.657     0.000
      P    21      Pz                   0.655     0.655    -0.000
      P    22      S                    0.873     0.873    -0.000
      P    22      Px                   0.644     0.644    -0.000
      P    22      Py                   0.664     0.664     0.000
      P    22      Pz                   0.644     0.644    -0.000
      P    23      S                    0.872     0.872     0.000
      P    23      Px                   0.650     0.650    -0.000
      P    23      Py                   0.660     0.660     0.000
      P    23      Pz                   0.650     0.650    -0.000
      P    24      S                    0.873     0.873     0.000
      P    24      Px                   0.643     0.643    -0.000
      P    24      Py                   0.647     0.647     0.000
      P    24      Pz                   0.663     0.663    -0.000
      P    25      S                    0.869     0.869     0.000
      P    25      Px                   0.653     0.653    -0.000
      P    25      Py                   0.657     0.657     0.000
      P    25      Pz                   0.656     0.656    -0.000
      P    26      S                    0.868     0.868    -0.000
      P    26      Px                   0.654     0.654    -0.000
      P    26      Py                   0.658     0.658    -0.000
      P    26      Pz                   0.656     0.656     0.000
      P    27      S                    0.873     0.873    -0.000
      P    27      Px                   0.647     0.647     0.000
      P    27      Py                   0.651     0.651    -0.000
      P    27      Pz                   0.660     0.660    -0.000
      P    28      S                    0.868     0.868     0.000
      P    28      Px                   0.656     0.656     0.000
      P    28      Py                   0.656     0.656    -0.000
      P    28      Pz                   0.655     0.655    -0.000
      P    29      S                    0.868     0.868     0.000
      P    29      Px                   0.655     0.655    -0.000
      P    29      Py                   0.656     0.656     0.000
      P    29      Pz                   0.656     0.656    -0.000
      P    30      S                    0.868     0.868     0.000
      P    30      Px                   0.656     0.656     0.000
      P    30      Py                   0.655     0.655     0.000
      P    30      Pz                   0.656     0.656    -0.000
      P    31      S                    0.868     0.868     0.000
      P    31      Px                   0.656     0.656    -0.000
      P    31      Py                   0.656     0.656     0.000
      P    31      Pz                   0.656     0.656    -0.000
     In     1      Dzz                  1.000     1.000     0.000
     In     1      Dzy                  0.999     0.999     0.000
     In     1      Dzx                  0.998     0.998    -0.000
     In     1      Dxx-yy               1.000     1.000    -0.000
     In     1      Dxy                  0.999     0.999    -0.000
     In     1      S                    0.706     0.706     0.000
     In     1      Px                   0.242     0.242     0.000
     In     1      Py                   0.237     0.237    -0.000
     In     1      Pz                   0.242     0.242     0.000
     In     1      S                   -0.250    -0.250    -0.000
     In     2      Dzz                  1.000     1.000    -0.000
     In     2      Dzy                  0.999     0.999     0.000
     In     2      Dzx                  0.998     0.998     0.000
     In     2      Dxx-yy               1.000     1.000     0.000
     In     2      Dxy                  0.999     0.999     0.000
     In     2      S                    0.709     0.709     0.000
     In     2      Px                   0.237     0.237    -0.000
     In     2      Py                   0.238     0.238    -0.000
     In     2      Pz                   0.237     0.237     0.000
     In     2      S                   -0.250    -0.250    -0.000
     In     3      Dzz                  1.000     1.000    -0.000
     In     3      Dzy                  0.998     0.998    -0.000
     In     3      Dzx                  0.998     0.998     0.000
     In     3      Dxx-yy               1.000     1.000    -0.000
     In     3      Dxy                  0.999     0.999     0.000
     In     3      S                    0.709     0.709     0.000
     In     3      Px                   0.240     0.240    -0.000
     In     3      Py                   0.238     0.238    -0.000
     In     3      Pz                   0.243     0.243     0.000
     In     3      S                   -0.249    -0.249    -0.000
     In     4      Dzz                  1.000     1.000    -0.000
     In     4      Dzy                  0.999     0.999     0.000
     In     4      Dzx                  0.998     0.998     0.000
     In     4      Dxx-yy               1.000     1.000    -0.000
     In     4      Dxy                  0.998     0.998     0.000
     In     4      S                    0.709     0.709     0.000
     In     4      Px                   0.243     0.243    -0.000
     In     4      Py                   0.238     0.238    -0.000
     In     4      Pz                   0.240     0.240     0.000
     In     4      S                   -0.249    -0.249    -0.000
     In     5      Dzz                  1.000     1.000     0.000
     In     5      Dzy                  0.998     0.998    -0.000
     In     5      Dzx                  0.999     0.999     0.000
     In     5      Dxx-yy               1.000     1.000    -0.000
     In     5      Dxy                  0.999     0.999     0.000
     In     5      S                    0.711     0.711     0.000
     In     5      Px                   0.238     0.238    -0.000
     In     5      Py                   0.241     0.241    -0.000
     In     5      Pz                   0.238     0.238     0.000
     In     5      S                   -0.251    -0.251     0.000
     In     6      Dzz                  1.000     1.000    -0.000
     In     6      Dzy                  0.999     0.999     0.000
     In     6      Dzx                  0.998     0.998     0.000
     In     6      Dxx-yy               1.000     1.000    -0.000
     In     6      Dxy                  0.998     0.998     0.000
     In     6      S                    0.711     0.711     0.000
     In     6      Px                   0.241     0.241     0.000
     In     6      Py                   0.240     0.240    -0.000
     In     6      Pz                   0.239     0.239     0.000
     In     6      S                   -0.252    -0.252     0.000
     In     7      Dzz                  1.000     1.000    -0.000
     In     7      Dzy                  0.998     0.998    -0.000
     In     7      Dzx                  0.999     0.999     0.000
     In     7      Dxx-yy               1.000     1.000    -0.000
     In     7      Dxy                  0.998     0.998     0.000
     In     7      S                    0.710     0.710     0.000
     In     7      Px                   0.239     0.239    -0.000
     In     7      Py                   0.245     0.245     0.000
     In     7      Pz                   0.238     0.238    -0.000
     In     7      S                   -0.255    -0.255     0.000
     In     8      Dzz                  1.000     1.000    -0.000
     In     8      Dzy                  0.999     0.999    -0.000
     In     8      Dzx                  0.999     0.999    -0.000
     In     8      Dxx-yy               1.000     1.000    -0.000
     In     8      Dxy                  0.999     0.999     0.000
     In     8      S                    0.727     0.727     0.000
     In     8      Px                   0.241     0.241     0.000
     In     8      Py                   0.243     0.243     0.000
     In     8      Pz                   0.231     0.231     0.000
     In     8      S                   -0.237    -0.237    -0.000
     In     9      Dzz                  1.000     1.000     0.000
     In     9      Dzy                  0.998     0.998    -0.000
     In     9      Dzx                  0.999     0.999     0.000
     In     9      Dxx-yy               1.000     1.000    -0.000
     In     9      Dxy                  0.998     0.998    -0.000
     In     9      S                    0.712     0.712     0.000
     In     9      Px                   0.239     0.239    -0.000
     In     9      Py                   0.241     0.241    -0.000
     In     9      Pz                   0.239     0.239    -0.000
     In     9      S                   -0.247    -0.247     0.000
     In    10      Dzz                  1.000     1.000     0.000
     In    10      Dzy                  0.999     0.999     0.000
     In    10      Dzx                  0.999     0.999    -0.000
     In    10      Dxx-yy               1.000     1.000     0.000
     In    10      Dxy                  0.999     0.999    -0.000
     In    10      S                    0.729     0.729     0.000
     In    10      Px                   0.243     0.243     0.000
     In    10      Py                   0.243     0.243     0.000
     In    10      Pz                   0.243     0.243    -0.000
     In    10      S                   -0.225    -0.225     0.000
     In    11      Dzz                  1.000     1.000     0.000
     In    11      Dzy                  0.999     0.999    -0.000
     In    11      Dzx                  0.999     0.999    -0.000
     In    11      Dxx-yy               1.000     1.000    -0.000
     In    11      Dxy                  0.999     0.999     0.000
     In    11      S                    0.708     0.708     0.000
     In    11      Px                   0.241     0.241    -0.000
     In    11      Py                   0.242     0.242    -0.000
     In    11      Pz                   0.236     0.236     0.000
     In    11      S                   -0.247    -0.247     0.000
     In    12      Dzz                  1.000     1.000    -0.000
     In    12      Dzy                  0.999     0.999     0.000
     In    12      Dzx                  0.999     0.999     0.000
     In    12      Dxx-yy               1.000     1.000     0.000
     In    12      Dxy                  0.999     0.999    -0.000
     In    12      S                    0.708     0.708     0.000
     In    12      Px                   0.236     0.236    -0.000
     In    12      Py                   0.242     0.242    -0.000
     In    12      Pz                   0.241     0.241    -0.000
     In    12      S                   -0.247    -0.247     0.000
     In    13      Dzz                  1.000     1.000    -0.000
     In    13      Dzy                  0.999     0.999     0.000
     In    13      Dzx                  0.998     0.998     0.000
     In    13      Dxx-yy               1.000     1.000    -0.000
     In    13      Dxy                  0.999     0.999     0.000
     In    13      S                    0.708     0.708     0.000
     In    13      Px                   0.240     0.240    -0.000
     In    13      Py                   0.238     0.238    -0.000
     In    13      Pz                   0.241     0.241    -0.000
     In    13      S                   -0.250    -0.250     0.000
     In    14      Dzz                  1.000     1.000     0.000
     In    14      Dzy                  0.999     0.999     0.000
     In    14      Dzx                  0.998     0.998     0.000
     In    14      Dxx-yy               1.000     1.000    -0.000
     In    14      Dxy                  0.999     0.999     0.000
     In    14      S                    0.707     0.707    -0.000
     In    14      Px                   0.241     0.241     0.000
     In    14      Py                   0.240     0.240    -0.000
     In    14      Pz                   0.239     0.239    -0.000
     In    14      S                   -0.249    -0.249    -0.000
     In    15      Dzz                  1.000     1.000    -0.000
     In    15      Dzy                  0.998     0.998    -0.000
     In    15      Dzx                  0.998     0.998     0.000
     In    15      Dxx-yy               1.000     1.000    -0.000
     In    15      Dxy                  0.999     0.999    -0.000
     In    15      S                    0.708     0.708     0.000
     In    15      Px                   0.240     0.240    -0.000
     In    15      Py                   0.239     0.239     0.000
     In    15      Pz                   0.241     0.241    -0.000
     In    15      S                   -0.256    -0.256    -0.000
     In    16      Dzz                  1.000     1.000     0.000
     In    16      Dzy                  0.998     0.998     0.000
     In    16      Dzx                  0.999     0.999    -0.000
     In    16      Dxx-yy               1.000     1.000    -0.000
     In    16      Dxy                  0.998     0.998     0.000
     In    16      S                    0.707     0.707     0.000
     In    16      Px                   0.238     0.238     0.000
     In    16      Py                   0.242     0.242    -0.000
     In    16      Pz                   0.241     0.241    -0.000
     In    16      S                   -0.246    -0.246    -0.000
     In    17      Dzz                  1.000     1.000     0.000
     In    17      Dzy                  0.999     0.999     0.000
     In    17      Dzx                  0.999     0.999     0.000
     In    17      Dxx-yy               1.000     1.000     0.000
     In    17      Dxy                  0.998     0.998    -0.000
     In    17      S                    0.711     0.711     0.000
     In    17      Px                   0.238     0.238     0.000
     In    17      Py                   0.241     0.241    -0.000
     In    17      Pz                   0.238     0.238    -0.000
     In    17      S                   -0.251    -0.251     0.000
     In    18      Dzz                  1.000     1.000    -0.000
     In    18      Dzy                  0.998     0.998     0.000
     In    18      Dzx                  0.998     0.998     0.000
     In    18      Dxx-yy               1.000     1.000     0.000
     In    18      Dxy                  0.999     0.999     0.000
     In    18      S                    0.711     0.711     0.000
     In    18      Px                   0.239     0.239    -0.000
     In    18      Py                   0.240     0.240    -0.000
     In    18      Pz                   0.241     0.241     0.000
     In    18      S                   -0.252    -0.252     0.000
     In    19      Dzz                  1.000     1.000    -0.000
     In    19      Dzy                  0.999     0.999     0.000
     In    19      Dzx                  0.999     0.999    -0.000
     In    19      Dxx-yy               1.000     1.000    -0.000
     In    19      Dxy                  0.999     0.999    -0.000
     In    19      S                    0.727     0.727     0.000
     In    19      Px                   0.231     0.231     0.000
     In    19      Py                   0.243     0.243     0.000
     In    19      Pz                   0.241     0.241     0.000
     In    19      S                   -0.237    -0.237    -0.000
     In    20      Dzz                  1.000     1.000    -0.000
     In    20      Dzy                  0.998     0.998     0.000
     In    20      Dzx                  0.999     0.999     0.000
     In    20      Dxx-yy               1.000     1.000     0.000
     In    20      Dxy                  0.998     0.998     0.000
     In    20      S                    0.710     0.710     0.000
     In    20      Px                   0.238     0.238    -0.000
     In    20      Py                   0.245     0.245     0.000
     In    20      Pz                   0.239     0.239     0.000
     In    20      S                   -0.255    -0.255     0.000
     In    21      Dzz                  1.000     1.000    -0.000
     In    21      Dzy                  0.999     0.999     0.000
     In    21      Dzx                  0.998     0.998     0.000
     In    21      Dxx-yy               1.000     1.000     0.000
     In    21      Dxy                  0.999     0.999     0.000
     In    21      S                    0.710     0.710     0.000
     In    21      Px                   0.241     0.241     0.000
     In    21      Py                   0.239     0.239    -0.000
     In    21      Pz                   0.241     0.241     0.000
     In    21      S                   -0.256    -0.256     0.000
     In    22      Dzz                  1.000     1.000    -0.000
     In    22      Dzy                  0.999     0.999     0.000
     In    22      Dzx                  0.998     0.998     0.000
     In    22      Dxx-yy               1.000     1.000    -0.000
     In    22      Dxy                  0.999     0.999     0.000
     In    22      S                    0.708     0.708     0.000
     In    22      Px                   0.241     0.241     0.000
     In    22      Py                   0.239     0.239     0.000
     In    22      Pz                   0.241     0.241     0.000
     In    22      S                   -0.251    -0.251    -0.000
     In    23      Dzz                  1.000     1.000     0.000
     In    23      Dzy                  0.998     0.998     0.000
     In    23      Dzx                  0.999     0.999     0.000
     In    23      Dxx-yy               1.000     1.000    -0.000
     In    23      Dxy                  0.999     0.999     0.000
     In    23      S                    0.709     0.709    -0.000
     In    23      Px                   0.240     0.240     0.000
     In    23      Py                   0.242     0.242     0.000
     In    23      Pz                   0.239     0.239     0.000
     In    23      S                   -0.250    -0.250    -0.000
     In    24      Dzz                  1.000     1.000    -0.000
     In    24      Dzy                  0.999     0.999     0.000
     In    24      Dzx                  0.999     0.999     0.000
     In    24      Dxx-yy               1.000     1.000    -0.000
     In    24      Dxy                  0.998     0.998     0.000
     In    24      S                    0.709     0.709    -0.000
     In    24      Px                   0.239     0.239     0.000
     In    24      Py                   0.242     0.242    -0.000
     In    24      Pz                   0.240     0.240     0.000
     In    24      S                   -0.250    -0.250    -0.000
     In    25      Dzz                  1.000     1.000     0.000
     In    25      Dzy                  0.999     0.999     0.000
     In    25      Dzx                  0.998     0.998     0.000
     In    25      Dxx-yy               1.000     1.000    -0.000
     In    25      Dxy                  0.999     0.999     0.000
     In    25      S                    0.708     0.708     0.000
     In    25      Px                   0.241     0.241    -0.000
     In    25      Py                   0.238     0.238    -0.000
     In    25      Pz                   0.240     0.240     0.000
     In    25      S                   -0.250    -0.250     0.000
     In    26      Dzz                  1.000     1.000    -0.000
     In    26      Dzy                  0.999     0.999    -0.000
     In    26      Dzx                  0.998     0.998     0.000
     In    26      Dxx-yy               1.000     1.000    -0.000
     In    26      Dxy                  0.999     0.999    -0.000
     In    26      S                    0.707     0.707    -0.000
     In    26      Px                   0.239     0.239    -0.000
     In    26      Py                   0.240     0.240    -0.000
     In    26      Pz                   0.241     0.241    -0.000
     In    26      S                   -0.249    -0.249    -0.000
     In    27      Dzz                  1.000     1.000     0.000
     In    27      Dzy                  0.998     0.998     0.000
     In    27      Dzx                  0.999     0.999    -0.000
     In    27      Dxx-yy               1.000     1.000     0.000
     In    27      Dxy                  0.998     0.998     0.000
     In    27      S                    0.707     0.707    -0.000
     In    27      Px                   0.241     0.241    -0.000
     In    27      Py                   0.242     0.242    -0.000
     In    27      Pz                   0.238     0.238     0.000
     In    27      S                   -0.246    -0.246    -0.000
     In    28      Dzz                  1.000     1.000    -0.000
     In    28      Dzy                  0.999     0.999    -0.000
     In    28      Dzx                  0.998     0.998     0.000
     In    28      Dxx-yy               1.000     1.000    -0.000
     In    28      Dxy                  0.998     0.998    -0.000
     In    28      S                    0.708     0.708    -0.000
     In    28      Px                   0.241     0.241    -0.000
     In    28      Py                   0.239     0.239    -0.000
     In    28      Pz                   0.240     0.240     0.000
     In    28      S                   -0.256    -0.256    -0.000
     In    29      Dzz                  1.000     1.000    -0.000
     In    29      Dzy                  0.999     0.999     0.000
     In    29      Dzx                  0.999     0.999    -0.000
     In    29      Dxx-yy               1.000     1.000    -0.000
     In    29      Dxy                  0.999     0.999     0.000
     In    29      S                    0.721     0.721     0.000
     In    29      Px                   0.244     0.244    -0.000
     In    29      Py                   0.251     0.251    -0.000
     In    29      Pz                   0.244     0.244    -0.000
     In    29      S                   -0.226    -0.226    -0.000
     In    30      Dzz                  1.000     1.000    -0.000
     In    30      Dzy                  0.999     0.999     0.000
     In    30      Dzx                  0.999     0.999     0.000
     In    30      Dxx-yy               1.000     1.000    -0.000
     In    30      Dxy                  0.999     0.999     0.000
     In    30      S                    0.712     0.712     0.000
     In    30      Px                   0.239     0.239    -0.000
     In    30      Py                   0.240     0.240    -0.000
     In    30      Pz                   0.239     0.239    -0.000
     In    30      S                   -0.247    -0.247     0.000
     In    31      Dzz                  1.000     1.000     0.000
     In    31      Dzy                  0.999     0.999     0.000
     In    31      Dzx                  0.998     0.998     0.000
     In    31      Dxx-yy               1.000     1.000    -0.000
     In    31      Dxy                  0.999     0.999     0.000
     In    31      S                    0.710     0.710     0.000
     In    31      Px                   0.240     0.240     0.000
     In    31      Py                   0.238     0.238    -0.000
     In    31      Pz                   0.241     0.241    -0.000
     In    31      S                   -0.251    -0.251    -0.000
     In    32      Dzz                  1.000     1.000    -0.000
     In    32      Dzy                  0.999     0.999     0.000
     In    32      Dzx                  0.998     0.998    -0.000
     In    32      Dxx-yy               1.000     1.000     0.000
     In    32      Dxy                  0.999     0.999     0.000
     In    32      S                    0.710     0.710     0.000
     In    32      Px                   0.241     0.241    -0.000
     In    32      Py                   0.238     0.238    -0.000
     In    32      Pz                   0.240     0.240     0.000
     In    32      S                   -0.251    -0.251     0.000
  ---------------------------------------------------------------
                           Total:     285.500   285.500     0.000
  ---------------------------------------------------------------

     Atomic Populations (Mulliken)
     -----------------------------
Species          Ion Spin      s       p       d       f      Total   Charge(e)   Spin(hbar/2)
==============================================================================================
  P               1   up:     0.873   1.956   0.000   0.000   2.829    -0.658       -0.000
                  1   dn:     0.873   1.956   0.000   0.000   2.829
  P               2   up:     0.873   1.956   0.000   0.000   2.829    -0.658       -0.000
                  2   dn:     0.873   1.956   0.000   0.000   2.829
  P               3   up:     0.873   1.953   0.000   0.000   2.827    -0.653       -0.000
                  3   dn:     0.873   1.953   0.000   0.000   2.827
  P               4   up:     0.868   1.967   0.000   0.000   2.836    -0.671       -0.000
                  4   dn:     0.868   1.967   0.000   0.000   2.836
  P               5   up:     0.872   1.959   0.000   0.000   2.831    -0.661       -0.000
                  5   dn:     0.872   1.959   0.000   0.000   2.831
  P               6   up:     0.871   1.961   0.000   0.000   2.831    -0.663       -0.000
                  6   dn:     0.871   1.961   0.000   0.000   2.831
  P               7   up:     0.868   1.968   0.000   0.000   2.836    -0.672        0.000
                  7   dn:     0.868   1.968   0.000   0.000   2.836
  P               8   up:     0.873   1.954   0.000   0.000   2.827    -0.654        0.000
                  8   dn:     0.873   1.954   0.000   0.000   2.827
  P               9   up:     0.873   1.954   0.000   0.000   2.827    -0.654        0.000
                  9   dn:     0.873   1.954   0.000   0.000   2.827
  P              10   up:     0.873   1.957   0.000   0.000   2.830    -0.661       -0.000
                 10   dn:     0.873   1.957   0.000   0.000   2.830
  P              11   up:     0.869   1.966   0.000   0.000   2.835    -0.670        0.000
                 11   dn:     0.869   1.966   0.000   0.000   2.835
  P              12   up:     0.869   1.966   0.000   0.000   2.835    -0.669        0.000
                 12   dn:     0.869   1.966   0.000   0.000   2.835
  P              13   up:     0.873   1.954   0.000   0.000   2.827    -0.653       -0.000
                 13   dn:     0.873   1.954   0.000   0.000   2.827
  P              14   up:     0.868   1.968   0.000   0.000   2.836    -0.672       -0.000
                 14   dn:     0.868   1.968   0.000   0.000   2.836
  P              15   up:     0.873   1.958   0.000   0.000   2.831    -0.662        0.000
                 15   dn:     0.873   1.958   0.000   0.000   2.831
  P              16   up:     0.872   1.959   0.000   0.000   2.831    -0.661       -0.000
                 16   dn:     0.872   1.959   0.000   0.000   2.831
  P              17   up:     0.868   1.967   0.000   0.000   2.836    -0.671       -0.000
                 17   dn:     0.868   1.967   0.000   0.000   2.836
  P              18   up:     0.871   1.961   0.000   0.000   2.831    -0.663       -0.000
                 18   dn:     0.871   1.961   0.000   0.000   2.831
  P              19   up:     0.868   1.968   0.000   0.000   2.836    -0.672        0.000
                 19   dn:     0.868   1.968   0.000   0.000   2.836
  P              20   up:     0.868   1.968   0.000   0.000   2.836    -0.672        0.000
                 20   dn:     0.868   1.968   0.000   0.000   2.836
  P              21   up:     0.868   1.968   0.000   0.000   2.836    -0.672        0.000
                 21   dn:     0.868   1.968   0.000   0.000   2.836
  P              22   up:     0.873   1.952   0.000   0.000   2.826    -0.651       -0.000
                 22   dn:     0.873   1.952   0.000   0.000   2.826
  P              23   up:     0.872   1.959   0.000   0.000   2.831    -0.663       -0.000
                 23   dn:     0.872   1.959   0.000   0.000   2.831
  P              24   up:     0.873   1.954   0.000   0.000   2.827    -0.653       -0.000
                 24   dn:     0.873   1.954   0.000   0.000   2.827
  P              25   up:     0.869   1.966   0.000   0.000   2.835    -0.669       -0.000
                 25   dn:     0.869   1.966   0.000   0.000   2.835
  P              26   up:     0.868   1.968   0.000   0.000   2.836    -0.672       -0.000
                 26   dn:     0.868   1.968   0.000   0.000   2.836
  P              27   up:     0.873   1.958   0.000   0.000   2.831    -0.662       -0.000
                 27   dn:     0.873   1.958   0.000   0.000   2.831
  P              28   up:     0.868   1.968   0.000   0.000   2.836    -0.672       -0.000
                 28   dn:     0.868   1.968   0.000   0.000   2.836
  P              29   up:     0.868   1.968   0.000   0.000   2.836    -0.672       -0.000
                 29   dn:     0.868   1.968   0.000   0.000   2.836
  P              30   up:     0.868   1.968   0.000   0.000   2.836    -0.672        0.000
                 30   dn:     0.868   1.968   0.000   0.000   2.836
  P              31   up:     0.868   1.968   0.000   0.000   2.836    -0.672       -0.000
                 31   dn:     0.868   1.968   0.000   0.000   2.836
  In              1   up:     0.456   0.721   4.995   0.000   6.172     0.657        0.000
                  1   dn:     0.456   0.721   4.995   0.000   6.172
  In              2   up:     0.459   0.713   4.995   0.000   6.166     0.668        0.000
                  2   dn:     0.459   0.713   4.995   0.000   6.166
  In              3   up:     0.459   0.720   4.995   0.000   6.174     0.651       -0.000
                  3   dn:     0.459   0.720   4.995   0.000   6.174
  In              4   up:     0.459   0.720   4.995   0.000   6.174     0.651       -0.000
                  4   dn:     0.459   0.720   4.995   0.000   6.174
  In              5   up:     0.459   0.717   4.995   0.000   6.171     0.658        0.000
                  5   dn:     0.459   0.717   4.995   0.000   6.171
  In              6   up:     0.458   0.720   4.995   0.000   6.173     0.655        0.000
                  6   dn:     0.458   0.720   4.995   0.000   6.173
  In              7   up:     0.455   0.722   4.995   0.000   6.171     0.657        0.000
                  7   dn:     0.455   0.722   4.995   0.000   6.171
  In              8   up:     0.491   0.716   4.995   0.000   6.202     0.596        0.000
                  8   dn:     0.491   0.716   4.995   0.000   6.202
  In              9   up:     0.465   0.719   4.995   0.000   6.179     0.643        0.000
                  9   dn:     0.465   0.719   4.995   0.000   6.179
  In             10   up:     0.504   0.729   4.996   0.000   6.229     0.543        0.000
                 10   dn:     0.504   0.729   4.996   0.000   6.229
  In             11   up:     0.461   0.719   4.995   0.000   6.175     0.651        0.000
                 11   dn:     0.461   0.719   4.995   0.000   6.175
  In             12   up:     0.461   0.719   4.995   0.000   6.175     0.651        0.000
                 12   dn:     0.461   0.719   4.995   0.000   6.175
  In             13   up:     0.459   0.719   4.995   0.000   6.173     0.655        0.000
                 13   dn:     0.459   0.719   4.995   0.000   6.173
  In             14   up:     0.458   0.720   4.995   0.000   6.173     0.654       -0.000
                 14   dn:     0.458   0.720   4.995   0.000   6.173
  In             15   up:     0.452   0.720   4.995   0.000   6.167     0.666       -0.000
                 15   dn:     0.452   0.720   4.995   0.000   6.167
  In             16   up:     0.461   0.721   4.995   0.000   6.177     0.646       -0.000
                 16   dn:     0.461   0.721   4.995   0.000   6.177
  In             17   up:     0.459   0.717   4.995   0.000   6.171     0.658        0.000
                 17   dn:     0.459   0.717   4.995   0.000   6.171
  In             18   up:     0.458   0.720   4.995   0.000   6.173     0.655        0.000
                 18   dn:     0.458   0.720   4.995   0.000   6.173
  In             19   up:     0.491   0.716   4.995   0.000   6.202     0.596        0.000
                 19   dn:     0.491   0.716   4.995   0.000   6.202
  In             20   up:     0.455   0.722   4.995   0.000   6.172     0.657        0.000
                 20   dn:     0.455   0.721   4.995   0.000   6.171
  In             21   up:     0.454   0.722   4.995   0.000   6.171     0.658        0.000
                 21   dn:     0.454   0.722   4.995   0.000   6.171
  In             22   up:     0.457   0.720   4.995   0.000   6.172     0.657        0.000
                 22   dn:     0.457   0.720   4.995   0.000   6.172
  In             23   up:     0.459   0.721   4.995   0.000   6.175     0.650       -0.000
                 23   dn:     0.459   0.721   4.995   0.000   6.175
  In             24   up:     0.459   0.721   4.995   0.000   6.175     0.650       -0.000
                 24   dn:     0.459   0.721   4.995   0.000   6.175
  In             25   up:     0.459   0.719   4.995   0.000   6.173     0.655        0.000
                 25   dn:     0.459   0.719   4.995   0.000   6.173
  In             26   up:     0.458   0.720   4.995   0.000   6.173     0.654       -0.000
                 26   dn:     0.458   0.720   4.995   0.000   6.173
  In             27   up:     0.461   0.721   4.995   0.000   6.177     0.646       -0.000
                 27   dn:     0.461   0.721   4.995   0.000   6.177
  In             28   up:     0.452   0.720   4.995   0.000   6.167     0.666       -0.000
                 28   dn:     0.452   0.720   4.995   0.000   6.167
  In             29   up:     0.494   0.739   4.996   0.000   6.229     0.542       -0.000
                 29   dn:     0.494   0.739   4.996   0.000   6.229
  In             30   up:     0.465   0.718   4.995   0.000   6.178     0.644        0.000
                 30   dn:     0.465   0.718   4.995   0.000   6.178
  In             31   up:     0.459   0.719   4.995   0.000   6.173     0.654        0.000
                 31   dn:     0.459   0.719   4.995   0.000   6.173
  In             32   up:     0.459   0.719   4.995   0.000   6.173     0.654        0.000
                 32   dn:     0.459   0.719   4.995   0.000   6.173
==============================================================================================

                 Bond                   Population        Spin       Length (A)
================================================================================
              P 6  -- In 8                   0.69        -0.00          2.52716
              P 18 -- In 19                  0.69        -0.00          2.52716
              P 11 -- In 21                  0.67         0.00          2.53598
              P 2  -- In 2                   0.68         0.00          2.53619
              P 1  -- In 2                   0.68         0.00          2.53624
              P 13 -- In 14                  0.67        -0.00          2.54782
              P 24 -- In 26                  0.67        -0.00          2.54782
              P 10 -- In 1                   0.68         0.00          2.54842
              P 30 -- In 21                  0.66         0.00          2.54958
              P 14 -- In 5                   0.67         0.00          2.55090
              P 26 -- In 17                  0.67         0.00          2.55090
              P 20 -- In 20                  0.67         0.00          2.55105
              P 21 -- In 7                   0.67        -0.00          2.55105
              P 28 -- In 31                  0.67         0.00          2.55145
              P 29 -- In 32                  0.67         0.00          2.55145
              P 8  -- In 13                  0.67         0.00          2.55146
              P 9  -- In 25                  0.67         0.00          2.55146
              P 31 -- In 28                  0.65        -0.00          2.55171
              P 31 -- In 15                  0.65        -0.00          2.55171
              P 22 -- In 24                  0.65        -0.00          2.55180
              P 22 -- In 23                  0.65        -0.00          2.55180
              P 20 -- In 23                  0.66         0.00          2.55181
              P 21 -- In 24                  0.66         0.00          2.55181
              P 3  -- In 3                   0.65         0.00          2.55181
              P 3  -- In 4                   0.65         0.00          2.55181
              P 23 -- In 7                   0.65         0.00          2.55237
              P 23 -- In 20                  0.65        -0.00          2.55237
              P 20 -- In 22                  0.65        -0.00          2.55259
              P 21 -- In 22                  0.65        -0.00          2.55259
              P 17 -- In 3                   0.66        -0.00          2.55302
              P 4  -- In 4                   0.66        -0.00          2.55302
              P 4  -- In 7                   0.66         0.00          2.55316
              P 17 -- In 20                  0.66         0.00          2.55316
              P 19 -- In 3                   0.66        -0.00          2.55325
              P 7  -- In 4                   0.66        -0.00          2.55325
              P 26 -- In 27                  0.65         0.00          2.55335
              P 14 -- In 16                  0.65         0.00          2.55335
              P 9  -- In 27                  0.66         0.00          2.55358
              P 8  -- In 16                  0.66         0.00          2.55358
              P 5  -- In 8                   0.68         0.00          2.55534
              P 16 -- In 19                  0.68         0.00          2.55534
              P 16 -- In 24                  0.63         0.00          2.55553
              P 5  -- In 23                  0.63         0.00          2.55553
              P 29 -- In 13                  0.65        -0.00          2.55566
              P 28 -- In 25                  0.65         0.00          2.55566
              P 25 -- In 26                  0.65        -0.00          2.55587
              P 12 -- In 14                  0.65        -0.00          2.55587
              P 30 -- In 32                  0.65         0.00          2.55602
              P 30 -- In 31                  0.65        -0.00          2.55603
              P 17 -- In 18                  0.66        -0.00          2.55621
              P 4  -- In 6                   0.66        -0.00          2.55621
              P 18 -- In 26                  0.64        -0.00          2.55698
              P 6  -- In 14                  0.64        -0.00          2.55699
              P 25 -- In 9                   0.65         0.00          2.55747
              P 12 -- In 9                   0.65        -0.00          2.55747
              P 12 -- In 15                  0.65         0.00          2.55827
              P 25 -- In 28                  0.65         0.00          2.55827
              P 26 -- In 18                  0.66        -0.00          2.55831
              P 14 -- In 6                   0.66        -0.00          2.55831
              P 28 -- In 30                  0.65        -0.00          2.55917
              P 29 -- In 30                  0.65        -0.00          2.55917
              P 29 -- In 15                  0.66        -0.00          2.55933
              P 28 -- In 28                  0.66        -0.00          2.55933
              P 19 -- In 13                  0.66         0.00          2.55958
              P 7  -- In 25                  0.66         0.00          2.55958
              P 15 -- In 17                  0.64        -0.00          2.55976
              P 27 -- In 5                   0.64        -0.00          2.55976
              P 6  -- In 13                  0.63         0.00          2.55989
              P 18 -- In 25                  0.63         0.00          2.55990
              P 13 -- In 16                  0.64         0.00          2.56001
              P 24 -- In 27                  0.64         0.00          2.56001
              P 10 -- In 11                  0.67         0.00          2.56018
              P 10 -- In 12                  0.67         0.00          2.56018
              P 7  -- In 14                  0.66         0.00          2.56084
              P 19 -- In 26                  0.66         0.00          2.56084
              P 7  -- In 23                  0.66        -0.00          2.56201
              P 19 -- In 24                  0.66        -0.00          2.56201
              P 31 -- In 1                   0.65         0.00          2.56217
              P 30 -- In 22                  0.65        -0.00          2.56224
              P 15 -- In 6                   0.64         0.00          2.56241
              P 27 -- In 18                  0.64         0.00          2.56241
              P 31 -- In 22                  0.65         0.00          2.56242
              P 21 -- In 5                   0.64         0.00          2.56259
              P 20 -- In 17                  0.64         0.00          2.56259
              P 25 -- In 11                  0.66        -0.00          2.56415
              P 12 -- In 12                  0.66         0.00          2.56416
              P 26 -- In 28                  0.64        -0.00          2.56443
              P 14 -- In 15                  0.64        -0.00          2.56443
              P 5  -- In 21                  0.64        -0.00          2.56581
              P 16 -- In 21                  0.64        -0.00          2.56581
              P 6  -- In 7                   0.61        -0.00          2.56634
              P 18 -- In 20                  0.61        -0.00          2.56634
              P 11 -- In 16                  0.65        -0.00          2.56859
              P 11 -- In 27                  0.65         0.00          2.56859
              P 16 -- In 18                  0.61         0.00          2.56864
              P 5  -- In 6                   0.61         0.00          2.56864
              P 2  -- In 19                  0.66        -0.00          2.56873
              P 1  -- In 8                   0.66         0.00          2.56874
              P 11 -- In 2                   0.64         0.00          2.56888
              P 4  -- In 1                   0.63        -0.00          2.56904
              P 17 -- In 1                   0.63        -0.00          2.56904
              P 1  -- In 3                   0.62         0.00          2.57080
              P 2  -- In 4                   0.62         0.00          2.57081
              P 3  -- In 9                   0.62        -0.00          2.57159
              P 24 -- In 32                  0.63         0.00          2.57196
              P 13 -- In 31                  0.63         0.00          2.57196
              P 23 -- In 9                   0.61         0.00          2.57224
              P 23 -- In 30                  0.61         0.00          2.57414
              P 22 -- In 30                  0.62        -0.00          2.57451
              P 15 -- In 31                  0.63         0.00          2.57667
              P 27 -- In 32                  0.63         0.00          2.57667
              P 9  -- In 12                  0.63         0.00          2.57693
              P 8  -- In 11                  0.63         0.00          2.57693
              P 15 -- In 12                  0.61         0.00          2.57977
              P 27 -- In 11                  0.61         0.00          2.57977
              P 1  -- In 5                   0.60        -0.00          2.59293
              P 2  -- In 17                  0.60        -0.00          2.59294
              P 13 -- In 29                  0.62        -0.00          2.60591
              P 24 -- In 29                  0.62        -0.00          2.60591
              P 9  -- In 10                  0.60         0.00          2.60600
              P 8  -- In 10                  0.60        -0.00          2.60600
              P 3  -- In 10                  0.60         0.00          2.61716
              P 22 -- In 29                  0.61         0.00          2.61859
              P 10 -- In 2                   0.56        -0.00          2.65699
================================================================================

 Hirshfeld supercell size:           2           2           2
Standard grid dimensions: 240 240 240
Fine grid dimensions:     240 240 240


     Hirshfeld Analysis
     ------------------
Species   Ion     Hirshfeld Charge (e)  Spin (hbar/2)
===================================================
  P        1                -0.23        0.00
  P        2                -0.23        0.00
  P        3                -0.24        0.00
  P        4                -0.24        0.00
  P        5                -0.23        0.00
  P        6                -0.23       -0.00
  P        7                -0.24       -0.00
  P        8                -0.24        0.00
  P        9                -0.24        0.00
  P       10                -0.24       -0.00
  P       11                -0.24       -0.00
  P       12                -0.24       -0.00
  P       13                -0.24        0.00
  P       14                -0.24        0.00
  P       15                -0.24        0.00
  P       16                -0.23        0.00
  P       17                -0.24        0.00
  P       18                -0.23       -0.00
  P       19                -0.24       -0.00
  P       20                -0.24        0.00
  P       21                -0.24        0.00
  P       22                -0.24        0.00
  P       23                -0.23        0.00
  P       24                -0.24        0.00
  P       25                -0.24       -0.00
  P       26                -0.24        0.00
  P       27                -0.24        0.00
  P       28                -0.24       -0.00
  P       29                -0.24       -0.00
  P       30                -0.24        0.00
  P       31                -0.24        0.00
  In       1                 0.24        0.00
  In       2                 0.24       -0.00
  In       3                 0.23       -0.00
  In       4                 0.23       -0.00
  In       5                 0.24        0.00
  In       6                 0.24        0.00
  In       7                 0.24        0.00
  In       8                 0.21        0.00
  In       9                 0.24       -0.00
  In      10                 0.16        0.00
  In      11                 0.24       -0.00
  In      12                 0.24       -0.00
  In      13                 0.24       -0.00
  In      14                 0.23       -0.00
  In      15                 0.24        0.00
  In      16                 0.23       -0.00
  In      17                 0.24        0.00
  In      18                 0.24        0.00
  In      19                 0.21        0.00
  In      20                 0.24        0.00
  In      21                 0.23        0.00
  In      22                 0.24        0.00
  In      23                 0.23        0.00
  In      24                 0.23        0.00
  In      25                 0.24       -0.00
  In      26                 0.23       -0.00
  In      27                 0.23       -0.00
  In      28                 0.24        0.00
  In      29                 0.16        0.00
  In      30                 0.24       -0.00
  In      31                 0.24        0.00
  In      32                 0.24        0.00
===================================================

 
 A BibTeX formatted list of references used in this run has been written to 
 P_Vacancy_Migration_5->3_Singlepoints_1.bib
 
Initialisation time =     30.25 s
Calculation time    =   9889.72 s
Finalisation time   =    153.55 s
Total time          =  10073.52 s
Peak Memory Use     = 9576512 kB
 
Overall parallel efficiency rating: Terrible (32%)
 
Data was distributed by:-
G-vector (3-way); efficiency rating: Poor (35%)
k-point (36-way); efficiency rating: Good (79%)
