 +-------------------------------------------------+
 |                                                 |
 |      CCC   AA    SSS  TTTTT  EEEEE  PPPP        |
 |     C     A  A  S       T    E      P   P       |
 |     C     AAAA   SS     T    EEE    PPPP        |
 |     C     A  A     S    T    E      P           |
 |      CCC  A  A  SSS     T    EEEEE  P           |
 |                                                 |
 +-------------------------------------------------+
 |                                                 |
 | Welcome to Academic Release CASTEP version 24.1 |
 | Ab Initio Total Energy Program                  |
 |                                                 |
 | Authors:                                        |
 | M. Segall, M. Probert, C. Pickard, P. Hasnip,   |
 | S. Clark, K. Refson, J. R. Yates,               |
 | A. Bartok-Partay, M. Payne                      |
 |                                                 |
 | Contributors:                                   |
 | P. Lindan, P. Haynes, J. White, V. Milman,      |
 | N. Govind, M. Gibson, P. Tulip, V. Cocula,      |
 | B. Montanari, D. Quigley, M. Glover,            |
 | L. Bernasconi, A. Perlov, M. Plummer,           |
 | E. McNellis, J. Meyer, J. Gale, D. Jochym       |
 | J. Aarons, B. Walker, R. Gillen, D. Jones       |
 | T. Green, I. J. Bush, C. J. Armstrong,          |
 | E. J. Higgins, E. L. Brown, M. S. McFly,        |
 | J. Wilkins, B-C. Shih, P. J. P. Byrne,          |
 | R. J. Maurer, J. C. Womack, J. Dziedzic,        |
 | L. LeBlanc, T. K. Stenczel, J. Kermode,         |
 | S. Sturniolo, B. Shi, B. Durham, M. Evans,      |
 | M. J. Smith, A. Tamerus, Z. Hawkhead,           |
 | V. Ravindran, T. Hollins, S. A. Joyce,          |
 | R. T. Strong, A. M. Reilly, S. J. Donaldson     |
 |                                                 |
 | Copyright (c) 2000 - 2023                       |
 |                                                 |
 |     Distributed under license from Cambridge    |
 |     Enterprise for academic use only.           |
 |                                                 |
 | Please cite                                     |
 |                                                 |
 |     "First principles methods using CASTEP"     |
 |                                                 |
 |         Zeitschrift fuer Kristallographie       |
 |           220(5-6) pp. 567-570 (2005)           |
 |                                                 |
 | S. J. Clark, M. D. Segall, C. J. Pickard,       |
 | P. J. Hasnip, M. J. Probert, K. Refson,         |
 | M. C. Payne                                     |
 |                                                 |
 |       in all publications arising from          |
 |              your use of CASTEP                 |
 |                                                 |
 +-------------------------------------------------+
 |                                                 |
 |              http://www.castep.org              |
 |                                                 |
 +-------------------------------------------------+



 Compiled for  GNU 11.2.0 on 04-04-2024 18:39:17
 from code version 6355fd106 Castep241_branch Thu Mar 7 17:56:19 2024 +0000
 Compiler: GNU Fortran 11.2.0; Optimisation: FAST
 Comms   : MPI VERSION : CRAY MPICH version 8.1.23.14 (ANL base 3.4a2)
 MATHLIBS: default (LAPACK version 3.10.1)
 FFT Lib : fftw3 version commercial-fftw-3.3.10-sse2-avx-avx2-avx2_128
 Fundamental constants values: CODATA 2018

 Run started: Fri, 17 Jan 2025 05:27:47 +0000

 Atomic calculation performed for P: 1s2 2s2 2p6 3s2 3p3

 Converged in 47 iterations to an ae energy of -9309.074 eV

   ============================================================                
   | Pseudopotential Report - Date of generation 17-01-2025   |                
   ------------------------------------------------------------                
   | Element: P Ionic charge:  5.00 Level of theory: RSCAN    |                
   | Atomic Solver: Koelling-Harmon                           |                
   |                                                          |                
   |               Reference Electronic Structure             |                
   |         Orbital         Occupation         Energy        |                
   |            3s              2.000           -0.535        |                
   |            3p              3.000           -0.209        |                
   |                                                          |                
   |                 Pseudopotential Definition               |                
   |        Beta     l      e      Rc     scheme   norm       |                
   |          1      0   -0.535   1.807     qc      0         |                
   |          2      0    0.250   1.807     qc      0         |                
   |          3      1   -0.209   1.807     qc      0         |                
   |          4      1    0.250   1.807     qc      0         |                
   |          5      2    0.000   1.807     qc      0         |                
   |          6      2    0.250   1.807     qc      0         |                
   |         loc     3    0.000   1.807     pn      0         |                
   |                                                          |                
   | Augmentation charge Rinner = 1.263                       |                
   | Partial core correction Rc = 1.263                       |                
   ------------------------------------------------------------                
   | "3|1.8|4|4|5|30:31:32"                                   |                
   ------------------------------------------------------------                
   |      Author: Chris J. Pickard, Cambridge University      |                
   ============================================================                
 Warning: otfg_output_psp cannot write out meta-GGA pseudopotentials presently.

 Atomic calculation performed for In:
 1s2 2s2 2p6 3s2 3p6 3d10 4s2 4p6 4d10 5s2 5p1

 Converged in 84 iterations to an ae energy of -160093.328 eV

   ============================================================                
   | Pseudopotential Report - Date of generation 17-01-2025   |                
   ------------------------------------------------------------                
   | Element: In Ionic charge: 13.00 Level of theory: RSCAN   |                
   | Atomic Solver: Koelling-Harmon                           |                
   |                                                          |                
   |               Reference Electronic Structure             |                
   |         Orbital         Occupation         Energy        |                
   |            4d             10.000           -0.711        |                
   |            5s              2.000           -0.313        |                
   |            5p              1.000           -0.095        |                
   |                                                          |                
   |                 Pseudopotential Definition               |                
   |        Beta     l      e      Rc     scheme   norm       |                
   |          1      0   -0.313   2.501     qc      0         |                
   |          2      0    0.250   2.501     qc      0         |                
   |          3      1   -0.095   2.501     qc      0         |                
   |          4      1    0.250   2.501     qc      0         |                
   |          5      2   -0.711   2.207     qc      0         |                
   |          6      2    0.250   2.207     qc      0         |                
   |         loc     3    0.000   2.501     pn      0         |                
   |                                                          |                
   | Augmentation charge Rinner = 1.504                       |                
   | Partial core correction Rc = 1.504                       |                
   ------------------------------------------------------------                
   | "3|2.5|2.5|1.5|7|8|9|50:51:42U2.2U2.2"                   |                
   ------------------------------------------------------------                
   |      Author: Chris J. Pickard, Cambridge University      |                
   ============================================================                
 Warning: otfg_output_psp cannot write out meta-GGA pseudopotentials presently.

 Pseudo atomic calculation performed for P 3s2 3p3

 Converged in 23 iterations to a total energy of -208.0292 eV

 Pseudo atomic calculation performed for In 4d10 5s2 5p1

 Converged in 42 iterations to a total energy of -1747.4501 eV
 Calculation parallelised over 75 processes.
 Data is distributed by G-vector(3-way) and k-point(25-way)
 Each process may use up to 16 threads.

 ************************************ Title ************************************
 

 ***************************** General Parameters ******************************
  
 output verbosity                               : normal  (1)
 write checkpoint data to                       : StackingFaultStructs_111_11-2_9.check
 type of calculation                            : geometry optimization
 stress calculation                             : off
 density difference calculation                 : off
 electron localisation func (ELF) calculation   : off
 Hirshfeld analysis                             : on
 polarisation (Berry phase) analysis            : off
 molecular orbital projected DOS                : off
 deltaSCF calculation                           : off
 unlimited duration calculation
 timing information                             : on
 memory usage estimate                          : on
 write extra output files                       : on
 write final potential to formatted file        : off
 write final density to formatted file          : off
 write BibTeX reference list                    : on
 write OTFG pseudopotential files               : on
 write electrostatic potential file             : on
 write bands file                               : on
 checkpoint writing                             : off
  
 output         length unit                     : A
 output           mass unit                     : amu
 output           time unit                     : ps
 output         charge unit                     : e
 output           spin unit                     : hbar/2
 output         energy unit                     : eV
 output          force unit                     : eV/A
 output       velocity unit                     : A/ps
 output       pressure unit                     : GPa
 output     inv_length unit                     : 1/A
 output      frequency unit                     : cm-1
 output force constant unit                     : eV/A**2
 output         volume unit                     : A**3
 output   IR intensity unit                     : (D/A)**2/amu
 output         dipole unit                     : D
 output         efield unit                     : eV/A/e
 output        entropy unit                     : J/mol/K
 output    efield chi2 unit                     : pm/V
  
 wavefunctions paging                           : none
 random number generator seed                   :   52747741
 data distribution                              : optimal for this architecture
 optimization strategy                          : balance speed and memory

 *********************** Exchange-Correlation Parameters ***********************
  
 using functional                               : RSCAN
 relativistic treatment                         : Koelling-Harmon
 DFT+D: Semi-empirical dispersion correction    : off

 ************************* Pseudopotential Parameters **************************
  
 pseudopotential representation                 : reciprocal space
 <beta|phi> representation                      : reciprocal space
 spin-orbit coupling                            : off

 **************************** Basis Set Parameters *****************************
  
 plane wave basis set cut-off                   :   900.0000   eV
 size of standard grid                          :     2.0000
 size of   fine   gmax                          :    30.7390   1/A
 finite basis set correction                    : none

 **************************** Electronic Parameters ****************************
  
 number of  electrons                           :  108.0    
 net charge of system                           :  0.000    
 treating system as non-spin-polarized
 number of bands                                :         65

 ********************* Electronic Minimization Parameters **********************
  
 Method: Treating system as metallic with density mixing treatment of electrons,
         and number of  SD  steps               :          1
         and number of  CG  steps               :          4
  
 total energy / atom convergence tol.           : 0.1000E-07   eV
 eigen-energy convergence tolerance             : 0.2222E-08   eV
 max force / atom convergence tol.              : ignored
 convergence tolerance window                   :          3   cycles
 max. number of SCF cycles                      :         50
 number of fixed-spin iterations                :         10
 smearing scheme                                : Gaussian
 smearing width                                 : 0.2000       eV
 Fermi energy convergence tolerance             : 0.2721E-13   eV
 periodic dipole correction                     : NONE

 ************************** Density Mixing Parameters **************************
  
 density-mixing scheme                          : Pulay
 max. length of mixing history                  :         15
 charge density mixing amplitude                : 0.5000    
 cut-off energy for mixing                      :  900.0       eV

 *********************** Population Analysis Parameters ************************
  
 Population analysis with cutoff                :  3.000       A
 Population analysis output                     : summary and pdos components

 ********************** Geometry Optimization Parameters ***********************
  
 optimization method                            : LBFGS
 max. no. of LBFGS updates                      : unbounded
 preconditioned LBFGS is activated
 preconditioner type                            : EXP
     stabilization constant                     :     0.1000
     parameter A                                :     3.0000
     nearest neighbor distance                  : automatic
     cut-off distance                           : automatic
     parameter mu                               : automatic
 variable cell method                           : fixed basis quality
 max. number of steps                           :         30
 estimated bulk modulus                         :  500.0       GPa
 estimated <frequency>                          :  1668.       cm-1
 geom line minimiser                            : on
 with line minimiser tolerance                  :     0.4000
 total energy convergence tolerance             : 0.2000E-04   eV/atom
        max ionic |force| tolerance             : 0.1000E-02   eV/A
 max ionic |displacement| tolerance             : 0.1000E-02   A
   max |stress component| tolerance             : 0.1000       GPa
 convergence tolerance window                   :          2   steps
 backup results every                           :          5   steps
 write geom trajectory file                     : on

 *******************************************************************************
  

                           -------------------------------
                                      Unit Cell
                           -------------------------------
        Real Lattice(A)                      Reciprocal Lattice(1/A)
     4.1728310     0.0000000     0.0000000        1.505736826   0.000000000   0.000000000
     0.0000000     7.2275550     0.0000000        0.000000000   0.869337599  -0.407248360
     0.0000000     4.7882550    10.2213060        0.000000000   0.000000000   0.614714529

                       Lattice parameters(A)       Cell Angles
                    a =      4.172831          alpha =   64.898872
                    b =      7.227555          beta  =   90.000000
                    c =     11.287271          gamma =   90.000000

                       Current cell volume =           308.268104       A**3
                                   density =             2.837629   AMU/A**3
                                           =             4.711994     g/cm^3

                           -------------------------------
                                     Cell Contents
                           -------------------------------
                         Total number of ions in cell =   12
                      Total number of species in cell =    2
                        Max number of any one species =    6

            xxxxxxxxxxxxxxxxxxxxxxxxxxxxxxxxxxxxxxxxxxxxxxxxxxxxxxxxxxxx
            x  Element    Atom        Fractional coordinates of atoms  x
            x            Number           u          v          w      x
            x----------------------------------------------------------x
            x  P            1         0.000000   0.274635   0.088602   x 
            x  P            2         0.500000   0.774635   0.088602   x 
            x  P            3         0.000000   0.393815   0.411851   x 
            x  P            4         0.500000  -0.106185   0.411851   x 
            x  P            5         0.000000  -0.494142   0.745874   x 
            x  P            6         0.500000   0.005858   0.745874   x 
            x  In           1         0.500000   0.494882   0.007725   x 
            x  In           2         0.000000  -0.005118   0.007725   x 
            x  In           3         0.000000   0.109849   0.337334   x 
            x  In           4         0.500000   0.609849   0.337334   x 
            x  In           5         0.500000  -0.269665   0.658613   x 
            x  In           6         0.000000   0.230335   0.658613   x 
            xxxxxxxxxxxxxxxxxxxxxxxxxxxxxxxxxxxxxxxxxxxxxxxxxxxxxxxxxxxx


                         No user defined ionic velocities

                           -------------------------------
                                   Details of Species
                           -------------------------------

                               Mass of species in AMU
                                    P   30.9737600
                                    In  114.8180000

                          Electric Quadrupole Moment (Barn)
                                    P    1.0000000 No Isotope Defined
                                    In    0.7700000 Isotope115

                          Files used for pseudopotentials:
                                    P 3|1.8|4|4|5|30:31:32
                                    In 3|2.5|2.5|1.5|7|8|9|50:51:42U2.2U2.2

                           -------------------------------
                              k-Points For BZ Sampling
                           -------------------------------
                       MP grid size for SCF calculation is  8  6  4
                            with an offset of   0.062  0.083  0.125
                       Number of kpoints used =           100

                           -------------------------------
                               Symmetry and Constraints
                           -------------------------------

                      Cell is a supercell containing 2 primitive cells
                      Maximum deviation from symmetry =  0.00000         ANG

                      Number of symmetry operations   =           1
                      Number of ionic constraints     =          24
                      Point group of crystal =     1: C1, 1, 1
                      Space group of crystal =     8: Cm, C -2y

             Set iprint > 1 for details on symmetry rotations/translations

                         Centre of mass is NOT constrained
             Set iprint > 1 for details of linear ionic constraints

                         Number of cell constraints= 6
                         Cell constraints are:  0 0 0 0 0 0

                         External pressure/stress (GPa)
                          0.00000   0.00000   0.00000
                                    0.00000   0.00000
                                              0.00000
 
+---------------- MEMORY AND SCRATCH DISK ESTIMATES PER PROCESS --------------+
|                                                     Memory          Disk    |
| Baseline code, static data and system overhead      368.0 MB         0.0 MB |
| BLAS internal memory storage                          0.0 MB         0.0 MB |
| Model and support data                              933.9 MB         0.0 MB |
| Electronic energy minimisation requirements          98.4 MB         0.0 MB |
| Force calculation requirements                       18.8 MB         0.0 MB |
|                                               ----------------------------- |
| Approx. total storage required per process         1400.4 MB         0.0 MB |
|                                                                             |
| Requirements will fluctuate during execution and may exceed these estimates |
+-----------------------------------------------------------------------------+
Calculating approximate eigenstates for fixed initial Hamiltonian
Cut-off for approx. calculation is  131.752 eV
Improving approx. states at cut-off of  450.000 eV
Resetting cut-off to  900.000 eV
Calculating total energy with cut-off of  900.000 eV.
------------------------------------------------------------------------ <-- SCF
SCF loop      Energy           Fermi           Energy gain       Timer   <-- SCF
                               energy          per atom          (sec)   <-- SCF
------------------------------------------------------------------------ <-- SCF
Initial  -1.18164383E+004  0.00000000E+000                        46.38  <-- SCF
      1  -1.17733113E+004  2.70961916E+000  -3.59391844E+000      69.40  <-- SCF
      2  -1.17733217E+004  2.70955430E+000   8.71336374E-004      89.79  <-- SCF
      3  -1.17857122E+004  3.05731896E+000   1.03253922E+000     113.68  <-- SCF
      4  -1.17879192E+004  3.11273357E+000   1.83917860E-001     141.06  <-- SCF
      5  -1.17863436E+004  3.37437860E+000  -1.31298888E-001     164.76  <-- SCF
      6  -1.17867915E+004  3.42249698E+000   3.73228953E-002     188.89  <-- SCF
      7  -1.17865129E+004  3.48180219E+000  -2.32167726E-002     213.58  <-- SCF
      8  -1.17869826E+004  3.49928696E+000   3.91394347E-002     237.25  <-- SCF
      9  -1.17870002E+004  3.46429030E+000   1.46792537E-003     260.28  <-- SCF
     10  -1.17869996E+004  3.45480604E+000  -4.98268387E-005     285.84  <-- SCF
     11  -1.17870001E+004  3.45346091E+000   4.38256036E-005     312.79  <-- SCF
     12  -1.17870013E+004  3.45117010E+000   9.55297395E-005     338.70  <-- SCF
     13  -1.17870012E+004  3.45329446E+000  -2.55741621E-006     367.59  <-- SCF
     14  -1.17870013E+004  3.45301708E+000   4.21731423E-007     390.95  <-- SCF
     15  -1.17870013E+004  3.45296508E+000   1.84692186E-007     415.13  <-- SCF
     16  -1.17870013E+004  3.45284035E+000   1.25599204E-009     435.73  <-- SCF
     17  -1.17870013E+004  3.45285697E+000  -2.60195559E-009     455.75  <-- SCF
------------------------------------------------------------------------ <-- SCF
 
Final energy, E             =  -11786.98724953     eV
Final free energy (E-TS)    =  -11787.00125542     eV
(energies not corrected for finite basis set)
 
NB est. 0K energy (E-0.5TS)      =  -11786.99425248     eV
 
 
+---------------- MEMORY AND SCRATCH DISK ESTIMATES PER PROCESS --------------+
|                                                     Memory          Disk    |
| Model and support data                              597.7 MB         0.0 MB |
| Electronic energy minimisation requirements          98.4 MB         0.0 MB |
| Geometry minimisation requirements                  125.9 MB         0.0 MB |
|                                               ----------------------------- |
| Approx. total storage required per process          822.1 MB         0.0 MB |
|                                                                             |
| Requirements will fluctuate during execution and may exceed these estimates |
+-----------------------------------------------------------------------------+
 

 ******************************** Constrained Forces ********************************
 *                                                                                  *
 *                           Cartesian components (eV/A)                            *
 * -------------------------------------------------------------------------------- *
 *                         x                    y                    z              *
 *                                                                                  *
 * P               1      0.00000(cons'd)      0.00000(cons'd)     -0.17738         *
 * P               2     -0.00000(cons'd)      0.00000(cons'd)     -0.17903         *
 * P               3      0.00000(cons'd)      0.00000(cons'd)     -0.19057         *
 * P               4      0.00000(cons'd)      0.00000(cons'd)     -0.18904         *
 * P               5      0.00000(cons'd)      0.00000(cons'd)      0.18904         *
 * P               6     -0.00000(cons'd)      0.00000(cons'd)      0.18968         *
 * In              1      0.00000(cons'd)      0.00000(cons'd)     -0.34248         *
 * In              2      0.00000(cons'd)      0.00000(cons'd)     -0.34249         *
 * In              3      0.00000(cons'd)      0.00000(cons'd)      0.12404         *
 * In              4      0.00000(cons'd)      0.00000(cons'd)      0.12408         *
 * In              5      0.00000(cons'd)      0.00000(cons'd)      0.39708         *
 * In              6      0.00000(cons'd)      0.00000(cons'd)      0.39707         *
 *                                                                                  *
 ************************************************************************************
 EXP precond LBFGS => estimated nearest neighbor distance :  2.569       A
 EXP precond LBFGS => estimated cutoff distance :  5.138       A

 ************************************** Forces **************************************
 *                                                                                  *
 *                           Cartesian components (eV/A)                            *
 * -------------------------------------------------------------------------------- *
 *                         x                    y                    z              *
 *                                                                                  *
 * P               1     -0.00000(cons'd)     -0.00480(cons'd)     -0.17738         *
 * P               2      0.00000(cons'd)     -0.00524(cons'd)     -0.17903         *
 * P               3     -0.00000(cons'd)     -0.00101(cons'd)     -0.19057         *
 * P               4      0.00001(cons'd)      0.00104(cons'd)     -0.18904         *
 * P               5     -0.00000(cons'd)      0.03149(cons'd)      0.18904         *
 * P               6      0.00000(cons'd)      0.03443(cons'd)      0.18968         *
 * In              1      0.00000(cons'd)     -0.02136(cons'd)     -0.34248         *
 * In              2     -0.00000(cons'd)     -0.02135(cons'd)     -0.34249         *
 * In              3     -0.00000(cons'd)     -0.00785(cons'd)      0.12404         *
 * In              4      0.00000(cons'd)     -0.00787(cons'd)      0.12408         *
 * In              5      0.00000(cons'd)      0.00125(cons'd)      0.39708         *
 * In              6     -0.00000(cons'd)      0.00128(cons'd)      0.39707         *
 *                                                                                  *
 ************************************************************************************
 doing test perturbation to get energy scale for EXP preconditioner

                           -------------------------------
                                     Cell Contents
                           -------------------------------

            xxxxxxxxxxxxxxxxxxxxxxxxxxxxxxxxxxxxxxxxxxxxxxxxxxxxxxxxxxxxxxxxx
            x  Element         Atom        Fractional coordinates of atoms  x
            x                 Number           u          v          w      x
            x---------------------------------------------------------------x
            x  P                 1         0.000000   0.275819   0.088903   x
            x  P                 2         0.505180   0.777426   0.088903   x
            x  P                 3         0.000000   0.395484   0.413182   x
            x  P                 4         0.505180   0.896436   0.413182   x
            x  P                 5         0.000000   0.507761   0.748003   x
            x  P                 6         0.505180   0.006455   0.748003   x
            x  In                1         0.505180   0.496872   0.007752   x
            x  In                2         0.000000   0.998177   0.007752   x
            x  In                3         0.000000   0.110499   0.338444   x
            x  In                4         0.505180   0.612105   0.338444   x
            x  In                5         0.505180   0.732542   0.660570   x
            x  In                6         0.000000   0.231589   0.660570   x
            xxxxxxxxxxxxxxxxxxxxxxxxxxxxxxxxxxxxxxxxxxxxxxxxxxxxxxxxxxxxxxxxx


------------------------------------------------------------------------ <-- SCF
SCF loop      Energy           Fermi           Energy gain       Timer   <-- SCF
                               energy          per atom          (sec)   <-- SCF
------------------------------------------------------------------------ <-- SCF
Initial  -1.17860416E+004  0.00000000E+000                       470.39  <-- SCF
      1  -1.17869214E+004  3.45397974E+000   7.33179039E-002     491.14  <-- SCF
      2  -1.17870066E+004  3.45386479E+000   7.09851852E-003     518.67  <-- SCF
      3  -1.17870072E+004  3.45355955E+000   5.51757090E-005     542.57  <-- SCF
      4  -1.17870078E+004  3.45373745E+000   4.77298780E-005     567.09  <-- SCF
      5  -1.17870079E+004  3.45393215E+000   7.04879283E-006     592.97  <-- SCF
      6  -1.17870079E+004  3.45400472E+000   1.15851409E-006     616.96  <-- SCF
      7  -1.17870079E+004  3.45403315E+000   8.27855237E-008     637.83  <-- SCF
      8  -1.17870079E+004  3.45406236E+000  -3.05194207E-009     657.00  <-- SCF
      9  -1.17870079E+004  3.45406695E+000   5.35962120E-010     672.87  <-- SCF
------------------------------------------------------------------------ <-- SCF
 
Final energy, E             =  -11786.99412335     eV
Final free energy (E-TS)    =  -11787.00789888     eV
(energies not corrected for finite basis set)
 
NB est. 0K energy (E-0.5TS)      =  -11787.00101111     eV
 

 ************************************** Forces **************************************
 *                                                                                  *
 *                           Cartesian components (eV/A)                            *
 * -------------------------------------------------------------------------------- *
 *                         x                    y                    z              *
 *                                                                                  *
 * P               1      0.19138(cons'd)      0.09141(cons'd)     -0.08362         *
 * P               2     -0.18930(cons'd)     -0.05408(cons'd)     -0.12345         *
 * P               3      0.20639(cons'd)     -0.02803(cons'd)     -0.17091         *
 * P               4     -0.21279(cons'd)     -0.08604(cons'd)     -0.12723         *
 * P               5      0.13835(cons'd)      0.00535(cons'd)      0.15724         *
 * P               6     -0.13647(cons'd)      0.10069(cons'd)      0.17256         *
 * In              1     -0.14909(cons'd)      0.01307(cons'd)     -0.30675         *
 * In              2      0.14802(cons'd)     -0.10878(cons'd)     -0.32606         *
 * In              3      0.17942(cons'd)      0.09730(cons'd)      0.06167         *
 * In              4     -0.17351(cons'd)     -0.00354(cons'd)      0.08941         *
 * In              5     -0.12806(cons'd)     -0.04293(cons'd)      0.31776         *
 * In              6      0.12567(cons'd)      0.01557(cons'd)      0.33938         *
 *                                                                                  *
 ************************************************************************************
 EXP precond LBFGS => estimated parameter mu :  3.332       eV/A**2
 LBFGS: finished iteration     0 with enthalpy= -1.17870013E+004 eV
  
 +-----------+-----------------+-----------------+------------+-----+ <-- LBFGS
 | Parameter |      value      |    tolerance    |    units   | OK? | <-- LBFGS
 +-----------+-----------------+-----------------+------------+-----+ <-- LBFGS
 |  dE/ion   |   0.000000E+000 |   2.000000E-005 |         eV | No  | <-- LBFGS
 |  |F|max   |   3.742456E-001 |   1.000000E-003 |       eV/A | No  | <-- LBFGS
 |  |dR|max  |   9.681274E-016 |   1.000000E-003 |          A | No  | <-- LBFGS
 +-----------+-----------------+-----------------+------------+-----+ <-- LBFGS
  

================================================================================
 Starting LBFGS iteration          1 ...
================================================================================
  
 +------------+-------------+-------------+-----------------+ <-- min LBFGS
 |    Step    |   lambda    |   F.delta'  |    enthalpy     | <-- min LBFGS
 +------------+-------------+-------------+-----------------+ <-- min LBFGS
 |  previous  |    0.000000 |    0.259658 |   -11787.001255 | <-- min LBFGS
 +------------+-------------+-------------+-----------------+ <-- min LBFGS
  

--------------------------------------------------------------------------------
 LBFGS: starting iteration         1 with trial guess (lambda=  1.000000)
--------------------------------------------------------------------------------

                           -------------------------------
                                     Cell Contents
                           -------------------------------

            xxxxxxxxxxxxxxxxxxxxxxxxxxxxxxxxxxxxxxxxxxxxxxxxxxxxxxxxxxxxxxxxx
            x  Element         Atom        Fractional coordinates of atoms  x
            x                 Number           u          v          w      x
            x---------------------------------------------------------------x
            x  P                 1         0.000000   0.276496   0.085792   x
            x  P                 2         0.500000   0.776503   0.085781   x
            x  P                 3         0.000000   0.394085   0.411444   x
            x  P                 4         0.500000  -0.105922   0.411454   x
            x  P                 5         0.000000  -0.496066   0.748779   x
            x  P                 6         0.500000   0.003931   0.748783   x
            x  In                1         0.500000   0.497309   0.004062   x
            x  In                2         0.000000  -0.002691   0.004062   x
            x  In                3         0.000000   0.109799   0.337410   x
            x  In                4         0.500000   0.609801   0.337408   x
            x  In                5         0.500000  -0.272249   0.662514   x
            x  In                6         0.000000   0.227753   0.662511   x
            xxxxxxxxxxxxxxxxxxxxxxxxxxxxxxxxxxxxxxxxxxxxxxxxxxxxxxxxxxxxxxxxx


------------------------------------------------------------------------ <-- SCF
SCF loop      Energy           Fermi           Energy gain       Timer   <-- SCF
                               energy          per atom          (sec)   <-- SCF
------------------------------------------------------------------------ <-- SCF
Initial  -1.17852645E+004  0.00000000E+000                       682.05  <-- SCF
      1  -1.17869142E+004  3.46081252E+000   1.37474972E-001     703.55  <-- SCF
      2  -1.17870516E+004  3.46064330E+000   1.14427619E-002     733.40  <-- SCF
      3  -1.17870513E+004  3.46001004E+000  -2.24216096E-005     758.04  <-- SCF
      4  -1.17870514E+004  3.46051040E+000   9.60280533E-006     783.44  <-- SCF
      5  -1.17870514E+004  3.46088875E+000   1.49244324E-006     808.89  <-- SCF
      6  -1.17870514E+004  3.46092750E+000  -2.21038177E-006     835.23  <-- SCF
      7  -1.17870514E+004  3.46089361E+000  -6.72938209E-007     858.02  <-- SCF
      8  -1.17870514E+004  3.46088728E+000  -8.95857203E-008     878.92  <-- SCF
      9  -1.17870514E+004  3.46087289E+000   1.08638671E-008     896.31  <-- SCF
     10  -1.17870514E+004  3.46086715E+000   1.48259651E-009     912.90  <-- SCF
     11  -1.17870514E+004  3.46086367E+000   3.49316341E-010     930.00  <-- SCF
------------------------------------------------------------------------ <-- SCF
 
Final energy, E             =  -11787.03764070     eV
Final free energy (E-TS)    =  -11787.05137861     eV
(energies not corrected for finite basis set)
 
NB est. 0K energy (E-0.5TS)      =  -11787.04450965     eV
 

 ******************************** Constrained Forces ********************************
 *                                                                                  *
 *                           Cartesian components (eV/A)                            *
 * -------------------------------------------------------------------------------- *
 *                         x                    y                    z              *
 *                                                                                  *
 * P               1     -0.00000(cons'd)      0.00000(cons'd)      0.04021         *
 * P               2      0.00000(cons'd)      0.00000(cons'd)      0.04157         *
 * P               3     -0.00000(cons'd)     -0.00000(cons'd)      0.10172         *
 * P               4     -0.00000(cons'd)     -0.00000(cons'd)      0.10244         *
 * P               5      0.00000(cons'd)      0.00000(cons'd)      0.13508         *
 * P               6     -0.00000(cons'd)      0.00000(cons'd)      0.13242         *
 * In              1      0.00000(cons'd)      0.00000(cons'd)     -0.21388         *
 * In              2      0.00000(cons'd)      0.00000(cons'd)     -0.21395         *
 * In              3      0.00000(cons'd)      0.00000(cons'd)     -0.05654         *
 * In              4      0.00000(cons'd)      0.00000(cons'd)     -0.05697         *
 * In              5      0.00000(cons'd)      0.00000(cons'd)     -0.00589         *
 * In              6      0.00000(cons'd)      0.00000(cons'd)     -0.00621         *
 *                                                                                  *
 ************************************************************************************
  
 +------------+-------------+-------------+-----------------+ <-- min LBFGS
 |    Step    |   lambda    |   F.delta'  |    enthalpy     | <-- min LBFGS
 +------------+-------------+-------------+-----------------+ <-- min LBFGS
 |  previous  |    0.000000 |    0.259658 |   -11787.001255 | <-- min LBFGS
 | trial step |    1.000000 |    0.065136 |   -11787.051379 | <-- min LBFGS
 +------------+-------------+-------------+-----------------+ <-- min LBFGS
  
 LBFGS: finished iteration     1 with enthalpy= -1.17870514E+004 eV
  
 +-----------+-----------------+-----------------+------------+-----+ <-- LBFGS
 | Parameter |      value      |    tolerance    |    units   | OK? | <-- LBFGS
 +-----------+-----------------+-----------------+------------+-----+ <-- LBFGS
 |  dE/ion   |   4.176932E-003 |   2.000000E-005 |         eV | No  | <-- LBFGS
 |  |F|max   |   2.139527E-001 |   1.000000E-003 |       eV/A | No  | <-- LBFGS
 |  |dR|max  |   3.986906E-002 |   1.000000E-003 |          A | No  | <-- LBFGS
 +-----------+-----------------+-----------------+------------+-----+ <-- LBFGS
  

================================================================================
 Starting LBFGS iteration          2 ...
================================================================================
  
 +------------+-------------+-------------+-----------------+ <-- min LBFGS
 |    Step    |   lambda    |   F.delta'  |    enthalpy     | <-- min LBFGS
 +------------+-------------+-------------+-----------------+ <-- min LBFGS
 |  previous  |    0.000000 |    0.103265 |   -11787.051379 | <-- min LBFGS
 +------------+-------------+-------------+-----------------+ <-- min LBFGS
  

--------------------------------------------------------------------------------
 LBFGS: starting iteration         2 with trial guess (lambda=  1.000000)
--------------------------------------------------------------------------------

                           -------------------------------
                                     Cell Contents
                           -------------------------------

            xxxxxxxxxxxxxxxxxxxxxxxxxxxxxxxxxxxxxxxxxxxxxxxxxxxxxxxxxxxxxxxxx
            x  Element         Atom        Fractional coordinates of atoms  x
            x                 Number           u          v          w      x
            x---------------------------------------------------------------x
            x  P                 1        -0.000000   0.277248   0.084657   x
            x  P                 2         0.500000   0.777250   0.084653   x
            x  P                 3        -0.000000   0.393443   0.412413   x
            x  P                 4         0.500000  -0.106570   0.412433   x
            x  P                 5         0.000000  -0.497409   0.750806   x
            x  P                 6         0.500000   0.002605   0.750785   x
            x  In                1         0.500000   0.499312   0.001038   x
            x  In                2         0.000000  -0.000687   0.001036   x
            x  In                3         0.000000   0.109958   0.337170   x
            x  In                4         0.500000   0.609961   0.337166   x
            x  In                5         0.500000  -0.273183   0.663925   x
            x  In                6         0.000000   0.226822   0.663917   x
            xxxxxxxxxxxxxxxxxxxxxxxxxxxxxxxxxxxxxxxxxxxxxxxxxxxxxxxxxxxxxxxxx


------------------------------------------------------------------------ <-- SCF
SCF loop      Energy           Fermi           Energy gain       Timer   <-- SCF
                               energy          per atom          (sec)   <-- SCF
------------------------------------------------------------------------ <-- SCF
Initial  -1.17861863E+004  0.00000000E+000                       939.28  <-- SCF
      1  -1.17870246E+004  3.45480918E+000   6.98592725E-002     964.18  <-- SCF
      2  -1.17870667E+004  3.45474835E+000   3.51051955E-003     998.42  <-- SCF
      3  -1.17870659E+004  3.45378776E+000  -6.41414357E-005    1027.06  <-- SCF
      4  -1.17870657E+004  3.45411775E+000  -1.64422250E-005    1058.70  <-- SCF
      5  -1.17870656E+004  3.45462775E+000  -7.84703893E-006    1087.95  <-- SCF
      6  -1.17870656E+004  3.45482612E+000  -2.35067353E-006    1117.02  <-- SCF
      7  -1.17870656E+004  3.45485761E+000  -3.71861295E-007    1143.57  <-- SCF
      8  -1.17870656E+004  3.45487701E+000  -1.91046392E-008    1165.90  <-- SCF
      9  -1.17870656E+004  3.45486896E+000   4.61780735E-009    1184.67  <-- SCF
     10  -1.17870656E+004  3.45486557E+000   3.73291558E-010    1203.41  <-- SCF
     11  -1.17870656E+004  3.45486378E+000   1.34570576E-010    1221.84  <-- SCF
------------------------------------------------------------------------ <-- SCF
 
Final energy, E             =  -11787.05173844     eV
Final free energy (E-TS)    =  -11787.06559552     eV
(energies not corrected for finite basis set)
 
NB est. 0K energy (E-0.5TS)      =  -11787.05866698     eV
 

 ******************************** Constrained Forces ********************************
 *                                                                                  *
 *                           Cartesian components (eV/A)                            *
 * -------------------------------------------------------------------------------- *
 *                         x                    y                    z              *
 *                                                                                  *
 * P               1      0.00000(cons'd)      0.00000(cons'd)      0.09694         *
 * P               2     -0.00000(cons'd)      0.00000(cons'd)      0.09759         *
 * P               3      0.00000(cons'd)      0.00000(cons'd)      0.11130         *
 * P               4     -0.00000(cons'd)     -0.00000(cons'd)      0.11114         *
 * P               5      0.00000(cons'd)     -0.00000(cons'd)      0.09566         *
 * P               6     -0.00000(cons'd)     -0.00000(cons'd)      0.09577         *
 * In              1      0.00000(cons'd)      0.00000(cons'd)     -0.11189         *
 * In              2      0.00000(cons'd)     -0.00000(cons'd)     -0.11197         *
 * In              3      0.00000(cons'd)      0.00000(cons'd)     -0.09240         *
 * In              4      0.00000(cons'd)      0.00000(cons'd)     -0.09234         *
 * In              5      0.00000(cons'd)      0.00000(cons'd)     -0.09965         *
 * In              6      0.00000(cons'd)      0.00000(cons'd)     -0.10014         *
 *                                                                                  *
 ************************************************************************************
  
 +------------+-------------+-------------+-----------------+ <-- min LBFGS
 |    Step    |   lambda    |   F.delta'  |    enthalpy     | <-- min LBFGS
 +------------+-------------+-------------+-----------------+ <-- min LBFGS
 |  previous  |    0.000000 |    0.103265 |   -11787.051379 | <-- min LBFGS
 | trial step |    1.000000 |    0.043567 |   -11787.065596 | <-- min LBFGS
 +------------+-------------+-------------+-----------------+ <-- min LBFGS
  

--------------------------------------------------------------------------------
 LBFGS: improving iteration         2 with line minimization (lambda=  1.729780)
--------------------------------------------------------------------------------

                           -------------------------------
                                     Cell Contents
                           -------------------------------

            xxxxxxxxxxxxxxxxxxxxxxxxxxxxxxxxxxxxxxxxxxxxxxxxxxxxxxxxxxxxxxxxx
            x  Element         Atom        Fractional coordinates of atoms  x
            x                 Number           u          v          w      x
            x---------------------------------------------------------------x
            x  P                 1        -0.000000   0.277797   0.083828   x
            x  P                 2         0.500000   0.777795   0.083831   x
            x  P                 3        -0.000000   0.392974   0.413121   x
            x  P                 4         0.500000  -0.107044   0.413148   x
            x  P                 5         0.000000  -0.498389   0.752286   x
            x  P                 6         0.500000   0.001637   0.752246   x
            x  In                1         0.500000   0.500774  -0.001169   x
            x  In                2         0.000000   0.000776  -0.001171   x
            x  In                3         0.000000   0.110074   0.336995   x
            x  In                4         0.500000   0.610078   0.336989   x
            x  In                5         0.500000  -0.273865   0.664954   x
            x  In                6         0.000000   0.226142   0.664942   x
            xxxxxxxxxxxxxxxxxxxxxxxxxxxxxxxxxxxxxxxxxxxxxxxxxxxxxxxxxxxxxxxxx


------------------------------------------------------------------------ <-- SCF
SCF loop      Energy           Fermi           Energy gain       Timer   <-- SCF
                               energy          per atom          (sec)   <-- SCF
------------------------------------------------------------------------ <-- SCF
Initial  -1.17865324E+004  0.00000000E+000                      1231.93  <-- SCF
      1  -1.17870468E+004  3.45111526E+000   4.28589097E-002    1255.51  <-- SCF
      2  -1.17870691E+004  3.45108282E+000   1.86336550E-003    1286.26  <-- SCF
      3  -1.17870687E+004  3.45035321E+000  -3.49740327E-005    1313.06  <-- SCF
      4  -1.17870686E+004  3.45055783E+000  -9.24468918E-006    1341.12  <-- SCF
      5  -1.17870685E+004  3.45090114E+000  -4.40121807E-006    1368.70  <-- SCF
      6  -1.17870685E+004  3.45103357E+000  -1.29533717E-006    1397.74  <-- SCF
      7  -1.17870685E+004  3.45104801E+000  -2.02394403E-007    1421.56  <-- SCF
      8  -1.17870685E+004  3.45105962E+000  -1.03407949E-008    1442.67  <-- SCF
      9  -1.17870685E+004  3.45105645E+000   2.67040097E-009    1460.49  <-- SCF
     10  -1.17870685E+004  3.45105340E+000   3.14642505E-010    1477.82  <-- SCF
     11  -1.17870685E+004  3.45105123E+000   1.42304517E-010    1494.48  <-- SCF
------------------------------------------------------------------------ <-- SCF
 
Final energy, E             =  -11787.05452149     eV
Final free energy (E-TS)    =  -11787.06851436     eV
(energies not corrected for finite basis set)
 
NB est. 0K energy (E-0.5TS)      =  -11787.06151792     eV
 

 ******************************** Constrained Forces ********************************
 *                                                                                  *
 *                           Cartesian components (eV/A)                            *
 * -------------------------------------------------------------------------------- *
 *                         x                    y                    z              *
 *                                                                                  *
 * P               1      0.00000(cons'd)      0.00000(cons'd)      0.13825         *
 * P               2      0.00000(cons'd)      0.00000(cons'd)      0.13786         *
 * P               3      0.00000(cons'd)     -0.00000(cons'd)      0.11654         *
 * P               4      0.00000(cons'd)      0.00000(cons'd)      0.11526         *
 * P               5      0.00000(cons'd)     -0.00000(cons'd)      0.06583         *
 * P               6      0.00000(cons'd)      0.00000(cons'd)      0.06802         *
 * In              1      0.00000(cons'd)      0.00000(cons'd)     -0.03233         *
 * In              2      0.00000(cons'd)      0.00000(cons'd)     -0.03238         *
 * In              3      0.00000(cons'd)      0.00000(cons'd)     -0.11695         *
 * In              4      0.00000(cons'd)      0.00000(cons'd)     -0.11654         *
 * In              5      0.00000(cons'd)      0.00000(cons'd)     -0.17145         *
 * In              6      0.00000(cons'd)      0.00000(cons'd)     -0.17209         *
 *                                                                                  *
 ************************************************************************************
  
 +------------+-------------+-------------+-----------------+ <-- min LBFGS
 |    Step    |   lambda    |   F.delta'  |    enthalpy     | <-- min LBFGS
 +------------+-------------+-------------+-----------------+ <-- min LBFGS
 |  previous  |    0.000000 |    0.103265 |   -11787.051379 | <-- min LBFGS
 | trial step |    1.000000 |    0.043567 |   -11787.065596 | <-- min LBFGS
 |  line step |    1.729780 |   -0.002580 |   -11787.068514 | <-- min LBFGS
 +------------+-------------+-------------+-----------------+ <-- min LBFGS
  
 LBFGS: finished iteration     2 with enthalpy= -1.17870685E+004 eV
  
 +-----------+-----------------+-----------------+------------+-----+ <-- LBFGS
 | Parameter |      value      |    tolerance    |    units   | OK? | <-- LBFGS
 +-----------+-----------------+-----------------+------------+-----+ <-- LBFGS
 |  dE/ion   |   1.427979E-003 |   2.000000E-005 |         eV | No  | <-- LBFGS
 |  |F|max   |   1.720881E-001 |   1.000000E-003 |       eV/A | No  | <-- LBFGS
 |  |dR|max  |   5.349091E-002 |   1.000000E-003 |          A | No  | <-- LBFGS
 +-----------+-----------------+-----------------+------------+-----+ <-- LBFGS
  

================================================================================
 Starting LBFGS iteration          3 ...
================================================================================
  
 +------------+-------------+-------------+-----------------+ <-- min LBFGS
 |    Step    |   lambda    |   F.delta'  |    enthalpy     | <-- min LBFGS
 +------------+-------------+-------------+-----------------+ <-- min LBFGS
 |  previous  |    0.000000 |    0.114840 |   -11787.068514 | <-- min LBFGS
 +------------+-------------+-------------+-----------------+ <-- min LBFGS
  

--------------------------------------------------------------------------------
 LBFGS: starting iteration         3 with trial guess (lambda=  1.000000)
--------------------------------------------------------------------------------

                           -------------------------------
                                     Cell Contents
                           -------------------------------

            xxxxxxxxxxxxxxxxxxxxxxxxxxxxxxxxxxxxxxxxxxxxxxxxxxxxxxxxxxxxxxxxx
            x  Element         Atom        Fractional coordinates of atoms  x
            x                 Number           u          v          w      x
            x---------------------------------------------------------------x
            x  P                 1        -0.000000   0.277431   0.084381   x
            x  P                 2         0.500000   0.777430   0.084382   x
            x  P                 3        -0.000000   0.392673   0.413576   x
            x  P                 4         0.500000  -0.107341   0.413597   x
            x  P                 5         0.000000  -0.498766   0.752854   x
            x  P                 6         0.500000   0.001252   0.752827   x
            x  In                1         0.500000   0.501137  -0.001716   x
            x  In                2         0.000000   0.001139  -0.001719   x
            x  In                3         0.000000   0.110393   0.336513   x
            x  In                4         0.500000   0.610396   0.336509   x
            x  In                5         0.500000  -0.273502   0.664406   x
            x  In                6         0.000000   0.226508   0.664391   x
            xxxxxxxxxxxxxxxxxxxxxxxxxxxxxxxxxxxxxxxxxxxxxxxxxxxxxxxxxxxxxxxxx


------------------------------------------------------------------------ <-- SCF
SCF loop      Energy           Fermi           Energy gain       Timer   <-- SCF
                               energy          per atom          (sec)   <-- SCF
------------------------------------------------------------------------ <-- SCF
Initial  -1.17869013E+004  0.00000000E+000                      1504.00  <-- SCF
      1  -1.17870706E+004  3.43956029E+000   1.41072571E-002    1527.49  <-- SCF
      2  -1.17870737E+004  3.43955264E+000   2.55162741E-004    1562.19  <-- SCF
      3  -1.17870737E+004  3.43913853E+000   9.76714397E-007    1587.56  <-- SCF
      4  -1.17870737E+004  3.43909667E+000   1.07856937E-006    1613.77  <-- SCF
      5  -1.17870737E+004  3.43915301E+000   3.58331796E-007    1637.36  <-- SCF
      6  -1.17870737E+004  3.43918400E+000   5.79112355E-008    1657.87  <-- SCF
      7  -1.17870737E+004  3.43919113E+000   3.81953572E-009    1674.40  <-- SCF
      8  -1.17870737E+004  3.43920206E+000   2.40138872E-010    1692.13  <-- SCF
------------------------------------------------------------------------ <-- SCF
 
Final energy, E             =  -11787.05986236     eV
Final free energy (E-TS)    =  -11787.07370785     eV
(energies not corrected for finite basis set)
 
NB est. 0K energy (E-0.5TS)      =  -11787.06678511     eV
 

 ******************************** Constrained Forces ********************************
 *                                                                                  *
 *                           Cartesian components (eV/A)                            *
 * -------------------------------------------------------------------------------- *
 *                         x                    y                    z              *
 *                                                                                  *
 * P               1      0.00000(cons'd)      0.00000(cons'd)      0.06446         *
 * P               2      0.00000(cons'd)      0.00000(cons'd)      0.06459         *
 * P               3      0.00000(cons'd)      0.00000(cons'd)      0.04864         *
 * P               4      0.00000(cons'd)      0.00000(cons'd)      0.04745         *
 * P               5      0.00000(cons'd)      0.00000(cons'd)      0.04778         *
 * P               6      0.00000(cons'd)      0.00000(cons'd)      0.04971         *
 * In              1      0.00000(cons'd)     -0.00000(cons'd)     -0.01527         *
 * In              2      0.00000(cons'd)      0.00000(cons'd)     -0.01535         *
 * In              3      0.00000(cons'd)      0.00000(cons'd)     -0.04856         *
 * In              4      0.00000(cons'd)      0.00000(cons'd)     -0.04832         *
 * In              5      0.00000(cons'd)      0.00000(cons'd)     -0.09757         *
 * In              6      0.00000(cons'd)      0.00000(cons'd)     -0.09757         *
 *                                                                                  *
 ************************************************************************************
  
 +------------+-------------+-------------+-----------------+ <-- min LBFGS
 |    Step    |   lambda    |   F.delta'  |    enthalpy     | <-- min LBFGS
 +------------+-------------+-------------+-----------------+ <-- min LBFGS
 |  previous  |    0.000000 |    0.114840 |   -11787.068514 | <-- min LBFGS
 | trial step |    1.000000 |    0.058448 |   -11787.073708 | <-- min LBFGS
 +------------+-------------+-------------+-----------------+ <-- min LBFGS
  

--------------------------------------------------------------------------------
 LBFGS: improving iteration         3 with line minimization (lambda=  2.036460)
--------------------------------------------------------------------------------

                           -------------------------------
                                     Cell Contents
                           -------------------------------

            xxxxxxxxxxxxxxxxxxxxxxxxxxxxxxxxxxxxxxxxxxxxxxxxxxxxxxxxxxxxxxxxx
            x  Element         Atom        Fractional coordinates of atoms  x
            x                 Number           u          v          w      x
            x---------------------------------------------------------------x
            x  P                 1        -0.000000   0.277052   0.084954   x
            x  P                 2         0.500000   0.777051   0.084954   x
            x  P                 3        -0.000000   0.392361   0.414047   x
            x  P                 4         0.500000  -0.107649   0.414062   x
            x  P                 5         0.000000  -0.499156   0.753443   x
            x  P                 6         0.500000   0.000853   0.753429   x
            x  In                1         0.500000   0.501513  -0.002283   x
            x  In                2         0.000000   0.001515  -0.002287   x
            x  In                3         0.000000   0.110724   0.336014   x
            x  In                4         0.500000   0.610725   0.336012   x
            x  In                5         0.500000  -0.273125   0.663837   x
            x  In                6         0.000000   0.226887   0.663819   x
            xxxxxxxxxxxxxxxxxxxxxxxxxxxxxxxxxxxxxxxxxxxxxxxxxxxxxxxxxxxxxxxxx


------------------------------------------------------------------------ <-- SCF
SCF loop      Energy           Fermi           Energy gain       Timer   <-- SCF
                               energy          per atom          (sec)   <-- SCF
------------------------------------------------------------------------ <-- SCF
Initial  -1.17869027E+004  0.00000000E+000                      1701.42  <-- SCF
      1  -1.17870722E+004  3.42706000E+000   1.41243204E-002    1726.85  <-- SCF
      2  -1.17870755E+004  3.42705178E+000   2.74104305E-004    1757.62  <-- SCF
      3  -1.17870755E+004  3.42664158E+000   8.73822045E-007    1783.65  <-- SCF
      4  -1.17870755E+004  3.42660685E+000   1.10325327E-006    1810.77  <-- SCF
      5  -1.17870755E+004  3.42666584E+000   3.65121938E-007    1834.18  <-- SCF
      6  -1.17870755E+004  3.42669569E+000   5.87869755E-008    1854.20  <-- SCF
      7  -1.17870755E+004  3.42670298E+000   3.64152618E-009    1871.44  <-- SCF
      8  -1.17870755E+004  3.42671461E+000  -1.68857715E-011    1888.94  <-- SCF
------------------------------------------------------------------------ <-- SCF
 
Final energy, E             =  -11787.06179581     eV
Final free energy (E-TS)    =  -11787.07548921     eV
(energies not corrected for finite basis set)
 
NB est. 0K energy (E-0.5TS)      =  -11787.06864251     eV
 

 ******************************** Constrained Forces ********************************
 *                                                                                  *
 *                           Cartesian components (eV/A)                            *
 * -------------------------------------------------------------------------------- *
 *                         x                    y                    z              *
 *                                                                                  *
 * P               1      0.00000(cons'd)      0.00000(cons'd)     -0.01393         *
 * P               2     -0.00000(cons'd)      0.00000(cons'd)     -0.01349         *
 * P               3      0.00000(cons'd)      0.00000(cons'd)     -0.02450         *
 * P               4     -0.00000(cons'd)      0.00000(cons'd)     -0.02546         *
 * P               5      0.00000(cons'd)     -0.00000(cons'd)      0.02851         *
 * P               6      0.00000(cons'd)      0.00000(cons'd)      0.02988         *
 * In              1      0.00000(cons'd)      0.00000(cons'd)      0.00239         *
 * In              2      0.00000(cons'd)     -0.00000(cons'd)      0.00228         *
 * In              3      0.00000(cons'd)      0.00000(cons'd)      0.02516         *
 * In              4      0.00000(cons'd)      0.00000(cons'd)      0.02519         *
 * In              5     -0.00000(cons'd)      0.00000(cons'd)     -0.01836         *
 * In              6      0.00000(cons'd)     -0.00000(cons'd)     -0.01766         *
 *                                                                                  *
 ************************************************************************************
  
 +------------+-------------+-------------+-----------------+ <-- min LBFGS
 |    Step    |   lambda    |   F.delta'  |    enthalpy     | <-- min LBFGS
 +------------+-------------+-------------+-----------------+ <-- min LBFGS
 |  previous  |    0.000000 |    0.114840 |   -11787.068514 | <-- min LBFGS
 | trial step |    1.000000 |    0.058448 |   -11787.073708 | <-- min LBFGS
 |  line step |    2.036460 |   -0.001901 |   -11787.075489 | <-- min LBFGS
 +------------+-------------+-------------+-----------------+ <-- min LBFGS
  
 LBFGS: finished iteration     3 with enthalpy= -1.17870755E+004 eV
  
 +-----------+-----------------+-----------------+------------+-----+ <-- LBFGS
 | Parameter |      value      |    tolerance    |    units   | OK? | <-- LBFGS
 +-----------+-----------------+-----------------+------------+-----+ <-- LBFGS
 |  dE/ion   |   5.812374E-004 |   2.000000E-005 |         eV | No  | <-- LBFGS
 |  |F|max   |   2.987903E-002 |   1.000000E-003 |       eV/A | No  | <-- LBFGS
 |  |dR|max  |   1.209705E-002 |   1.000000E-003 |          A | No  | <-- LBFGS
 +-----------+-----------------+-----------------+------------+-----+ <-- LBFGS
  

================================================================================
 Starting LBFGS iteration          4 ...
================================================================================
  
 +------------+-------------+-------------+-----------------+ <-- min LBFGS
 |    Step    |   lambda    |   F.delta'  |    enthalpy     | <-- min LBFGS
 +------------+-------------+-------------+-----------------+ <-- min LBFGS
 |  previous  |    0.000000 |    0.020941 |   -11787.075489 | <-- min LBFGS
 +------------+-------------+-------------+-----------------+ <-- min LBFGS
  

--------------------------------------------------------------------------------
 LBFGS: starting iteration         4 with trial guess (lambda=  1.000000)
--------------------------------------------------------------------------------

                           -------------------------------
                                     Cell Contents
                           -------------------------------

            xxxxxxxxxxxxxxxxxxxxxxxxxxxxxxxxxxxxxxxxxxxxxxxxxxxxxxxxxxxxxxxxx
            x  Element         Atom        Fractional coordinates of atoms  x
            x                 Number           u          v          w      x
            x---------------------------------------------------------------x
            x  P                 1        -0.000000   0.277089   0.084897   x
            x  P                 2         0.500000   0.777085   0.084902   x
            x  P                 3        -0.000000   0.392433   0.413937   x
            x  P                 4         0.500000  -0.107572   0.413945   x
            x  P                 5         0.000000  -0.499299   0.753659   x
            x  P                 6         0.500000   0.000703   0.753656   x
            x  In                1         0.500000   0.501538  -0.002322   x
            x  In                2         0.000000   0.001541  -0.002326   x
            x  In                3         0.000000   0.110678   0.336083   x
            x  In                4         0.500000   0.610679   0.336082   x
            x  In                5         0.500000  -0.273067   0.663749   x
            x  In                6         0.000000   0.226941   0.663736   x
            xxxxxxxxxxxxxxxxxxxxxxxxxxxxxxxxxxxxxxxxxxxxxxxxxxxxxxxxxxxxxxxxx


------------------------------------------------------------------------ <-- SCF
SCF loop      Energy           Fermi           Energy gain       Timer   <-- SCF
                               energy          per atom          (sec)   <-- SCF
------------------------------------------------------------------------ <-- SCF
Initial  -1.17870354E+004  0.00000000E+000                      1897.94  <-- SCF
      1  -1.17870756E+004  3.42747308E+000   3.35772363E-003    1921.17  <-- SCF
      2  -1.17870757E+004  3.42747270E+000   4.49922721E-006    1952.66  <-- SCF
      3  -1.17870757E+004  3.42758335E+000  -3.01111459E-007    1978.22  <-- SCF
      4  -1.17870757E+004  3.42772777E+000  -1.30739052E-007    2000.83  <-- SCF
      5  -1.17870757E+004  3.42782194E+000  -3.11662359E-008    2021.46  <-- SCF
      6  -1.17870757E+004  3.42787421E+000  -8.99096435E-009    2040.59  <-- SCF
      7  -1.17870757E+004  3.42788573E+000  -4.78859854E-010    2058.65  <-- SCF
------------------------------------------------------------------------ <-- SCF
 
Final energy, E             =  -11787.06209848     eV
Final free energy (E-TS)    =  -11787.07569109     eV
(energies not corrected for finite basis set)
 
NB est. 0K energy (E-0.5TS)      =  -11787.06889478     eV
 

 ******************************** Constrained Forces ********************************
 *                                                                                  *
 *                           Cartesian components (eV/A)                            *
 * -------------------------------------------------------------------------------- *
 *                         x                    y                    z              *
 *                                                                                  *
 * P               1      0.00000(cons'd)      0.00000(cons'd)     -0.00354         *
 * P               2      0.00000(cons'd)      0.00000(cons'd)     -0.00317         *
 * P               3      0.00000(cons'd)      0.00000(cons'd)     -0.01269         *
 * P               4     -0.00000(cons'd)      0.00000(cons'd)     -0.01315         *
 * P               5      0.00000(cons'd)     -0.00000(cons'd)      0.01446         *
 * P               6     -0.00000(cons'd)     -0.00000(cons'd)      0.01552         *
 * In              1      0.00000(cons'd)      0.00000(cons'd)      0.00171         *
 * In              2      0.00000(cons'd)      0.00000(cons'd)      0.00169         *
 * In              3      0.00000(cons'd)      0.00000(cons'd)      0.00920         *
 * In              4      0.00000(cons'd)      0.00000(cons'd)      0.00941         *
 * In              5      0.00000(cons'd)      0.00000(cons'd)     -0.01004         *
 * In              6      0.00000(cons'd)      0.00000(cons'd)     -0.00941         *
 *                                                                                  *
 ************************************************************************************
  
 +------------+-------------+-------------+-----------------+ <-- min LBFGS
 |    Step    |   lambda    |   F.delta'  |    enthalpy     | <-- min LBFGS
 +------------+-------------+-------------+-----------------+ <-- min LBFGS
 |  previous  |    0.000000 |    0.020941 |   -11787.075489 | <-- min LBFGS
 | trial step |    1.000000 |    0.010091 |   -11787.075691 | <-- min LBFGS
 +------------+-------------+-------------+-----------------+ <-- min LBFGS
  

--------------------------------------------------------------------------------
 LBFGS: improving iteration         4 with line minimization (lambda=  1.929972)
--------------------------------------------------------------------------------

                           -------------------------------
                                     Cell Contents
                           -------------------------------

            xxxxxxxxxxxxxxxxxxxxxxxxxxxxxxxxxxxxxxxxxxxxxxxxxxxxxxxxxxxxxxxxx
            x  Element         Atom        Fractional coordinates of atoms  x
            x                 Number           u          v          w      x
            x---------------------------------------------------------------x
            x  P                 1        -0.000000   0.277123   0.084845   x
            x  P                 2         0.500000   0.777117   0.084854   x
            x  P                 3        -0.000000   0.392501   0.413835   x
            x  P                 4         0.500000  -0.107499   0.413835   x
            x  P                 5         0.000000  -0.499432   0.753860   x
            x  P                 6         0.500000   0.000563   0.753867   x
            x  In                1         0.500000   0.501562  -0.002358   x
            x  In                2         0.000000   0.001565  -0.002362   x
            x  In                3         0.000000   0.110636   0.336147   x
            x  In                4         0.500000   0.610635   0.336148   x
            x  In                5         0.500000  -0.273012   0.663667   x
            x  In                6         0.000000   0.226992   0.663660   x
            xxxxxxxxxxxxxxxxxxxxxxxxxxxxxxxxxxxxxxxxxxxxxxxxxxxxxxxxxxxxxxxxx


------------------------------------------------------------------------ <-- SCF
SCF loop      Energy           Fermi           Energy gain       Timer   <-- SCF
                               energy          per atom          (sec)   <-- SCF
------------------------------------------------------------------------ <-- SCF
Initial  -1.17870378E+004  0.00000000E+000                      2068.21  <-- SCF
      1  -1.17870757E+004  3.42859302E+000   3.15774958E-003    2091.11  <-- SCF
      2  -1.17870758E+004  3.42859270E+000   3.89033750E-006    2121.31  <-- SCF
      3  -1.17870758E+004  3.42869400E+000  -2.62537139E-007    2148.23  <-- SCF
      4  -1.17870758E+004  3.42882694E+000  -1.13667666E-007    2169.89  <-- SCF
      5  -1.17870758E+004  3.42891390E+000  -2.69192711E-008    2189.68  <-- SCF
      6  -1.17870758E+004  3.42896269E+000  -7.73407002E-009    2207.93  <-- SCF
      7  -1.17870758E+004  3.42897339E+000  -3.84763571E-010    2224.64  <-- SCF
------------------------------------------------------------------------ <-- SCF
 
Final energy, E             =  -11787.06225320     eV
Final free energy (E-TS)    =  -11787.07575362     eV
(energies not corrected for finite basis set)
 
NB est. 0K energy (E-0.5TS)      =  -11787.06900341     eV
 

 ******************************** Constrained Forces ********************************
 *                                                                                  *
 *                           Cartesian components (eV/A)                            *
 * -------------------------------------------------------------------------------- *
 *                         x                    y                    z              *
 *                                                                                  *
 * P               1      0.00000(cons'd)      0.00000(cons'd)      0.00596         *
 * P               2     -0.00000(cons'd)      0.00000(cons'd)      0.00625         *
 * P               3      0.00000(cons'd)      0.00000(cons'd)     -0.00213         *
 * P               4     -0.00000(cons'd)      0.00000(cons'd)     -0.00213         *
 * P               5      0.00000(cons'd)      0.00000(cons'd)      0.00119         *
 * P               6     -0.00000(cons'd)      0.00000(cons'd)      0.00193         *
 * In              1      0.00000(cons'd)      0.00000(cons'd)      0.00127         *
 * In              2      0.00000(cons'd)      0.00000(cons'd)      0.00134         *
 * In              3      0.00000(cons'd)      0.00000(cons'd)     -0.00511         *
 * In              4      0.00000(cons'd)      0.00000(cons'd)     -0.00473         *
 * In              5      0.00000(cons'd)      0.00000(cons'd)     -0.00222         *
 * In              6      0.00000(cons'd)      0.00000(cons'd)     -0.00163         *
 *                                                                                  *
 ************************************************************************************
  
 +------------+-------------+-------------+-----------------+ <-- min LBFGS
 |    Step    |   lambda    |   F.delta'  |    enthalpy     | <-- min LBFGS
 +------------+-------------+-------------+-----------------+ <-- min LBFGS
 |  previous  |    0.000000 |    0.020941 |   -11787.075489 | <-- min LBFGS
 | trial step |    1.000000 |    0.010091 |   -11787.075691 | <-- min LBFGS
 |  line step |    1.929972 |    0.000049 |   -11787.075754 | <-- min LBFGS
 +------------+-------------+-------------+-----------------+ <-- min LBFGS
  
 LBFGS: finished iteration     4 with enthalpy= -1.17870758E+004 eV
  
 +-----------+-----------------+-----------------+------------+-----+ <-- LBFGS
 | Parameter |      value      |    tolerance    |    units   | OK? | <-- LBFGS
 +-----------+-----------------+-----------------+------------+-----+ <-- LBFGS
 |  dE/ion   |   2.203455E-005 |   2.000000E-005 |         eV | No  | <-- LBFGS
 |  |F|max   |   6.252641E-003 |   1.000000E-003 |       eV/A | No  | <-- LBFGS
 |  |dR|max  |   4.475057E-003 |   1.000000E-003 |          A | No  | <-- LBFGS
 +-----------+-----------------+-----------------+------------+-----+ <-- LBFGS
  

================================================================================
 Starting LBFGS iteration          5 ...
================================================================================
  
 +------------+-------------+-------------+-----------------+ <-- min LBFGS
 |    Step    |   lambda    |   F.delta'  |    enthalpy     | <-- min LBFGS
 +------------+-------------+-------------+-----------------+ <-- min LBFGS
 |  previous  |    0.000000 |    0.003417 |   -11787.075754 | <-- min LBFGS
 +------------+-------------+-------------+-----------------+ <-- min LBFGS
  

--------------------------------------------------------------------------------
 LBFGS: starting iteration         5 with trial guess (lambda=  1.000000)
--------------------------------------------------------------------------------

                           -------------------------------
                                     Cell Contents
                           -------------------------------

            xxxxxxxxxxxxxxxxxxxxxxxxxxxxxxxxxxxxxxxxxxxxxxxxxxxxxxxxxxxxxxxxx
            x  Element         Atom        Fractional coordinates of atoms  x
            x                 Number           u          v          w      x
            x---------------------------------------------------------------x
            x  P                 1        -0.000000   0.277089   0.084898   x
            x  P                 2         0.500000   0.777080   0.084910   x
            x  P                 3        -0.000000   0.392531   0.413790   x
            x  P                 4         0.500000  -0.107468   0.413788   x
            x  P                 5         0.000000  -0.499444   0.753878   x
            x  P                 6         0.500000   0.000547   0.753892   x
            x  In                1         0.500000   0.501534  -0.002315   x
            x  In                2         0.000000   0.001536  -0.002319   x
            x  In                3         0.000000   0.110661   0.336109   x
            x  In                4         0.500000   0.610659   0.336113   x
            x  In                5         0.500000  -0.272988   0.663629   x
            x  In                6         0.000000   0.227013   0.663628   x
            xxxxxxxxxxxxxxxxxxxxxxxxxxxxxxxxxxxxxxxxxxxxxxxxxxxxxxxxxxxxxxxxx


------------------------------------------------------------------------ <-- SCF
SCF loop      Energy           Fermi           Energy gain       Timer   <-- SCF
                               energy          per atom          (sec)   <-- SCF
------------------------------------------------------------------------ <-- SCF
Initial  -1.17870629E+004  0.00000000E+000                      2233.64  <-- SCF
      1  -1.17870757E+004  3.42846740E+000   1.06838774E-003    2256.55  <-- SCF
      2  -1.17870758E+004  3.42846736E+000   1.39989026E-006    2286.29  <-- SCF
      3  -1.17870758E+004  3.42845911E+000  -9.25237156E-010    2305.57  <-- SCF
      4  -1.17870758E+004  3.42844753E+000   4.47395604E-009    2322.53  <-- SCF
------------------------------------------------------------------------ <-- SCF
 
Final energy, E             =  -11787.06226827     eV
Final free energy (E-TS)    =  -11787.07576135     eV
(energies not corrected for finite basis set)
 
NB est. 0K energy (E-0.5TS)      =  -11787.06901481     eV
 

 ******************************** Constrained Forces ********************************
 *                                                                                  *
 *                           Cartesian components (eV/A)                            *
[...]
 * P               5      0.00000(cons'd)     -0.00000(cons'd)     -0.00027         *
 * P               6      0.00000(cons'd)      0.00000(cons'd)      0.00020         *
 * In              1      0.00000(cons'd)      0.00000(cons'd)      0.00088         *
 * In              2      0.00000(cons'd)      0.00000(cons'd)      0.00099         *
 * In              3      0.00000(cons'd)      0.00000(cons'd)     -0.00001         *
 * In              4      0.00000(cons'd)      0.00000(cons'd)     -0.00026         *
 * In              5      0.00000(cons'd)      0.00000(cons'd)     -0.00117         *
 * In              6      0.00000(cons'd)      0.00000(cons'd)     -0.00100         *
 *                                                                                  *
 ************************************************************************************
  
 +------------+-------------+-------------+-----------------+ <-- min LBFGS
 |    Step    |   lambda    |   F.delta'  |    enthalpy     | <-- min LBFGS
 +------------+-------------+-------------+-----------------+ <-- min LBFGS
 |  previous  |    0.000000 |    0.000446 |   -11787.075761 | <-- min LBFGS
 | trial step |    1.000000 |   -0.000440 |   -11787.075761 | <-- min LBFGS
 +------------+-------------+-------------+-----------------+ <-- min LBFGS
  

--------------------------------------------------------------------------------
 LBFGS: improving iteration         6 with line minimization (lambda=  0.503453)
--------------------------------------------------------------------------------

                           -------------------------------
                                     Cell Contents
                           -------------------------------

            xxxxxxxxxxxxxxxxxxxxxxxxxxxxxxxxxxxxxxxxxxxxxxxxxxxxxxxxxxxxxxxxx
            x  Element         Atom        Fractional coordinates of atoms  x
            x                 Number           u          v          w      x
            x---------------------------------------------------------------x
            x  P                 1        -0.000000   0.277090   0.084896   x
            x  P                 2         0.500000   0.777080   0.084910   x
            x  P                 3        -0.000000   0.392530   0.413792   x
            x  P                 4         0.500000  -0.107469   0.413789   x
            x  P                 5         0.000000  -0.499447   0.753882   x
            x  P                 6         0.500000   0.000543   0.753898   x
            x  In                1         0.500000   0.501540  -0.002324   x
            x  In                2         0.000000   0.001542  -0.002327   x
            x  In                3         0.000000   0.110661   0.336109   x
            x  In                4         0.500000   0.610658   0.336114   x
            x  In                5         0.500000  -0.272989   0.663632   x
            x  In                6         0.000000   0.227011   0.663631   x
            xxxxxxxxxxxxxxxxxxxxxxxxxxxxxxxxxxxxxxxxxxxxxxxxxxxxxxxxxxxxxxxxx


------------------------------------------------------------------------ <-- SCF
SCF loop      Energy           Fermi           Energy gain       Timer   <-- SCF
                               energy          per atom          (sec)   <-- SCF
------------------------------------------------------------------------ <-- SCF
Initial  -1.17870634E+004  0.00000000E+000                      2420.96  <-- SCF
      1  -1.17870758E+004  3.42840567E+000   1.02772539E-003    2444.20  <-- SCF
      2  -1.17870758E+004  3.42840567E+000   2.30702175E-008    2463.79  <-- SCF
      3  -1.17870758E+004  3.42840864E+000  -4.67903438E-011    2480.93  <-- SCF
      4  -1.17870758E+004  3.42840847E+000   8.24953720E-011    2497.61  <-- SCF
------------------------------------------------------------------------ <-- SCF
 
Final energy, E             =  -11787.06226743     eV
Final free energy (E-TS)    =  -11787.07576140     eV
(energies not corrected for finite basis set)
 
NB est. 0K energy (E-0.5TS)      =  -11787.06901442     eV
 

 ******************************** Constrained Forces ********************************
 *                                                                                  *
 *                           Cartesian components (eV/A)                            *
 * -------------------------------------------------------------------------------- *
 *                         x                    y                    z              *
 *                                                                                  *
 * P               1      0.00000(cons'd)      0.00000(cons'd)     -0.00015         *
 * P               2      0.00000(cons'd)      0.00000(cons'd)      0.00012         *
 * P               3      0.00000(cons'd)      0.00000(cons'd)      0.00024         *
 * P               4      0.00000(cons'd)      0.00000(cons'd)      0.00010         *
 * P               5      0.00000(cons'd)     -0.00000(cons'd)     -0.00029         *
 * P               6     -0.00000(cons'd)     -0.00000(cons'd)      0.00023         *
 * In              1      0.00000(cons'd)      0.00000(cons'd)     -0.00029         *
 * In              2      0.00000(cons'd)     -0.00000(cons'd)     -0.00014         *
 * In              3      0.00000(cons'd)      0.00000(cons'd)     -0.00016         *
 * In              4      0.00000(cons'd)      0.00000(cons'd)      0.00036         *
 * In              5      0.00000(cons'd)      0.00000(cons'd)     -0.00024         *
 * In              6      0.00000(cons'd)      0.00000(cons'd)      0.00023         *
 *                                                                                  *
 ************************************************************************************
  
 +------------+-------------+-------------+-----------------+ <-- min LBFGS
 |    Step    |   lambda    |   F.delta'  |    enthalpy     | <-- min LBFGS
 +------------+-------------+-------------+-----------------+ <-- min LBFGS
 |  previous  |    0.000000 |    0.000446 |   -11787.075761 | <-- min LBFGS
 | trial step |    1.000000 |   -0.000440 |   -11787.075761 | <-- min LBFGS
 |  line step |    0.503453 |    0.000110 |   -11787.075761 | <-- min LBFGS
 +------------+-------------+-------------+-----------------+ <-- min LBFGS
  
 LBFGS: finished iteration     6 with enthalpy= -1.17870758E+004 eV
  
 +-----------+-----------------+-----------------+------------+-----+ <-- LBFGS
 | Parameter |      value      |    tolerance    |    units   | OK? | <-- LBFGS
 +-----------+-----------------+-----------------+------------+-----+ <-- LBFGS
 |  dE/ion   |   4.166661E-009 |   2.000000E-005 |         eV | Yes | <-- LBFGS
 |  |F|max   |   3.611054E-004 |   1.000000E-003 |       eV/A | Yes | <-- LBFGS
 |  |dR|max  |   8.921598E-005 |   1.000000E-003 |          A | Yes | <-- LBFGS
 +-----------+-----------------+-----------------+------------+-----+ <-- LBFGS
  
 Hirshfeld supercell size:           4           2           2
Standard grid dimensions: 180 144 240
Fine grid dimensions:     180 144 240

 LBFGS: Geometry optimization completed successfully.

================================================================================
 LBFGS: Final Configuration:
================================================================================

                           -------------------------------
                                     Cell Contents
                           -------------------------------

            xxxxxxxxxxxxxxxxxxxxxxxxxxxxxxxxxxxxxxxxxxxxxxxxxxxxxxxxxxxxxxxxx
            x  Element         Atom        Fractional coordinates of atoms  x
            x                 Number           u          v          w      x
            x---------------------------------------------------------------x
            x  P                 1        -0.000000   0.277090   0.084896   x
            x  P                 2         0.500000   0.777080   0.084910   x
            x  P                 3        -0.000000   0.392530   0.413792   x
            x  P                 4         0.500000  -0.107469   0.413789   x
            x  P                 5         0.000000  -0.499447   0.753882   x
            x  P                 6         0.500000   0.000543   0.753898   x
            x  In                1         0.500000   0.501540  -0.002324   x
            x  In                2         0.000000   0.001542  -0.002327   x
            x  In                3         0.000000   0.110661   0.336109   x
            x  In                4         0.500000   0.610658   0.336114   x
            x  In                5         0.500000  -0.272989   0.663632   x
            x  In                6         0.000000   0.227011   0.663631   x
            xxxxxxxxxxxxxxxxxxxxxxxxxxxxxxxxxxxxxxxxxxxxxxxxxxxxxxxxxxxxxxxxx


 LBFGS: Final Enthalpy     = -1.17870758E+004 eV
 LBFGS: Final <frequency>  =     470.68161 cm-1

 ******************* Unconstrained Forces *******************
 *                                                          *
 *               Cartesian components (eV/A)                *
 * -------------------------------------------------------- *
 *                         x            y            z      *
 *                                                          *
 * P               1     -0.00000     -0.00915     -0.00015 *
 * P               2      0.00000     -0.01178      0.00012 *
 * P               3     -0.00000     -0.00126      0.00024 *
 * P               4      0.00000     -0.00062      0.00010 *
 * P               5     -0.00000      0.03778     -0.00029 *
 * P               6      0.00000      0.03577      0.00023 *
 * In              1      0.00000     -0.02223     -0.00029 *
 * In              2     -0.00000     -0.02297     -0.00014 *
 * In              3     -0.00000     -0.00762     -0.00016 *
 * In              4      0.00000     -0.00765      0.00036 *
 * In              5      0.00000      0.00502     -0.00024 *
 * In              6     -0.00000      0.00472      0.00023 *
 *                                                          *
 ************************************************************

 ******************************** Constrained Forces ********************************
 *                                                                                  *
 *                           Cartesian components (eV/A)                            *
 * -------------------------------------------------------------------------------- *
 *                         x                    y                    z              *
 *                                                                                  *
 * P               1      0.00000(cons'd)      0.00000(cons'd)     -0.00015         *
 * P               2      0.00000(cons'd)      0.00000(cons'd)      0.00012         *
 * P               3      0.00000(cons'd)      0.00000(cons'd)      0.00024         *
 * P               4     -0.00000(cons'd)      0.00000(cons'd)      0.00010         *
 * P               5      0.00000(cons'd)      0.00000(cons'd)     -0.00029         *
 * P               6     -0.00000(cons'd)     -0.00000(cons'd)      0.00023         *
 * In              1      0.00000(cons'd)     -0.00000(cons'd)     -0.00029         *
 * In              2      0.00000(cons'd)     -0.00000(cons'd)     -0.00014         *
 * In              3      0.00000(cons'd)      0.00000(cons'd)     -0.00016         *
 * In              4      0.00000(cons'd)      0.00000(cons'd)      0.00036         *
 * In              5      0.00000(cons'd)      0.00000(cons'd)     -0.00024         *
 * In              6      0.00000(cons'd)      0.00000(cons'd)      0.00023         *
 *                                                                                  *
 ************************************************************************************

 Pseudo atomic calculation performed for P 3s2 3p3

 Converged in 23 iterations to a total energy of -208.0292 eV

 Pseudo atomic calculation performed for In 4d10 5s2 5p1

 Converged in 42 iterations to a total energy of -1747.4501 eV
Charge spilling parameter for spin component 1 = 0.22%

            Orbital Populations       
     Ion    Atom   Orbital             Charge
  -------------------------------------------
      P     1      S                    1.761
      P     1      Px                   1.275
      P     1      Py                   1.273
      P     1      Pz                   1.285
      P     2      S                    1.761
      P     2      Px                   1.275
      P     2      Py                   1.273
      P     2      Pz                   1.285
      P     3      S                    1.736
      P     3      Px                   1.303
      P     3      Py                   1.302
      P     3      Pz                   1.311
      P     4      S                    1.736
      P     4      Px                   1.303
      P     4      Py                   1.302
      P     4      Pz                   1.311
      P     5      S                    1.787
      P     5      Px                   1.235
      P     5      Py                   1.236
      P     5      Pz                   1.426
      P     6      S                    1.787
      P     6      Px                   1.235
      P     6      Py                   1.236
      P     6      Pz                   1.426
     In     1      Dzz                  1.998
     In     1      Dzy                  1.999
     In     1      Dzx                  1.999
     In     1      Dxx-yy               1.998
     In     1      Dxy                  1.998
     In     1      S                    1.409
     In     1      Px                   0.476
     In     1      Py                   0.476
     In     1      Pz                   0.329
     In     1      S                   -0.471
     In     2      Dzz                  1.998
     In     2      Dzy                  1.999
     In     2      Dzx                  1.999
     In     2      Dxx-yy               1.998
     In     2      Dxy                  1.998
     In     2      S                    1.409
     In     2      Px                   0.476
     In     2      Py                   0.476
     In     2      Pz                   0.329
     In     2      S                   -0.471
     In     3      Dzz                  1.997
     In     3      Dzy                  1.998
     In     3      Dzx                  1.998
     In     3      Dxx-yy               1.997
     In     3      Dxy                  1.997
     In     3      S                    1.468
     In     3      Px                   0.493
     In     3      Py                   0.494
     In     3      Pz                   0.488
     In     3      S                   -0.521
     In     4      Dzz                  1.997
     In     4      Dzy                  1.998
     In     4      Dzx                  1.998
     In     4      Dxx-yy               1.997
     In     4      Dxy                  1.997
     In     4      S                    1.468
     In     4      Px                   0.493
     In     4      Py                   0.494
     In     4      Pz                   0.488
     In     4      S                   -0.521
     In     5      Dzz                  1.996
     In     5      Dzy                  1.999
     In     5      Dzx                  1.999
     In     5      Dxx-yy               1.998
     In     5      Dxy                  1.998
     In     5      S                    1.374
     In     5      Px                   0.497
     In     5      Py                   0.495
     In     5      Pz                   0.528
     In     5      S                   -0.433
     In     6      Dzz                  1.996
     In     6      Dzy                  1.999
     In     6      Dzx                  1.999
     In     6      Dxx-yy               1.998
     In     6      Dxy                  1.998
     In     6      S                    1.374
     In     6      Px                   0.497
     In     6      Py                   0.495
     In     6      Pz                   0.528
     In     6      S                   -0.433
  -------------------------------------------
                           Total:     108.000
  -------------------------------------------

     Atomic Populations (Mulliken)
     -----------------------------
Species          Ion     s       p       d       f      Total   Charge (e)
==========================================================================
  P               1     1.761   3.833   0.000   0.000   5.594    -0.594
  P               2     1.761   3.833   0.000   0.000   5.594    -0.594
  P               3     1.736   3.916   0.000   0.000   5.653    -0.653
  P               4     1.736   3.916   0.000   0.000   5.653    -0.653
  P               5     1.787   3.897   0.000   0.000   5.684    -0.684
  P               6     1.787   3.897   0.000   0.000   5.684    -0.684
  In              1     0.938   1.280   9.992   0.000  12.210     0.790
  In              2     0.938   1.280   9.992   0.000  12.210     0.790
  In              3     0.947   1.475   9.988   0.000  12.409     0.591
  In              4     0.947   1.475   9.988   0.000  12.409     0.591
  In              5     0.940   1.520   9.989   0.000  12.449     0.551
  In              6     0.940   1.520   9.989   0.000  12.449     0.551
==========================================================================

                 Bond                   Population      Length (A)
======================================================================
               P 4 -- In 4                   0.53        2.53664
               P 3 -- In 4                   1.34        2.53664
               P 4 -- In 3                   1.34        2.53665
               P 3 -- In 3                   0.53        2.53666
               P 3 -- In 6                   0.54        2.55368
               P 4 -- In 5                   0.54        2.55372
               P 2 -- In 4                   0.43        2.56763
               P 1 -- In 3                   0.43        2.56772
               P 1 -- In 1                   1.39        2.56884
               P 1 -- In 2                   0.54        2.56885
               P 2 -- In 1                   0.54        2.56889
               P 2 -- In 2                   1.39        2.56890
               P 5 -- In 5                   1.34        2.57975
               P 5 -- In 6                   0.59        2.57976
               P 6 -- In 5                   0.59        2.57981
               P 6 -- In 6                   1.34        2.57982
======================================================================

 Hirshfeld supercell size:           4           2           2
Standard grid dimensions: 180 144 240
Fine grid dimensions:     180 144 240


     Hirshfeld Analysis
     ------------------
Species   Ion     Hirshfeld Charge (e)
======================================
  P        1                -0.21
  P        2                -0.21
  P        3                -0.23
  P        4                -0.23
  P        5                -0.28
  P        6                -0.28
  In       1                 0.31
  In       2                 0.31
  In       3                 0.22
  In       4                 0.22
  In       5                 0.19
  In       6                 0.19
======================================

 
 A BibTeX formatted list of references used in this run has been written to 
 StackingFaultStructs_111_11-2_9.bib
 
Initialisation time =     20.01 s
Calculation time    =   2511.75 s
Finalisation time   =     11.78 s
Total time          =   2543.54 s
Peak Memory Use     = 4295456 kB
 
Overall parallel efficiency rating: Terrible (33%)
 
Data was distributed by:-
G-vector (3-way); efficiency rating: Poor (38%)
k-point (25-way); efficiency rating: Good (70%)
