 +-------------------------------------------------+
 |                                                 |
 |      CCC   AA    SSS  TTTTT  EEEEE  PPPP        |
 |     C     A  A  S       T    E      P   P       |
 |     C     AAAA   SS     T    EEE    PPPP        |
 |     C     A  A     S    T    E      P           |
 |      CCC  A  A  SSS     T    EEEEE  P           |
 |                                                 |
 +-------------------------------------------------+
 |                                                 |
 | Welcome to Academic Release CASTEP version 24.1 |
 | Ab Initio Total Energy Program                  |
 |                                                 |
 | Authors:                                        |
 | M. Segall, M. Probert, C. Pickard, P. Hasnip,   |
 | S. Clark, K. Refson, J. R. Yates,               |
 | A. Bartok-Partay, M. Payne                      |
 |                                                 |
 | Contributors:                                   |
 | P. Lindan, P. Haynes, J. White, V. Milman,      |
 | N. Govind, M. Gibson, P. Tulip, V. Cocula,      |
 | B. Montanari, D. Quigley, M. Glover,            |
 | L. Bernasconi, A. Perlov, M. Plummer,           |
 | E. McNellis, J. Meyer, J. Gale, D. Jochym       |
 | J. Aarons, B. Walker, R. Gillen, D. Jones       |
 | T. Green, I. J. Bush, C. J. Armstrong,          |
 | E. J. Higgins, E. L. Brown, M. S. McFly,        |
 | J. Wilkins, B-C. Shih, P. J. P. Byrne,          |
 | R. J. Maurer, J. C. Womack, J. Dziedzic,        |
 | L. LeBlanc, T. K. Stenczel, J. Kermode,         |
 | S. Sturniolo, B. Shi, B. Durham, M. Evans,      |
 | M. J. Smith, A. Tamerus, Z. Hawkhead,           |
 | V. Ravindran, T. Hollins, S. A. Joyce,          |
 | R. T. Strong, A. M. Reilly, S. J. Donaldson     |
 |                                                 |
 | Copyright (c) 2000 - 2023                       |
 |                                                 |
 |     Distributed under license from Cambridge    |
 |     Enterprise for academic use only.           |
 |                                                 |
 | Please cite                                     |
 |                                                 |
 |     "First principles methods using CASTEP"     |
 |                                                 |
 |         Zeitschrift fuer Kristallographie       |
 |           220(5-6) pp. 567-570 (2005)           |
 |                                                 |
 | S. J. Clark, M. D. Segall, C. J. Pickard,       |
 | P. J. Hasnip, M. J. Probert, K. Refson,         |
 | M. C. Payne                                     |
 |                                                 |
 |       in all publications arising from          |
 |              your use of CASTEP                 |
 |                                                 |
 +-------------------------------------------------+
 |                                                 |
 |              http://www.castep.org              |
 |                                                 |
 +-------------------------------------------------+



 Compiled for  GNU 11.2.0 on 04-04-2024 18:39:17
 from code version 6355fd106 Castep241_branch Thu Mar 7 17:56:19 2024 +0000
 Compiler: GNU Fortran 11.2.0; Optimisation: FAST
 Comms   : MPI VERSION : CRAY MPICH version 8.1.23.14 (ANL base 3.4a2)
 MATHLIBS: default (LAPACK version 3.10.1)
 FFT Lib : fftw3 version commercial-fftw-3.3.10-sse2-avx-avx2-avx2_128
 Fundamental constants values: CODATA 2018

 Run started: Mon, 24 Mar 2025 00:33:29 +0000

 Atomic calculation performed for P: 1s2 2s2 2p6 3s2 3p3

 Converged in 47 iterations to an ae energy of -9309.074 eV

   ============================================================                
   | Pseudopotential Report - Date of generation 24-03-2025   |                
   ------------------------------------------------------------                
   | Element: P Ionic charge:  5.00 Level of theory: RSCAN    |                
   | Atomic Solver: Koelling-Harmon                           |                
   |                                                          |                
   |               Reference Electronic Structure             |                
   |         Orbital         Occupation         Energy        |                
   |            3s              2.000           -0.535        |                
   |            3p              3.000           -0.209        |                
   |                                                          |                
   |                 Pseudopotential Definition               |                
   |        Beta     l      e      Rc     scheme   norm       |                
   |          1      0   -0.535   1.807     qc      0         |                
   |          2      0    0.250   1.807     qc      0         |                
   |          3      1   -0.209   1.807     qc      0         |                
   |          4      1    0.250   1.807     qc      0         |                
   |          5      2    0.000   1.807     qc      0         |                
   |          6      2    0.250   1.807     qc      0         |                
   |         loc     3    0.000   1.807     pn      0         |                
   |                                                          |                
   | Augmentation charge Rinner = 1.263                       |                
   | Partial core correction Rc = 1.263                       |                
   ------------------------------------------------------------                
   | "3|1.8|4|4|5|30:31:32"                                   |                
   ------------------------------------------------------------                
   |      Author: Chris J. Pickard, Cambridge University      |                
   ============================================================                
 Warning: otfg_output_psp cannot write out meta-GGA pseudopotentials presently.

 Atomic calculation performed for In:
 1s2 2s2 2p6 3s2 3p6 3d10 4s2 4p6 4d10 5s2 5p1

 Converged in 84 iterations to an ae energy of -160093.328 eV

   ============================================================                
   | Pseudopotential Report - Date of generation 24-03-2025   |                
   ------------------------------------------------------------                
   | Element: In Ionic charge: 13.00 Level of theory: RSCAN   |                
   | Atomic Solver: Koelling-Harmon                           |                
   |                                                          |                
   |               Reference Electronic Structure             |                
   |         Orbital         Occupation         Energy        |                
   |            4d             10.000           -0.711        |                
   |            5s              2.000           -0.313        |                
   |            5p              1.000           -0.095        |                
   |                                                          |                
   |                 Pseudopotential Definition               |                
   |        Beta     l      e      Rc     scheme   norm       |                
   |          1      0   -0.313   2.501     qc      0         |                
   |          2      0    0.250   2.501     qc      0         |                
   |          3      1   -0.095   2.501     qc      0         |                
   |          4      1    0.250   2.501     qc      0         |                
   |          5      2   -0.711   2.207     qc      0         |                
   |          6      2    0.250   2.207     qc      0         |                
   |         loc     3    0.000   2.501     pn      0         |                
   |                                                          |                
   | Augmentation charge Rinner = 1.504                       |                
   | Partial core correction Rc = 1.504                       |                
   ------------------------------------------------------------                
   | "3|2.5|2.5|1.5|7|8|9|50:51:42U2.2U2.2"                   |                
   ------------------------------------------------------------                
   |      Author: Chris J. Pickard, Cambridge University      |                
   ============================================================                
 Warning: otfg_output_psp cannot write out meta-GGA pseudopotentials presently.

 Pseudo atomic calculation performed for P 3s2 3p3

 Converged in 23 iterations to a total energy of -208.0292 eV

 Pseudo atomic calculation performed for In 4d10 5s2 5p1

 Converged in 42 iterations to a total energy of -1747.4501 eV
 Calculation parallelised over 84 processes.
 Data is distributed by k-point(84-way)
 Each process may use up to 16 threads.

 ************************************ Title ************************************
 

 ***************************** General Parameters ******************************
  
 output verbosity                               : normal  (1)
 write checkpoint data to                       : StackingFaultStructs_001_110_4.check
 type of calculation                            : geometry optimization
 stress calculation                             : off
 density difference calculation                 : off
 electron localisation func (ELF) calculation   : off
 Hirshfeld analysis                             : on
 polarisation (Berry phase) analysis            : off
 molecular orbital projected DOS                : off
 deltaSCF calculation                           : off
 unlimited duration calculation
 timing information                             : on
 memory usage estimate                          : on
 write extra output files                       : on
 write final potential to formatted file        : off
 write final density to formatted file          : off
 write BibTeX reference list                    : on
 write OTFG pseudopotential files               : on
 write electrostatic potential file             : on
 write bands file                               : on
 checkpoint writing                             : off
  
 output         length unit                     : A
 output           mass unit                     : amu
 output           time unit                     : ps
 output         charge unit                     : e
 output           spin unit                     : hbar/2
 output         energy unit                     : eV
 output          force unit                     : eV/A
 output       velocity unit                     : A/ps
 output       pressure unit                     : GPa
 output     inv_length unit                     : 1/A
 output      frequency unit                     : cm-1
 output force constant unit                     : eV/A**2
 output         volume unit                     : A**3
 output   IR intensity unit                     : (D/A)**2/amu
 output         dipole unit                     : D
 output         efield unit                     : eV/A/e
 output        entropy unit                     : J/mol/K
 output    efield chi2 unit                     : pm/V
  
 wavefunctions paging                           : none
 random number generator seed                   :    3329521
 data distribution                              : optimal for this architecture
 optimization strategy                          : balance speed and memory

 *********************** Exchange-Correlation Parameters ***********************
  
 using functional                               : RSCAN
 relativistic treatment                         : Koelling-Harmon
 DFT+D: Semi-empirical dispersion correction    : off

 ************************* Pseudopotential Parameters **************************
  
 pseudopotential representation                 : reciprocal space
 <beta|phi> representation                      : reciprocal space
 spin-orbit coupling                            : off

 **************************** Basis Set Parameters *****************************
  
 plane wave basis set cut-off                   :   900.0000   eV
 size of standard grid                          :     2.0000
 size of   fine   gmax                          :    30.7390   1/A
 finite basis set correction                    : none

 **************************** Electronic Parameters ****************************
  
 number of  electrons                           :  216.0    
 net charge of system                           :  0.000    
 treating system as non-spin-polarized
 number of bands                                :        130

 ********************* Electronic Minimization Parameters **********************
  
 Method: Treating system as metallic with density mixing treatment of electrons,
         and number of  SD  steps               :          1
         and number of  CG  steps               :          4
  
 total energy / atom convergence tol.           : 0.1000E-07   eV
 eigen-energy convergence tolerance             : 0.2222E-08   eV
 max force / atom convergence tol.              : ignored
 convergence tolerance window                   :          3   cycles
 max. number of SCF cycles                      :         50
 number of fixed-spin iterations                :         10
 smearing scheme                                : Gaussian
 smearing width                                 : 0.2000       eV
 Fermi energy convergence tolerance             : 0.2721E-13   eV
 periodic dipole correction                     : NONE

 ************************** Density Mixing Parameters **************************
  
 density-mixing scheme                          : Pulay
 max. length of mixing history                  :         15
 charge density mixing amplitude                : 0.5000    
 cut-off energy for mixing                      :  900.0       eV

 *********************** Population Analysis Parameters ************************
  
 Population analysis with cutoff                :  3.000       A
 Population analysis output                     : summary and pdos components

 ********************** Geometry Optimization Parameters ***********************
  
 optimization method                            : LBFGS
 max. no. of LBFGS updates                      : unbounded
 preconditioned LBFGS is activated
 preconditioner type                            : EXP
     stabilization constant                     :     0.1000
     parameter A                                :     3.0000
     nearest neighbor distance                  : automatic
     cut-off distance                           : automatic
     parameter mu                               : automatic
 variable cell method                           : fixed basis quality
 max. number of steps                           :         30
 estimated bulk modulus                         :  500.0       GPa
 estimated <frequency>                          :  1668.       cm-1
 geom line minimiser                            : on
 with line minimiser tolerance                  :     0.4000
 total energy convergence tolerance             : 0.2000E-04   eV/atom
        max ionic |force| tolerance             : 0.1000E-02   eV/A
 max ionic |displacement| tolerance             : 0.1000E-02   A
   max |stress component| tolerance             : 0.1000       GPa
 convergence tolerance window                   :          2   steps
 backup results every                           :          5   steps
 write geom trajectory file                     : on

 *******************************************************************************
  

                           -------------------------------
                                      Unit Cell
                           -------------------------------
        Real Lattice(A)                      Reciprocal Lattice(1/A)
     4.1725270     0.0000000     0.0000000        1.505846531   0.000000000   0.000000000
     0.0000000     4.1725270     0.0000000        0.000000000   1.505846531  -0.088732841
     0.0000000     2.0862630    35.4050640        0.000000000   0.000000000   0.177465724

                       Lattice parameters(A)       Cell Angles
                    a =      4.172527          alpha =   86.627714
                    b =      4.172527          beta  =   90.000000
                    c =     35.466478          gamma =   90.000000

                       Current cell volume =           616.401512       A**3
                                   density =             2.838249   AMU/A**3
                                           =             4.713024     g/cm^3

                           -------------------------------
                                     Cell Contents
                           -------------------------------
                         Total number of ions in cell =   24
                      Total number of species in cell =    2
                        Max number of any one species =   12

            xxxxxxxxxxxxxxxxxxxxxxxxxxxxxxxxxxxxxxxxxxxxxxxxxxxxxxxxxxxx
            x  Element    Atom        Fractional coordinates of atoms  x
            x            Number           u          v          w      x
            x----------------------------------------------------------x
            x  P            1         0.500000  -0.229179   0.458358   x 
            x  P            2         0.000000   0.395291   0.209417   x 
            x  P            3         0.000000   0.312308   0.375384   x 
            x  P            4         0.000000   0.063494   0.873013   x 
            x  P            5         0.500000  -0.312151   0.624303   x 
            x  P            6         0.000000   0.229334   0.541332   x 
            x  P            7         0.500000  -0.146204   0.292408   x 
            x  P            8         0.500000  -0.395132   0.790264   x 
            x  P            9         0.000000   0.146348   0.707304   x 
            x  P           10         0.000000   0.478476   0.043047   x 
            x  P           11         0.500000  -0.481318   0.962636   x 
            x  P           12         0.500000  -0.063207   0.126414   x 
            x  In           1         0.500000   0.291566   0.416868   x 
            x  In           2         0.000000  -0.415847   0.831693   x 
            x  In           3         0.500000   0.125613   0.748774   x 
            x  In           4         0.000000  -0.332894   0.665788   x 
            x  In           5         0.500000   0.208591   0.582817   x 
            x  In           6         0.000000  -0.249922   0.499844   x 
            x  In           7         0.000000  -0.166944   0.333887   x 
            x  In           8         0.500000   0.042344   0.915312   x 
            x  In           9         0.000000  -0.083889   0.167777   x 
            x  In          10         0.500000   0.457752   0.084497   x 
            x  In          11         0.000000   0.001013  -0.002025   x 
            x  In          12         0.500000   0.374555   0.250889   x 
            xxxxxxxxxxxxxxxxxxxxxxxxxxxxxxxxxxxxxxxxxxxxxxxxxxxxxxxxxxxx


                         No user defined ionic velocities

                           -------------------------------
                                   Details of Species
                           -------------------------------

                               Mass of species in AMU
                                    P   30.9737600
                                    In  114.8180000

                          Electric Quadrupole Moment (Barn)
                                    P    1.0000000 No Isotope Defined
                                    In    0.7700000 Isotope115

                          Files used for pseudopotentials:
                                    P 3|1.8|4|4|5|30:31:32
                                    In 3|2.5|2.5|1.5|7|8|9|50:51:42U2.2U2.2

                           -------------------------------
                              k-Points For BZ Sampling
                           -------------------------------
                       MP grid size for SCF calculation is  8 10  2
                            with an offset of   0.062  0.050  0.250
                       Number of kpoints used =            84

                           -------------------------------
                               Symmetry and Constraints
                           -------------------------------

                      Maximum deviation from symmetry =  0.00000         ANG

                      Number of symmetry operations   =           1
                      Number of ionic constraints     =          48
                      Point group of crystal =     1: C1, 1, 1
                      Space group of crystal =    38: Amm2, A 2 -2

             Set iprint > 1 for details on symmetry rotations/translations

                         Centre of mass is NOT constrained
             Set iprint > 1 for details of linear ionic constraints

                         Number of cell constraints= 6
                         Cell constraints are:  0 0 0 0 0 0

                         External pressure/stress (GPa)
                          0.00000   0.00000   0.00000
                                    0.00000   0.00000
                                              0.00000
 
+---------------- MEMORY AND SCRATCH DISK ESTIMATES PER PROCESS --------------+
|                                                     Memory          Disk    |
| Baseline code, static data and system overhead      386.0 MB         0.0 MB |
| BLAS internal memory storage                          0.0 MB         0.0 MB |
| Model and support data                             4597.5 MB         0.0 MB |
| Electronic energy minimisation requirements         524.8 MB         0.0 MB |
| Force calculation requirements                      105.7 MB         0.0 MB |
|                                               ----------------------------- |
| Approx. total storage required per process         5508.3 MB         0.0 MB |
|                                                                             |
| Requirements will fluctuate during execution and may exceed these estimates |
+-----------------------------------------------------------------------------+
Calculating approximate eigenstates for fixed initial Hamiltonian
Cut-off for approx. calculation is   89.988 eV
Improving approx. states at cut-off of  450.000 eV
Resetting cut-off to  900.000 eV
Calculating total energy with cut-off of  900.000 eV.
------------------------------------------------------------------------ <-- SCF
SCF loop      Energy           Fermi           Energy gain       Timer   <-- SCF
                               energy          per atom          (sec)   <-- SCF
------------------------------------------------------------------------ <-- SCF
Initial  -2.36458168E+004  0.00000000E+000                        77.73  <-- SCF
      1  -2.35498052E+004  2.55715991E+000  -4.00048424E+000     118.03  <-- SCF
      2  -2.35498791E+004  2.55646578E+000   3.07725850E-003     149.63  <-- SCF
      3  -2.35750518E+004  2.81181252E+000   1.04886341E+000     184.41  <-- SCF
      4  -2.35795416E+004  2.85419291E+000   1.87075476E-001     229.39  <-- SCF
      5  -2.35768211E+004  3.05700284E+000  -1.13354563E-001     263.45  <-- SCF
      6  -2.35772056E+004  3.08555698E+000   1.60210940E-002     300.30  <-- SCF
      7  -2.35771276E+004  3.14165933E+000  -3.25127672E-003     337.53  <-- SCF
      8  -2.35775091E+004  3.13981704E+000   1.58980541E-002     373.54  <-- SCF
      9  -2.35776798E+004  3.13275943E+000   7.11086973E-003     411.25  <-- SCF
     10  -2.35776871E+004  3.13280756E+000   3.06522867E-004     450.44  <-- SCF
     11  -2.35776884E+004  3.12988962E+000   5.46184707E-005     488.21  <-- SCF
     12  -2.35776886E+004  3.13292863E+000   5.71201681E-006     528.44  <-- SCF
     13  -2.35776886E+004  3.13269696E+000   2.72831659E-007     562.01  <-- SCF
     14  -2.35776886E+004  3.13355478E+000  -3.63843260E-008     596.86  <-- SCF
     15  -2.35776886E+004  3.13392305E+000  -1.50332992E-007     630.42  <-- SCF
     16  -2.35776886E+004  3.13442932E+000  -2.58036501E-008     663.29  <-- SCF
     17  -2.35776886E+004  3.13446545E+000  -5.55387202E-009     691.92  <-- SCF
     18  -2.35776886E+004  3.13455722E+000   7.46454217E-009     719.97  <-- SCF
------------------------------------------------------------------------ <-- SCF
 
Final energy, E             =  -23577.65023954     eV
Final free energy (E-TS)    =  -23577.68858448     eV
(energies not corrected for finite basis set)
 
NB est. 0K energy (E-0.5TS)      =  -23577.66941201     eV
 
 
+---------------- MEMORY AND SCRATCH DISK ESTIMATES PER PROCESS --------------+
|                                                     Memory          Disk    |
| Model and support data                             2667.6 MB         0.0 MB |
| Electronic energy minimisation requirements         524.8 MB         0.0 MB |
| Geometry minimisation requirements                  612.2 MB         0.0 MB |
|                                               ----------------------------- |
| Approx. total storage required per process         3804.5 MB         0.0 MB |
|                                                                             |
| Requirements will fluctuate during execution and may exceed these estimates |
+-----------------------------------------------------------------------------+
 

 ******************************** Constrained Forces ********************************
 *                                                                                  *
 *                           Cartesian components (eV/A)                            *
 * -------------------------------------------------------------------------------- *
 *                         x                    y                    z              *
 *                                                                                  *
 * P               1      0.00000(cons'd)     -0.00000(cons'd)      0.00747         *
 * P               2      0.00000(cons'd)     -0.00000(cons'd)     -0.00483         *
 * P               3      0.00000(cons'd)      0.00000(cons'd)      0.00714         *
 * P               4      0.00000(cons'd)     -0.00000(cons'd)      0.08513         *
 * P               5     -0.00000(cons'd)     -0.00000(cons'd)     -0.00423         *
 * P               6      0.00000(cons'd)      0.00000(cons'd)     -0.00333         *
 * P               7      0.00000(cons'd)      0.00000(cons'd)      0.00920         *
 * P               8     -0.00000(cons'd)      0.00000(cons'd)     -0.02720         *
 * P               9      0.00000(cons'd)      0.00000(cons'd)     -0.01647         *
 * P              10      0.00000(cons'd)      0.00000(cons'd)      0.11061         *
 * P              11     -0.00000(cons'd)      0.00000(cons'd)     -0.24093         *
 * P              12      0.00000(cons'd)      0.00000(cons'd)     -0.04593         *
 * In              1      0.00000(cons'd)      0.00000(cons'd)     -0.00526         *
 * In              2      0.00000(cons'd)      0.00000(cons'd)      0.00078         *
 * In              3      0.00000(cons'd)      0.00000(cons'd)      0.00646         *
 * In              4      0.00000(cons'd)      0.00000(cons'd)      0.00578         *
 * In              5      0.00000(cons'd)      0.00000(cons'd)     -0.00258         *
 * In              6      0.00000(cons'd)      0.00000(cons'd)     -0.00417         *
 * In              7      0.00000(cons'd)      0.00000(cons'd)     -0.00611         *
 * In              8      0.00000(cons'd)      0.00000(cons'd)      0.16384         *
 * In              9      0.00000(cons'd)      0.00000(cons'd)      0.01000         *
 * In             10      0.00000(cons'd)      0.00000(cons'd)      0.19108         *
 * In             11      0.00000(cons'd)      0.00000(cons'd)     -0.22927         *
 * In             12      0.00000(cons'd)      0.00000(cons'd)     -0.00715         *
 *                                                                                  *
 ************************************************************************************
 EXP precond LBFGS => estimated nearest neighbor distance :  2.676       A
 EXP precond LBFGS => estimated cutoff distance :  5.352       A

 ************************************** Forces **************************************
 *                                                                                  *
 *                           Cartesian components (eV/A)                            *
 * -------------------------------------------------------------------------------- *
 *                         x                    y                    z              *
 *                                                                                  *
 * P               1      0.00000(cons'd)      0.00450(cons'd)      0.00747         *
 * P               2     -0.00000(cons'd)      0.00499(cons'd)     -0.00483         *
 * P               3     -0.00000(cons'd)     -0.00118(cons'd)      0.00714         *
 * P               4     -0.00000(cons'd)      0.00404(cons'd)      0.08513         *
 * P               5      0.00000(cons'd)      0.00392(cons'd)     -0.00423         *
 * P               6     -0.00000(cons'd)     -0.00559(cons'd)     -0.00333         *
 * P               7      0.00000(cons'd)     -0.00130(cons'd)      0.00920         *
 * P               8      0.00000(cons'd)     -0.00395(cons'd)     -0.02720         *
 * P               9     -0.00000(cons'd)      0.00165(cons'd)     -0.01647         *
 * P              10     -0.00000(cons'd)     -0.00020(cons'd)      0.11061         *
 * P              11      0.00000(cons'd)     -0.00338(cons'd)     -0.24093         *
 * P              12      0.00000(cons'd)     -0.00276(cons'd)     -0.04593         *
 * In              1      0.00000(cons'd)     -0.00022(cons'd)     -0.00526         *
 * In              2     -0.00000(cons'd)     -0.00036(cons'd)      0.00078         *
 * In              3      0.00000(cons'd)      0.00014(cons'd)      0.00646         *
 * In              4     -0.00000(cons'd)     -0.00009(cons'd)      0.00578         *
 * In              5      0.00000(cons'd)     -0.00024(cons'd)     -0.00258         *
 * In              6     -0.00000(cons'd)      0.00016(cons'd)     -0.00417         *
 * In              7     -0.00000(cons'd)     -0.00013(cons'd)     -0.00611         *
 * In              8      0.00000(cons'd)      0.00013(cons'd)      0.16384         *
 * In              9     -0.00000(cons'd)     -0.00035(cons'd)      0.01000         *
 * In             10      0.00000(cons'd)      0.00007(cons'd)      0.19108         *
 * In             11      0.00000(cons'd)     -0.00005(cons'd)     -0.22927         *
 * In             12      0.00000(cons'd)      0.00019(cons'd)     -0.00715         *
 *                                                                                  *
 ************************************************************************************
 doing test perturbation to get energy scale for EXP preconditioner

                           -------------------------------
                                     Cell Contents
                           -------------------------------

            xxxxxxxxxxxxxxxxxxxxxxxxxxxxxxxxxxxxxxxxxxxxxxxxxxxxxxxxxxxxxxxxx
            x  Element         Atom        Fractional coordinates of atoms  x
            x                 Number           u          v          w      x
            x---------------------------------------------------------------x
            x  P                 1         0.505396   0.776478   0.458707   x
            x  P                 2         0.000000   0.400605   0.209582   x
            x  P                 3         0.000000   0.317560   0.375673   x
            x  P                 4         0.000000   0.068591   0.873611   x
            x  P                 5         0.505396   0.693450   0.624762   x
            x  P                 6         0.000000   0.234527   0.541738   x
            x  P                 7         0.505396   0.859513   0.292636   x
            x  P                 8         0.505396   0.610421   0.790821   x
            x  P                 9         0.000000   0.151489   0.707814   x
            x  P                10         0.000000   0.483856   0.043081   x
            x  P                11         0.505396   0.524194   0.963275   x
            x  P                12         0.505396   0.942574   0.126514   x
            x  In                1         0.505396   0.296802   0.417187   x
            x  In                2         0.000000   0.589696   0.832271   x
            x  In                3         0.505396   0.130743   0.749307   x
            x  In                4         0.000000   0.672695   0.666273   x
            x  In                5         0.505396   0.213771   0.583250   x
            x  In                6         0.000000   0.755720   0.500222   x
            x  In                7         0.000000   0.838758   0.334146   x
            x  In                8         0.505396   0.047431   0.915930   x
            x  In                9         0.000000   0.921876   0.167910   x
            x  In               10         0.505396   0.463114   0.084563   x
            x  In               11         0.000000   0.006082   0.998628   x
            x  In               12         0.505396   0.379854   0.251085   x
            xxxxxxxxxxxxxxxxxxxxxxxxxxxxxxxxxxxxxxxxxxxxxxxxxxxxxxxxxxxxxxxxx


------------------------------------------------------------------------ <-- SCF
SCF loop      Energy           Fermi           Energy gain       Timer   <-- SCF
                               energy          per atom          (sec)   <-- SCF
------------------------------------------------------------------------ <-- SCF
Initial  -2.35756800E+004  0.00000000E+000                       801.36  <-- SCF
      1  -2.35774314E+004  3.14260711E+000   7.29766279E-002     839.26  <-- SCF
      2  -2.35776555E+004  3.14243750E+000   9.33527832E-003     881.83  <-- SCF
      3  -2.35776582E+004  3.14378281E+000   1.13020575E-004     918.15  <-- SCF
      4  -2.35776599E+004  3.14316220E+000   7.27314373E-005     955.36  <-- SCF
      5  -2.35776601E+004  3.14317200E+000   7.41580017E-006    1001.20  <-- SCF
      6  -2.35776602E+004  3.14298874E+000   2.16538518E-006    1038.33  <-- SCF
      7  -2.35776602E+004  3.14284445E+000   1.14819766E-007    1071.89  <-- SCF
      8  -2.35776602E+004  3.14266722E+000  -1.51779884E-008    1103.54  <-- SCF
      9  -2.35776602E+004  3.14246041E+000  -4.22130107E-008    1133.82  <-- SCF
     10  -2.35776602E+004  3.14211162E+000  -4.63853431E-008    1164.54  <-- SCF
     11  -2.35776602E+004  3.14186682E+000  -1.46745088E-008    1194.45  <-- SCF
     12  -2.35776602E+004  3.14173289E+000  -3.95436410E-009    1225.04  <-- SCF
     13  -2.35776602E+004  3.14168460E+000  -1.25985901E-009    1253.53  <-- SCF
------------------------------------------------------------------------ <-- SCF
 
Final energy, E             =  -23577.62208575     eV
Final free energy (E-TS)    =  -23577.66016477     eV
(energies not corrected for finite basis set)
 
NB est. 0K energy (E-0.5TS)      =  -23577.64112526     eV
 

 ************************************** Forces **************************************
 *                                                                                  *
 *                           Cartesian components (eV/A)                            *
 * -------------------------------------------------------------------------------- *
 *                         x                    y                    z              *
 *                                                                                  *
 * P               1     -0.18931(cons'd)     -0.01373(cons'd)      0.00091         *
 * P               2      0.18998(cons'd)      0.01540(cons'd)     -0.01317         *
 * P               3      0.18997(cons'd)      0.01035(cons'd)      0.00425         *
 * P               4      0.17128(cons'd)      0.01541(cons'd)      0.07543         *
 * P               5     -0.18690(cons'd)     -0.02035(cons'd)     -0.00917         *
 * P               6      0.18995(cons'd)      0.01653(cons'd)     -0.00516         *
 * P               7     -0.18977(cons'd)     -0.01155(cons'd)      0.00038         *
 * P               8     -0.18759(cons'd)     -0.01834(cons'd)     -0.03905         *
 * P               9      0.19014(cons'd)      0.02093(cons'd)     -0.02582         *
 * P              10      0.18821(cons'd)      0.00557(cons'd)      0.21201         *
 * P              11     -0.02189(cons'd)      0.00419(cons'd)     -0.26934         *
 * P              12     -0.18689(cons'd)     -0.01853(cons'd)     -0.05652         *
 * In              1     -0.16021(cons'd)      0.01255(cons'd)      0.00221         *
 * In              2      0.15748(cons'd)     -0.01342(cons'd)      0.00700         *
 * In              3     -0.16069(cons'd)      0.01292(cons'd)      0.01299         *
 * In              4      0.15795(cons'd)     -0.01310(cons'd)      0.01275         *
 * In              5     -0.16019(cons'd)      0.01294(cons'd)      0.00462         *
 * In              6      0.15785(cons'd)     -0.01286(cons'd)      0.00315         *
 * In              7      0.15789(cons'd)     -0.01258(cons'd)      0.00161         *
 * In              8     -0.14944(cons'd)      0.00245(cons'd)      0.16878         *
 * In              9      0.15909(cons'd)     -0.01286(cons'd)      0.01955         *
 * In             10     -0.15988(cons'd)      0.01153(cons'd)      0.22174         *
 * In             11      0.00321(cons'd)     -0.00604(cons'd)     -0.33018         *
 * In             12     -0.16024(cons'd)      0.01257(cons'd)      0.00103         *
 *                                                                                  *
 ************************************************************************************
 EXP precond LBFGS => estimated parameter mu :  3.547       eV/A**2
 LBFGS: finished iteration     0 with enthalpy= -2.35776886E+004 eV
  
 +-----------+-----------------+-----------------+------------+-----+ <-- LBFGS
 | Parameter |      value      |    tolerance    |    units   | OK? | <-- LBFGS
 +-----------+-----------------+-----------------+------------+-----+ <-- LBFGS
 |  dE/ion   |   0.000000E+000 |   2.000000E-005 |         eV | No  | <-- LBFGS
 |  |F|max   |   3.302540E-001 |   1.000000E-003 |       eV/A | No  | <-- LBFGS
 |  |dR|max  |   7.523731E-015 |   1.000000E-003 |          A | No  | <-- LBFGS
 +-----------+-----------------+-----------------+------------+-----+ <-- LBFGS
  

================================================================================
 Starting LBFGS iteration          1 ...
================================================================================
  
 +------------+-------------+-------------+-----------------+ <-- min LBFGS
 |    Step    |   lambda    |   F.delta'  |    enthalpy     | <-- min LBFGS
 +------------+-------------+-------------+-----------------+ <-- min LBFGS
 |  previous  |    0.000000 |    0.465140 |   -23577.688584 | <-- min LBFGS
 +------------+-------------+-------------+-----------------+ <-- min LBFGS
  

--------------------------------------------------------------------------------
 LBFGS: starting iteration         1 with trial guess (lambda=  1.000000)
--------------------------------------------------------------------------------

                           -------------------------------
                                     Cell Contents
                           -------------------------------

            xxxxxxxxxxxxxxxxxxxxxxxxxxxxxxxxxxxxxxxxxxxxxxxxxxxxxxxxxxxxxxxxx
            x  Element         Atom        Fractional coordinates of atoms  x
            x                 Number           u          v          w      x
            x---------------------------------------------------------------x
            x  P                 1         0.500000  -0.229192   0.458384   x
            x  P                 2         0.000000   0.395224   0.209551   x
            x  P                 3         0.000000   0.312276   0.375448   x
            x  P                 4         0.000000   0.063381   0.873238   x
            x  P                 5         0.500000  -0.312123   0.624246   x
            x  P                 6         0.000000   0.229353   0.541295   x
            x  P                 7         0.500000  -0.146257   0.292514   x
            x  P                 8         0.500000  -0.395108   0.790216   x
            x  P                 9         0.000000   0.146387   0.707226   x
            x  P                10         0.000000   0.478410   0.043180   x
            x  P                11         0.500000  -0.480899   0.961798   x
            x  P                12         0.500000  -0.063289   0.126578   x
            x  In                1         0.500000   0.291553   0.416894   x
            x  In                2         0.000000  -0.415876   0.831752   x
            x  In                3         0.500000   0.125626   0.748748   x
            x  In                4         0.000000  -0.332872   0.665743   x
            x  In                5         0.500000   0.208616   0.582768   x
            x  In                6         0.000000  -0.249914   0.499827   x
            x  In                7         0.000000  -0.166975   0.333950   x
            x  In                8         0.500000   0.042266   0.915467   x
            x  In                9         0.000000  -0.083984   0.167969   x
            x  In               10         0.500000   0.457478   0.085044   x
            x  In               11         0.000000   0.001412  -0.002823   x
            x  In               12         0.500000   0.374507   0.250986   x
            xxxxxxxxxxxxxxxxxxxxxxxxxxxxxxxxxxxxxxxxxxxxxxxxxxxxxxxxxxxxxxxxx


------------------------------------------------------------------------ <-- SCF
SCF loop      Energy           Fermi           Energy gain       Timer   <-- SCF
                               energy          per atom          (sec)   <-- SCF
------------------------------------------------------------------------ <-- SCF
Initial  -2.35752414E+004  0.00000000E+000                      1298.94  <-- SCF
      1  -2.35774321E+004  3.11348337E+000   9.12829711E-002    1339.74  <-- SCF
      2  -2.35776947E+004  3.11322377E+000   1.09405949E-002    1384.25  <-- SCF
      3  -2.35776979E+004  3.11262098E+000   1.31602150E-004    1423.27  <-- SCF
      4  -2.35776998E+004  3.11420371E+000   8.10337374E-005    1463.83  <-- SCF
      5  -2.35777000E+004  3.11452084E+000   7.96592687E-006    1510.30  <-- SCF
      6  -2.35777000E+004  3.11512020E+000   1.46676849E-006    1550.79  <-- SCF
      7  -2.35777000E+004  3.11582414E+000   1.28847072E-007    1586.99  <-- SCF
      8  -2.35777000E+004  3.11670327E+000  -1.16466322E-007    1621.24  <-- SCF
      9  -2.35777000E+004  3.11728854E+000  -7.15473338E-008    1651.65  <-- SCF
     10  -2.35777000E+004  3.11842234E+000  -8.13676345E-008    1682.63  <-- SCF
     11  -2.35777000E+004  3.11894129E+000  -1.94788330E-008    1713.29  <-- SCF
     12  -2.35777000E+004  3.11924536E+000  -9.98181111E-009    1743.79  <-- SCF
     13  -2.35777000E+004  3.11936530E+000  -3.95075492E-009    1773.58  <-- SCF
     14  -2.35777000E+004  3.11940145E+000  -8.50346826E-010    1801.22  <-- SCF
------------------------------------------------------------------------ <-- SCF
 
Final energy, E             =  -23577.66062532     eV
Final free energy (E-TS)    =  -23577.70004166     eV
(energies not corrected for finite basis set)
 
NB est. 0K energy (E-0.5TS)      =  -23577.68033349     eV
 

 ******************************** Constrained Forces ********************************
 *                                                                                  *
 *                           Cartesian components (eV/A)                            *
 * -------------------------------------------------------------------------------- *
 *                         x                    y                    z              *
 *                                                                                  *
 * P               1     -0.00000(cons'd)     -0.00000(cons'd)     -0.00187         *
 * P               2      0.00000(cons'd)     -0.00000(cons'd)     -0.00286         *
 * P               3      0.00000(cons'd)      0.00000(cons'd)     -0.00069         *
 * P               4      0.00000(cons'd)     -0.00000(cons'd)      0.01418         *
 * P               5     -0.00000(cons'd)      0.00000(cons'd)     -0.00310         *
 * P               6      0.00000(cons'd)      0.00000(cons'd)     -0.00296         *
 * P               7     -0.00000(cons'd)      0.00000(cons'd)     -0.00210         *
 * P               8     -0.00000(cons'd)      0.00000(cons'd)     -0.00501         *
 * P               9      0.00000(cons'd)     -0.00000(cons'd)     -0.00209         *
 * P              10      0.00000(cons'd)      0.00000(cons'd)      0.02586         *
 * P              11      0.00000(cons'd)      0.00000(cons'd)     -0.06952         *
 * P              12     -0.00000(cons'd)      0.00000(cons'd)      0.02604         *
 * In              1      0.00000(cons'd)      0.00000(cons'd)      0.00290         *
 * In              2      0.00000(cons'd)      0.00000(cons'd)      0.01938         *
 * In              3      0.00000(cons'd)      0.00000(cons'd)     -0.00176         *
 * In              4      0.00000(cons'd)      0.00000(cons'd)      0.00033         *
 * In              5      0.00000(cons'd)      0.00000(cons'd)      0.00134         *
 * In              6     -0.00000(cons'd)     -0.00000(cons'd)      0.00194         *
 * In              7      0.00000(cons'd)      0.00000(cons'd)      0.00310         *
 * In              8      0.00000(cons'd)     -0.00000(cons'd)      0.01814         *
 * In              9     -0.00000(cons'd)      0.00000(cons'd)      0.00239         *
 * In             10      0.00000(cons'd)      0.00000(cons'd)      0.00608         *
 * In             11      0.00000(cons'd)      0.00000(cons'd)     -0.03302         *
 * In             12      0.00000(cons'd)      0.00000(cons'd)      0.00330         *
 *                                                                                  *
 ************************************************************************************
  
 +------------+-------------+-------------+-----------------+ <-- min LBFGS
 |    Step    |   lambda    |   F.delta'  |    enthalpy     | <-- min LBFGS
 +------------+-------------+-------------+-----------------+ <-- min LBFGS
 |  previous  |    0.000000 |    0.465140 |   -23577.688584 | <-- min LBFGS
 | trial step |    1.000000 |    0.088409 |   -23577.700042 | <-- min LBFGS
 +------------+-------------+-------------+-----------------+ <-- min LBFGS
  
 LBFGS: finished iteration     1 with enthalpy= -2.35777000E+004 eV
  
 +-----------+-----------------+-----------------+------------+-----+ <-- LBFGS
 | Parameter |      value      |    tolerance    |    units   | OK? | <-- LBFGS
 +-----------+-----------------+-----------------+------------+-----+ <-- LBFGS
 |  dE/ion   |   4.773826E-004 |   2.000000E-005 |         eV | No  | <-- LBFGS
 |  |F|max   |   6.952049E-002 |   1.000000E-003 |       eV/A | No  | <-- LBFGS
 |  |dR|max  |   2.966291E-002 |   1.000000E-003 |          A | No  | <-- LBFGS
 +-----------+-----------------+-----------------+------------+-----+ <-- LBFGS
  

================================================================================
 Starting LBFGS iteration          2 ...
================================================================================
  
 +------------+-------------+-------------+-----------------+ <-- min LBFGS
 |    Step    |   lambda    |   F.delta'  |    enthalpy     | <-- min LBFGS
 +------------+-------------+-------------+-----------------+ <-- min LBFGS
 |  previous  |    0.000000 |    0.084030 |   -23577.700042 | <-- min LBFGS
 +------------+-------------+-------------+-----------------+ <-- min LBFGS
  

--------------------------------------------------------------------------------
 LBFGS: starting iteration         2 with trial guess (lambda=  1.000000)
--------------------------------------------------------------------------------

                           -------------------------------
                                     Cell Contents
                           -------------------------------

            xxxxxxxxxxxxxxxxxxxxxxxxxxxxxxxxxxxxxxxxxxxxxxxxxxxxxxxxxxxxxxxxx
            x  Element         Atom        Fractional coordinates of atoms  x
            x                 Number           u          v          w      x
            x---------------------------------------------------------------x
            x  P                 1         0.500000  -0.229204   0.458408   x
            x  P                 2         0.000000   0.395179   0.209642   x
            x  P                 3         0.000000   0.312249   0.375502   x
            x  P                 4         0.000000   0.063380   0.873239   x
            x  P                 5         0.500000  -0.312112   0.624224   x
            x  P                 6         0.000000   0.229355   0.541289   x
            x  P                 7         0.500000  -0.146293   0.292585   x
            x  P                 8         0.500000  -0.395101   0.790202   x
            x  P                 9         0.000000   0.146399   0.707201   x
            x  P                10         0.000000   0.478413   0.043174   x
            x  P                11         0.500000  -0.480702   0.961404   x
            x  P                12         0.500000  -0.063368   0.126736   x
            x  In                1         0.500000   0.291529   0.416941   x
            x  In                2         0.000000  -0.415897   0.831795   x
            x  In                3         0.500000   0.125636   0.748728   x
            x  In                4         0.000000  -0.332862   0.665724   x
            x  In                5         0.500000   0.208619   0.582761   x
            x  In                6        -0.000000  -0.249922   0.499844   x
            x  In                7         0.000000  -0.167010   0.334021   x
            x  In                8         0.500000   0.042312   0.915376   x
            x  In                9        -0.000000  -0.084043   0.168087   x
            x  In               10         0.500000   0.457444   0.085112   x
            x  In               11         0.000000   0.001536  -0.003072   x
            x  In               12         0.500000   0.374461   0.251078   x
            xxxxxxxxxxxxxxxxxxxxxxxxxxxxxxxxxxxxxxxxxxxxxxxxxxxxxxxxxxxxxxxxx


------------------------------------------------------------------------ <-- SCF
SCF loop      Energy           Fermi           Energy gain       Timer   <-- SCF
                               energy          per atom          (sec)   <-- SCF
------------------------------------------------------------------------ <-- SCF
Initial  -2.35776697E+004  0.00000000E+000                      1847.32  <-- SCF
      1  -2.35776983E+004  3.11370988E+000   1.19255030E-003    1887.89  <-- SCF
      2  -2.35777008E+004  3.11370204E+000   1.03797316E-004    1931.96  <-- SCF
      3  -2.35777008E+004  3.11399299E+000   1.11646091E-006    1971.80  <-- SCF
      4  -2.35777008E+004  3.11375130E+000   6.24821365E-007    2010.59  <-- SCF
      5  -2.35777008E+004  3.11365420E+000   9.55251293E-008    2041.75  <-- SCF
      6  -2.35777008E+004  3.11359809E+000   2.43659104E-008    2070.36  <-- SCF
      7  -2.35777008E+004  3.11358430E+000   3.66356791E-009    2098.99  <-- SCF
      8  -2.35777008E+004  3.11361185E+000  -1.07553341E-009    2127.13  <-- SCF
------------------------------------------------------------------------ <-- SCF
 
Final energy, E             =  -23577.66120266     eV
Final free energy (E-TS)    =  -23577.70082634     eV
(energies not corrected for finite basis set)
 
NB est. 0K energy (E-0.5TS)      =  -23577.68101450     eV
 

 ******************************** Constrained Forces ********************************
 *                                                                                  *
 *                           Cartesian components (eV/A)                            *
 * -------------------------------------------------------------------------------- *
 *                         x                    y                    z              *
 *                                                                                  *
 * P               1      0.00000(cons'd)      0.00000(cons'd)      0.00094         *
 * P               2      0.00000(cons'd)      0.00000(cons'd)      0.00266         *
 * P               3      0.00000(cons'd)      0.00000(cons'd)      0.00168         *
 * P               4      0.00000(cons'd)      0.00000(cons'd)     -0.00147         *
 * P               5     -0.00000(cons'd)      0.00000(cons'd)     -0.00006         *
 * P               6      0.00000(cons'd)      0.00000(cons'd)      0.00048         *
 * P               7      0.00000(cons'd)      0.00000(cons'd)      0.00132         *
 * P               8      0.00000(cons'd)      0.00000(cons'd)      0.00320         *
 * P               9      0.00000(cons'd)     -0.00000(cons'd)     -0.00055         *
 * P              10      0.00000(cons'd)      0.00000(cons'd)      0.00035         *
 * P              11     -0.00000(cons'd)      0.00000(cons'd)     -0.01514         *
 * P              12     -0.00000(cons'd)      0.00000(cons'd)     -0.00058         *
 * In              1      0.00000(cons'd)      0.00000(cons'd)      0.00033         *
 * In              2      0.00000(cons'd)      0.00000(cons'd)     -0.00064         *
 * In              3      0.00000(cons'd)      0.00000(cons'd)      0.00144         *
 * In              4      0.00000(cons'd)      0.00000(cons'd)     -0.00018         *
 * In              5      0.00000(cons'd)      0.00000(cons'd)     -0.00031         *
 * In              6      0.00000(cons'd)      0.00000(cons'd)     -0.00000         *
 * In              7      0.00000(cons'd)      0.00000(cons'd)      0.00036         *
 * In              8      0.00000(cons'd)      0.00000(cons'd)     -0.00719         *
 * In              9      0.00000(cons'd)      0.00000(cons'd)      0.00199         *
 * In             10      0.00000(cons'd)      0.00000(cons'd)      0.00068         *
 * In             11      0.00000(cons'd)      0.00000(cons'd)      0.01136         *
 * In             12      0.00000(cons'd)      0.00000(cons'd)     -0.00067         *
 *                                                                                  *
 ************************************************************************************
  
 +------------+-------------+-------------+-----------------+ <-- min LBFGS
 |    Step    |   lambda    |   F.delta'  |    enthalpy     | <-- min LBFGS
 +------------+-------------+-------------+-----------------+ <-- min LBFGS
 |  previous  |    0.000000 |    0.084030 |   -23577.700042 | <-- min LBFGS
 | trial step |    1.000000 |    0.009117 |   -23577.700826 | <-- min LBFGS
 +------------+-------------+-------------+-----------------+ <-- min LBFGS
  
 LBFGS: finished iteration     2 with enthalpy= -2.35777008E+004 eV
  
 +-----------+-----------------+-----------------+------------+-----+ <-- LBFGS
 | Parameter |      value      |    tolerance    |    units   | OK? | <-- LBFGS
 +-----------+-----------------+-----------------+------------+-----+ <-- LBFGS
 |  dE/ion   |   3.269491E-005 |   2.000000E-005 |         eV | No  | <-- LBFGS
 |  |F|max   |   1.514117E-002 |   1.000000E-003 |       eV/A | No  | <-- LBFGS
 |  |dR|max  |   1.397389E-002 |   1.000000E-003 |          A | No  | <-- LBFGS
 +-----------+-----------------+-----------------+------------+-----+ <-- LBFGS
  

================================================================================
 Starting LBFGS iteration          3 ...
================================================================================
  
 +------------+-------------+-------------+-----------------+ <-- min LBFGS
 |    Step    |   lambda    |   F.delta'  |    enthalpy     | <-- min LBFGS
 +------------+-------------+-------------+-----------------+ <-- min LBFGS
 |  previous  |    0.000000 |    0.015363 |   -23577.700826 | <-- min LBFGS
 +------------+-------------+-------------+-----------------+ <-- min LBFGS
  

--------------------------------------------------------------------------------
 LBFGS: starting iteration         3 with trial guess (lambda=  1.000000)
--------------------------------------------------------------------------------

                           -------------------------------
                                     Cell Contents
                           -------------------------------

            xxxxxxxxxxxxxxxxxxxxxxxxxxxxxxxxxxxxxxxxxxxxxxxxxxxxxxxxxxxxxxxxx
            x  Element         Atom        Fractional coordinates of atoms  x
            x                 Number           u          v          w      x
            x---------------------------------------------------------------x
            x  P                 1         0.500000  -0.229218   0.458436   x
            x  P                 2         0.000000   0.395158   0.209683   x
            x  P                 3         0.000000   0.312229   0.375541   x
            x  P                 4         0.000000   0.063408   0.873184   x
            x  P                 5         0.500000  -0.312112   0.624224   x
            x  P                 6         0.000000   0.229348   0.541303   x
            x  P                 7         0.500000  -0.146313   0.292626   x
            x  P                 8         0.500000  -0.395093   0.790185   x
            x  P                 9         0.000000   0.146404   0.707191   x
            x  P                10         0.000000   0.478417   0.043166   x
            x  P                11         0.500000  -0.480639   0.961279   x
            x  P                12         0.500000  -0.063379   0.126758   x
            x  In                1         0.500000   0.291513   0.416975   x
            x  In                2         0.000000  -0.415880   0.831760   x
            x  In                3         0.500000   0.125641   0.748718   x
            x  In                4         0.000000  -0.332860   0.665720   x
            x  In                5         0.500000   0.208616   0.582768   x
            x  In                6        -0.000000  -0.249932   0.499865   x
            x  In                7         0.000000  -0.167030   0.334060   x
            x  In                8         0.500000   0.042355   0.915290   x
            x  In                9        -0.000000  -0.084061   0.168122   x
            x  In               10         0.500000   0.457439   0.085121   x
            x  In               11         0.000000   0.001546  -0.003091   x
            x  In               12         0.500000   0.374443   0.251115   x
            xxxxxxxxxxxxxxxxxxxxxxxxxxxxxxxxxxxxxxxxxxxxxxxxxxxxxxxxxxxxxxxxx


------------------------------------------------------------------------ <-- SCF
SCF loop      Energy           Fermi           Energy gain       Timer   <-- SCF
                               energy          per atom          (sec)   <-- SCF
------------------------------------------------------------------------ <-- SCF
Initial  -2.35776724E+004  0.00000000E+000                      2172.02  <-- SCF
      1  -2.35777005E+004  3.11358805E+000   1.17157803E-003    2212.36  <-- SCF
      2  -2.35777009E+004  3.11358721E+000   1.42255763E-005    2254.95  <-- SCF
      3  -2.35777009E+004  3.11394207E+000   1.96876365E-007    2291.82  <-- SCF
      4  -2.35777009E+004  3.11395186E+000   1.23406245E-007    2326.75  <-- SCF
      5  -2.35777009E+004  3.11395246E+000   1.23138522E-008    2354.43  <-- SCF
      6  -2.35777009E+004  3.11394177E+000   4.42819689E-009    2381.96  <-- SCF
      7  -2.35777009E+004  3.11393995E+000   4.90976362E-010    2409.13  <-- SCF
------------------------------------------------------------------------ <-- SCF
 
Final energy, E             =  -23577.66145399     eV
Final free energy (E-TS)    =  -23577.70089611     eV
(energies not corrected for finite basis set)
 
NB est. 0K energy (E-0.5TS)      =  -23577.68117505     eV
 

 ******************************** Constrained Forces ********************************
 *                                                                                  *
 *                           Cartesian components (eV/A)                            *
 * -------------------------------------------------------------------------------- *
 *                         x                    y                    z              *
 *                                                                                  *
 * P               1      0.00000(cons'd)     -0.00000(cons'd)      0.00083         *
 * P               2      0.00000(cons'd)      0.00000(cons'd)      0.00024         *
 * P               3      0.00000(cons'd)      0.00000(cons'd)      0.00108         *
 * P               4      0.00000(cons'd)     -0.00000(cons'd)     -0.00274         *
 * P               5      0.00000(cons'd)     -0.00000(cons'd)      0.00018         *
 * P               6      0.00000(cons'd)      0.00000(cons'd)      0.00047         *
 * P               7     -0.00000(cons'd)      0.00000(cons'd)      0.00034         *
 * P               8      0.00000(cons'd)      0.00000(cons'd)      0.00045         *
 * P               9      0.00000(cons'd)      0.00000(cons'd)      0.00052         *
 * P              10      0.00000(cons'd)      0.00000(cons'd)     -0.00122         *
 * P              11      0.00000(cons'd)      0.00000(cons'd)     -0.00594         *
 * P              12      0.00000(cons'd)      0.00000(cons'd)     -0.00134         *
 * In              1      0.00000(cons'd)      0.00000(cons'd)      0.00014         *
 * In              2      0.00000(cons'd)      0.00000(cons'd)     -0.00044         *
 * In              3      0.00000(cons'd)      0.00000(cons'd)      0.00010         *
 * In              4      0.00000(cons'd)      0.00000(cons'd)     -0.00009         *
 * In              5      0.00000(cons'd)      0.00000(cons'd)      0.00001         *
 * In              6      0.00000(cons'd)      0.00000(cons'd)      0.00007         *
 * In              7      0.00000(cons'd)      0.00000(cons'd)      0.00014         *
 * In              8      0.00000(cons'd)      0.00000(cons'd)     -0.00364         *
 * In              9      0.00000(cons'd)      0.00000(cons'd)      0.00007         *
 * In             10      0.00000(cons'd)      0.00000(cons'd)      0.00021         *
 * In             11      0.00000(cons'd)      0.00000(cons'd)      0.00994         *
 * In             12      0.00000(cons'd)      0.00000(cons'd)      0.00066         *
 *                                                                                  *
 ************************************************************************************
  
 +------------+-------------+-------------+-----------------+ <-- min LBFGS
 |    Step    |   lambda    |   F.delta'  |    enthalpy     | <-- min LBFGS
 +------------+-------------+-------------+-----------------+ <-- min LBFGS
 |  previous  |    0.000000 |    0.015363 |   -23577.700826 | <-- min LBFGS
 | trial step |    1.000000 |    0.006559 |   -23577.700896 | <-- min LBFGS
 +------------+-------------+-------------+-----------------+ <-- min LBFGS
  

--------------------------------------------------------------------------------
 LBFGS: improving iteration         3 with line minimization (lambda=  1.745049)
--------------------------------------------------------------------------------

                           -------------------------------
                                     Cell Contents
                           -------------------------------

            xxxxxxxxxxxxxxxxxxxxxxxxxxxxxxxxxxxxxxxxxxxxxxxxxxxxxxxxxxxxxxxxx
            x  Element         Atom        Fractional coordinates of atoms  x
            x                 Number           u          v          w      x
            x---------------------------------------------------------------x
            x  P                 1         0.500000  -0.229229   0.458458   x
            x  P                 2         0.000000   0.395143   0.209714   x
            x  P                 3         0.000000   0.312214   0.375571   x
            x  P                 4         0.000000   0.063428   0.873143   x
            x  P                 5         0.500000  -0.312112   0.624225   x
            x  P                 6         0.000000   0.229343   0.541314   x
            x  P                 7         0.500000  -0.146328   0.292656   x
            x  P                 8         0.500000  -0.395086   0.790173   x
            x  P                 9         0.000000   0.146408   0.707184   x
            x  P                10         0.000000   0.478420   0.043160   x
            x  P                11         0.500000  -0.480593   0.961186   x
            x  P                12         0.500000  -0.063388   0.126775   x
            x  In                1         0.500000   0.291500   0.417000   x
            x  In                2         0.000000  -0.415866   0.831733   x
            x  In                3         0.500000   0.125645   0.748710   x
            x  In                4         0.000000  -0.332858   0.665717   x
            x  In                5         0.500000   0.208614   0.582773   x
            x  In                6        -0.000000  -0.249940   0.499880   x
            x  In                7         0.000000  -0.167045   0.334090   x
            x  In                8         0.500000   0.042387   0.915227   x
            x  In                9        -0.000000  -0.084074   0.168148   x
            x  In               10         0.500000   0.457436   0.085128   x
            x  In               11         0.000000   0.001553  -0.003105   x
            x  In               12         0.500000   0.374429   0.251142   x
            xxxxxxxxxxxxxxxxxxxxxxxxxxxxxxxxxxxxxxxxxxxxxxxxxxxxxxxxxxxxxxxxx


------------------------------------------------------------------------ <-- SCF
SCF loop      Energy           Fermi           Energy gain       Timer   <-- SCF
                               energy          per atom          (sec)   <-- SCF
------------------------------------------------------------------------ <-- SCF
Initial  -2.35776703E+004  0.00000000E+000                      2453.74  <-- SCF
      1  -2.35777007E+004  3.11390330E+000   1.26596864E-003    2493.37  <-- SCF
      2  -2.35777009E+004  3.11390284E+000   7.89122873E-006    2537.20  <-- SCF
      3  -2.35777009E+004  3.11415470E+000   1.08601032E-007    2576.53  <-- SCF
      4  -2.35777009E+004  3.11413994E+000   6.78215077E-008    2609.72  <-- SCF
      5  -2.35777009E+004  3.11413046E+000   6.82056268E-009    2638.12  <-- SCF
      6  -2.35777009E+004  3.11410813E+000   2.25508833E-009    2664.74  <-- SCF
------------------------------------------------------------------------ <-- SCF
 
Final energy, E             =  -23577.66160575     eV
Final free energy (E-TS)    =  -23577.70091452     eV
(energies not corrected for finite basis set)
 
NB est. 0K energy (E-0.5TS)      =  -23577.68126014     eV
 

 ******************************** Constrained Forces ********************************
 *                                                                                  *
 *                           Cartesian components (eV/A)                            *
 * -------------------------------------------------------------------------------- *
 *                         x                    y                    z              *
 *                                                                                  *
 * P               1      0.00000(cons'd)     -0.00000(cons'd)      0.00072         *
 * P               2      0.00000(cons'd)      0.00000(cons'd)     -0.00165         *
 * P               3      0.00000(cons'd)      0.00000(cons'd)      0.00053         *
 * P               4      0.00000(cons'd)     -0.00000(cons'd)     -0.00374         *
 * P               5     -0.00000(cons'd)     -0.00000(cons'd)      0.00039         *
 * P               6      0.00000(cons'd)      0.00000(cons'd)      0.00050         *
 * P               7     -0.00000(cons'd)      0.00000(cons'd)     -0.00051         *
 * P               8      0.00000(cons'd)      0.00000(cons'd)     -0.00161         *
 * P               9      0.00000(cons'd)     -0.00000(cons'd)      0.00136         *
 * P              10      0.00000(cons'd)      0.00000(cons'd)     -0.00225         *
 * P              11     -0.00000(cons'd)      0.00000(cons'd)      0.00088         *
 * P              12     -0.00000(cons'd)      0.00000(cons'd)     -0.00183         *
 * In              1      0.00000(cons'd)      0.00000(cons'd)     -0.00000         *
 * In              2      0.00000(cons'd)     -0.00000(cons'd)     -0.00051         *
 * In              3      0.00000(cons'd)      0.00000(cons'd)     -0.00092         *
 * In              4      0.00000(cons'd)      0.00000(cons'd)     -0.00003         *
 * In              5      0.00000(cons'd)      0.00000(cons'd)      0.00025         *
 * In              6      0.00000(cons'd)      0.00000(cons'd)      0.00012         *
 * In              7      0.00000(cons'd)      0.00000(cons'd)     -0.00003         *
 * In              8      0.00000(cons'd)      0.00000(cons'd)     -0.00098         *
 * In              9      0.00000(cons'd)      0.00000(cons'd)     -0.00139         *
 * In             10      0.00000(cons'd)      0.00000(cons'd)     -0.00013         *
 * In             11      0.00000(cons'd)      0.00000(cons'd)      0.00922         *
 * In             12      0.00000(cons'd)      0.00000(cons'd)      0.00160         *
 *                                                                                  *
 ************************************************************************************
  
 +------------+-------------+-------------+-----------------+ <-- min LBFGS
 |    Step    |   lambda    |   F.delta'  |    enthalpy     | <-- min LBFGS
 +------------+-------------+-------------+-----------------+ <-- min LBFGS
 |  previous  |    0.000000 |    0.015363 |   -23577.700826 | <-- min LBFGS
 | trial step |    1.000000 |    0.006559 |   -23577.700896 | <-- min LBFGS
 |  line step |    1.745049 |   -0.000041 |   -23577.700915 | <-- min LBFGS
 +------------+-------------+-------------+-----------------+ <-- min LBFGS
  
 LBFGS: finished iteration     3 with enthalpy= -2.35777009E+004 eV
  
 +-----------+-----------------+-----------------+------------+-----+ <-- LBFGS
 | Parameter |      value      |    tolerance    |    units   | OK? | <-- LBFGS
 +-----------+-----------------+-----------------+------------+-----+ <-- LBFGS
 |  dE/ion   |   3.674184E-006 |   2.000000E-005 |         eV | Yes | <-- LBFGS
 |  |F|max   |   9.219967E-003 |   1.000000E-003 |       eV/A | No  | <-- LBFGS
 |  |dR|max  |   7.719099E-003 |   1.000000E-003 |          A | No  | <-- LBFGS
 +-----------+-----------------+-----------------+------------+-----+ <-- LBFGS
  

================================================================================
 Starting LBFGS iteration          4 ...
================================================================================
  
 +------------+-------------+-------------+-----------------+ <-- min LBFGS
 |    Step    |   lambda    |   F.delta'  |    enthalpy     | <-- min LBFGS
 +------------+-------------+-------------+-----------------+ <-- min LBFGS
 |  previous  |    0.000000 |    0.010016 |   -23577.700915 | <-- min LBFGS
 +------------+-------------+-------------+-----------------+ <-- min LBFGS
  

--------------------------------------------------------------------------------
 LBFGS: starting iteration         4 with trial guess (lambda=  1.000000)
--------------------------------------------------------------------------------

                           -------------------------------
                                     Cell Contents
                           -------------------------------

            xxxxxxxxxxxxxxxxxxxxxxxxxxxxxxxxxxxxxxxxxxxxxxxxxxxxxxxxxxxxxxxxx
            x  Element         Atom        Fractional coordinates of atoms  x
            x                 Number           u          v          w      x
            x---------------------------------------------------------------x
            x  P                 1         0.500000  -0.229234   0.458469   x
            x  P                 2         0.000000   0.395146   0.209708   x
            x  P                 3         0.000000   0.312210   0.375580   x
            x  P                 4         0.000000   0.063439   0.873121   x
            x  P                 5         0.500000  -0.312114   0.624229   x
            x  P                 6         0.000000   0.229338   0.541323   x
            x  P                 7         0.500000  -0.146329   0.292659   x
            x  P                 8         0.500000  -0.395078   0.790157   x
            x  P                 9         0.000000   0.146409   0.707182   x
            x  P                10         0.000000   0.478418   0.043165   x
            x  P                11         0.500000  -0.480592   0.961183   x
            x  P                12         0.500000  -0.063384   0.126768   x
            x  In                1         0.500000   0.291496   0.417009   x
            x  In                2         0.000000  -0.415857   0.831715   x
            x  In                3         0.500000   0.125650   0.748699   x
            x  In                4         0.000000  -0.332858   0.665717   x
            x  In                5         0.500000   0.208610   0.582779   x
            x  In                6        -0.000000  -0.249945   0.499890   x
            x  In                7         0.000000  -0.167047   0.334095   x
            x  In                8         0.500000   0.042393   0.915215   x
            x  In                9        -0.000000  -0.084070   0.168140   x
            x  In               10         0.500000   0.457436   0.085128   x
            x  In               11         0.000000   0.001536  -0.003073   x
            x  In               12         0.500000   0.374427   0.251145   x
            xxxxxxxxxxxxxxxxxxxxxxxxxxxxxxxxxxxxxxxxxxxxxxxxxxxxxxxxxxxxxxxxx


------------------------------------------------------------------------ <-- SCF
SCF loop      Energy           Fermi           Energy gain       Timer   <-- SCF
                               energy          per atom          (sec)   <-- SCF
------------------------------------------------------------------------ <-- SCF
Initial  -2.35776646E+004  0.00000000E+000                      2709.78  <-- SCF
      1  -2.35777009E+004  3.11468282E+000   1.51124482E-003    2750.01  <-- SCF
      2  -2.35777009E+004  3.11468279E+000   1.85769562E-006    2793.79  <-- SCF
      3  -2.35777009E+004  3.11476206E+000   1.37857501E-008    2824.11  <-- SCF
      4  -2.35777009E+004  3.11472880E+000   7.03479284E-009    2852.05  <-- SCF
      5  -2.35777009E+004  3.11470210E+000   7.25443677E-010    2878.63  <-- SCF
------------------------------------------------------------------------ <-- SCF
 
Final energy, E             =  -23577.66171022     eV
Final free energy (E-TS)    =  -23577.70092634     eV
(energies not corrected for finite basis set)
 
NB est. 0K energy (E-0.5TS)      =  -23577.68131828     eV
 

 ******************************** Constrained Forces ********************************
 *                                                                                  *
 *                           Cartesian components (eV/A)                            *
 * -------------------------------------------------------------------------------- *
 *                         x                    y                    z              *
 *                                                                                  *
 * P               1     -0.00000(cons'd)      0.00000(cons'd)      0.00040         *
 * P               2      0.00000(cons'd)     -0.00000(cons'd)     -0.00057         *
 * P               3      0.00000(cons'd)      0.00000(cons'd)      0.00017         *
 * P               4      0.00000(cons'd)     -0.00000(cons'd)     -0.00137         *
 * P               5     -0.00000(cons'd)      0.00000(cons'd)      0.00023         *
 * P               6      0.00000(cons'd)      0.00000(cons'd)      0.00036         *
 * P               7     -0.00000(cons'd)      0.00000(cons'd)      0.00001         *
 * P               8      0.00000(cons'd)      0.00000(cons'd)     -0.00100         *
 * P               9      0.00000(cons'd)     -0.00000(cons'd)     -0.00011         *
 * P              10      0.00000(cons'd)      0.00000(cons'd)     -0.00030         *
 * P              11     -0.00000(cons'd)      0.00000(cons'd)     -0.00053         *
 * P              12     -0.00000(cons'd)      0.00000(cons'd)     -0.00086         *
 * In              1      0.00000(cons'd)      0.00000(cons'd)      0.00004         *
 * In              2      0.00000(cons'd)      0.00000(cons'd)     -0.00023         *
 * In              3      0.00000(cons'd)      0.00000(cons'd)      0.00034         *
 * In              4      0.00000(cons'd)      0.00000(cons'd)      0.00009         *
 * In              5      0.00000(cons'd)      0.00000(cons'd)     -0.00019         *
 * In              6      0.00000(cons'd)      0.00000(cons'd)     -0.00012         *
 * In              7      0.00000(cons'd)      0.00000(cons'd)      0.00030         *
 * In              8      0.00000(cons'd)      0.00000(cons'd)     -0.00002         *
 * In              9      0.00000(cons'd)      0.00000(cons'd)      0.00079         *
 * In             10      0.00000(cons'd)      0.00000(cons'd)      0.00056         *
 * In             11      0.00000(cons'd)      0.00000(cons'd)      0.00189         *
 * In             12      0.00000(cons'd)      0.00000(cons'd)      0.00010         *
 *                                                                                  *
 ************************************************************************************
  
 +------------+-------------+-------------+-----------------+ <-- min LBFGS
 |    Step    |   lambda    |   F.delta'  |    enthalpy     | <-- min LBFGS
 +------------+-------------+-------------+-----------------+ <-- min LBFGS
 |  previous  |    0.000000 |    0.010016 |   -23577.700915 | <-- min LBFGS
 | trial step |    1.000000 |    0.002531 |   -23577.700926 | <-- min LBFGS
 +------------+-------------+-------------+-----------------+ <-- min LBFGS
  
 LBFGS: finished iteration     4 with enthalpy= -2.35777009E+004 eV
  
 +-----------+-----------------+-----------------+------------+-----+ <-- LBFGS
 | Parameter |      value      |    tolerance    |    units   | OK? | <-- LBFGS
 +-----------+-----------------+-----------------+------------+-----+ <-- LBFGS
 |  dE/ion   |   4.923440E-007 |   2.000000E-005 |         eV | Yes | <-- LBFGS
 |  |F|max   |   1.892947E-003 |   1.000000E-003 |       eV/A | No  | <-- LBFGS
[...]
            x  P                 6         0.000000   0.229335   0.541330   x
            x  P                 7         0.500000  -0.146333   0.292666   x
            x  P                 8         0.500000  -0.395071   0.790141   x
            x  P                 9         0.000000   0.146412   0.707177   x
            x  P                10         0.000000   0.478417   0.043167   x
            x  P                11         0.500000  -0.480584   0.961167   x
            x  P                12         0.500000  -0.063384   0.126769   x
            x  In                1         0.500000   0.291491   0.417019   x
            x  In                2         0.000000  -0.415849   0.831698   x
            x  In                3         0.500000   0.125655   0.748691   x
            x  In                4         0.000000  -0.332858   0.665716   x
            x  In                5         0.500000   0.208608   0.582783   x
            x  In                6        -0.000000  -0.249949   0.499898   x
            x  In                7         0.000000  -0.167052   0.334104   x
            x  In                8         0.500000   0.042400   0.915199   x
            x  In                9        -0.000000  -0.084072   0.168145   x
            x  In               10         0.500000   0.457434   0.085132   x
            x  In               11         0.000000   0.001532  -0.003063   x
            x  In               12         0.500000   0.374424   0.251151   x
            xxxxxxxxxxxxxxxxxxxxxxxxxxxxxxxxxxxxxxxxxxxxxxxxxxxxxxxxxxxxxxxxx


 LBFGS: Final Enthalpy     = -2.35777009E+004 eV
 LBFGS: Final <frequency>  =     223.57092 cm-1

 ******************* Unconstrained Forces *******************
 *                                                          *
 *               Cartesian components (eV/A)                *
 * -------------------------------------------------------- *
 *                         x            y            z      *
 *                                                          *
 * P               1      0.00000      0.00450     -0.00036 *
 * P               2     -0.00000      0.00528      0.00013 *
 * P               3     -0.00000     -0.00093     -0.00024 *
 * P               4     -0.00000      0.00412      0.00046 *
 * P               5      0.00000      0.00391     -0.00028 *
 * P               6     -0.00000     -0.00559     -0.00036 *
 * P               7      0.00000     -0.00183     -0.00008 *
 * P               8      0.00000     -0.00402      0.00022 *
 * P               9     -0.00000      0.00167     -0.00016 *
 * P              10     -0.00000     -0.00021      0.00020 *
 * P              11      0.00000     -0.00388      0.00023 *
 * P              12      0.00000     -0.00217      0.00023 *
 * In              1      0.00000     -0.00022      0.00035 *
 * In              2     -0.00000     -0.00036     -0.00049 *
 * In              3      0.00000      0.00014     -0.00048 *
 * In              4     -0.00000     -0.00009      0.00035 *
 * In              5      0.00000     -0.00025      0.00079 *
 * In              6     -0.00000      0.00017      0.00064 *
 * In              7     -0.00000     -0.00015      0.00005 *
 * In              8      0.00000      0.00008     -0.00021 *
 * In              9     -0.00000     -0.00035     -0.00073 *
 * In             10      0.00000      0.00006     -0.00030 *
 * In             11     -0.00000     -0.00008      0.00013 *
 * In             12      0.00000      0.00020     -0.00008 *
 *                                                          *
 ************************************************************

 ******************************** Constrained Forces ********************************
 *                                                                                  *
 *                           Cartesian components (eV/A)                            *
 * -------------------------------------------------------------------------------- *
 *                         x                    y                    z              *
 *                                                                                  *
 * P               1     -0.00000(cons'd)      0.00000(cons'd)     -0.00036         *
 * P               2      0.00000(cons'd)     -0.00000(cons'd)      0.00013         *
 * P               3      0.00000(cons'd)      0.00000(cons'd)     -0.00024         *
 * P               4      0.00000(cons'd)     -0.00000(cons'd)      0.00046         *
 * P               5     -0.00000(cons'd)      0.00000(cons'd)     -0.00028         *
 * P               6      0.00000(cons'd)      0.00000(cons'd)     -0.00036         *
 * P               7     -0.00000(cons'd)      0.00000(cons'd)     -0.00008         *
 * P               8     -0.00000(cons'd)      0.00000(cons'd)      0.00022         *
 * P               9      0.00000(cons'd)     -0.00000(cons'd)     -0.00016         *
 * P              10      0.00000(cons'd)      0.00000(cons'd)      0.00020         *
 * P              11      0.00000(cons'd)      0.00000(cons'd)      0.00023         *
 * P              12      0.00000(cons'd)      0.00000(cons'd)      0.00023         *
 * In              1      0.00000(cons'd)      0.00000(cons'd)      0.00035         *
 * In              2      0.00000(cons'd)      0.00000(cons'd)     -0.00049         *
 * In              3      0.00000(cons'd)      0.00000(cons'd)     -0.00048         *
 * In              4      0.00000(cons'd)      0.00000(cons'd)      0.00035         *
 * In              5      0.00000(cons'd)      0.00000(cons'd)      0.00079         *
 * In              6      0.00000(cons'd)      0.00000(cons'd)      0.00064         *
 * In              7      0.00000(cons'd)      0.00000(cons'd)      0.00005         *
 * In              8      0.00000(cons'd)      0.00000(cons'd)     -0.00021         *
 * In              9      0.00000(cons'd)      0.00000(cons'd)     -0.00073         *
 * In             10      0.00000(cons'd)      0.00000(cons'd)     -0.00030         *
 * In             11      0.00000(cons'd)      0.00000(cons'd)      0.00013         *
 * In             12      0.00000(cons'd)      0.00000(cons'd)     -0.00008         *
 *                                                                                  *
 ************************************************************************************

 Pseudo atomic calculation performed for P 3s2 3p3

 Converged in 23 iterations to a total energy of -208.0292 eV

 Pseudo atomic calculation performed for In 4d10 5s2 5p1

 Converged in 42 iterations to a total energy of -1747.4501 eV
Charge spilling parameter for spin component 1 = 0.17%

            Orbital Populations       
     Ion    Atom   Orbital             Charge
  -------------------------------------------
      P     1      S                    1.734
      P     1      Px                   1.314
      P     1      Py                   1.314
      P     1      Pz                   1.315
      P     2      S                    1.735
      P     2      Px                   1.311
      P     2      Py                   1.315
      P     2      Pz                   1.313
      P     3      S                    1.734
      P     3      Px                   1.313
      P     3      Py                   1.314
      P     3      Pz                   1.315
      P     4      S                    1.742
      P     4      Px                   1.299
      P     4      Py                   1.307
      P     4      Pz                   1.303
      P     5      S                    1.734
      P     5      Px                   1.314
      P     5      Py                   1.313
      P     5      Pz                   1.315
      P     6      S                    1.733
      P     6      Px                   1.314
      P     6      Py                   1.314
      P     6      Pz                   1.315
      P     7      S                    1.734
      P     7      Px                   1.312
      P     7      Py                   1.314
      P     7      Pz                   1.314
      P     8      S                    1.735
      P     8      Px                   1.311
      P     8      Py                   1.312
      P     8      Pz                   1.313
      P     9      S                    1.734
      P     9      Px                   1.314
      P     9      Py                   1.313
      P     9      Pz                   1.315
      P    10      S                    1.776
      P    10      Px                   1.283
      P    10      Py                   1.232
      P    10      Pz                   1.278
      P    11      S                    1.837
      P    11      Px                   1.217
      P    11      Py                   1.171
      P    11      Pz                   1.352
      P    12      S                    1.736
      P    12      Px                   1.306
      P    12      Py                   1.319
      P    12      Pz                   1.304
     In     1      Dzz                  1.999
     In     1      Dzy                  1.997
     In     1      Dzx                  1.997
     In     1      Dxx-yy               1.997
     In     1      Dxy                  1.999
     In     1      S                    1.425
     In     1      Px                   0.483
     In     1      Py                   0.482
     In     1      Pz                   0.481
     In     1      S                   -0.537
     In     2      Dzz                  1.999
     In     2      Dzy                  1.997
     In     2      Dzx                  1.997
     In     2      Dxx-yy               1.997
     In     2      Dxy                  1.999
     In     2      S                    1.437
     In     2      Px                   0.481
     In     2      Py                   0.491
     In     2      Pz                   0.477
     In     2      S                   -0.502
     In     3      Dzz                  1.999
     In     3      Dzy                  1.997
     In     3      Dzx                  1.997
     In     3      Dxx-yy               1.997
     In     3      Dxy                  1.999
     In     3      S                    1.431
     In     3      Px                   0.481
     In     3      Py                   0.483
     In     3      Pz                   0.480
     In     3      S                   -0.548
     In     4      Dzz                  1.999
     In     4      Dzy                  1.997
     In     4      Dzx                  1.997
     In     4      Dxx-yy               1.997
     In     4      Dxy                  1.999
     In     4      S                    1.425
     In     4      Px                   0.482
     In     4      Py                   0.483
     In     4      Pz                   0.480
     In     4      S                   -0.540
     In     5      Dzz                  1.999
     In     5      Dzy                  1.997
     In     5      Dzx                  1.997
     In     5      Dxx-yy               1.997
     In     5      Dxy                  1.999
     In     5      S                    1.427
     In     5      Px                   0.482
     In     5      Py                   0.483
     In     5      Pz                   0.481
     In     5      S                   -0.537
     In     6      Dzz                  1.999
     In     6      Dzy                  1.997
     In     6      Dzx                  1.997
     In     6      Dxx-yy               1.997
     In     6      Dxy                  1.999
     In     6      S                    1.425
     In     6      Px                   0.483
     In     6      Py                   0.483
     In     6      Pz                   0.481
     In     6      S                   -0.538
     In     7      Dzz                  1.999
     In     7      Dzy                  1.997
     In     7      Dzx                  1.997
     In     7      Dxx-yy               1.997
     In     7      Dxy                  1.999
     In     7      S                    1.427
     In     7      Px                   0.483
     In     7      Py                   0.482
     In     7      Pz                   0.480
     In     7      S                   -0.539
     In     8      Dzz                  1.999
     In     8      Dzy                  1.997
     In     8      Dzx                  1.997
     In     8      Dxx-yy               1.997
     In     8      Dxy                  1.999
     In     8      S                    1.340
     In     8      Px                   0.515
     In     8      Py                   0.478
     In     8      Pz                   0.479
     In     8      S                   -0.378
     In     9      Dzz                  1.999
     In     9      Dzy                  1.997
     In     9      Dzx                  1.997
     In     9      Dxx-yy               1.997
     In     9      Dxy                  1.999
     In     9      S                    1.427
     In     9      Px                   0.483
     In     9      Py                   0.479
     In     9      Pz                   0.478
     In     9      S                   -0.557
     In    10      Dzz                  1.999
     In    10      Dzy                  1.997
     In    10      Dzx                  1.997
     In    10      Dxx-yy               1.997
     In    10      Dxy                  1.999
     In    10      S                    1.457
     In    10      Px                   0.506
     In    10      Py                   0.486
     In    10      Pz                   0.479
     In    10      S                   -0.437
     In    11      Dzz                  1.999
     In    11      Dzy                  1.998
     In    11      Dzx                  1.999
     In    11      Dxx-yy               1.998
     In    11      Dxy                  1.999
     In    11      S                    1.356
     In    11      Px                   0.307
     In    11      Py                   0.472
     In    11      Pz                   0.475
     In    11      S                   -0.296
     In    12      Dzz                  1.999
     In    12      Dzy                  1.997
     In    12      Dzx                  1.997
     In    12      Dxx-yy               1.997
     In    12      Dxy                  1.999
     In    12      S                    1.425
     In    12      Px                   0.483
     In    12      Py                   0.481
     In    12      Pz                   0.480
     In    12      S                   -0.530
  -------------------------------------------
                           Total:     216.000
  -------------------------------------------

     Atomic Populations (Mulliken)
     -----------------------------
Species          Ion     s       p       d       f      Total   Charge (e)
==========================================================================
  P               1     1.734   3.942   0.000   0.000   5.676    -0.676
  P               2     1.735   3.939   0.000   0.000   5.674    -0.674
  P               3     1.734   3.942   0.000   0.000   5.676    -0.676
  P               4     1.742   3.909   0.000   0.000   5.651    -0.651
  P               5     1.734   3.942   0.000   0.000   5.676    -0.676
  P               6     1.733   3.942   0.000   0.000   5.676    -0.676
  P               7     1.734   3.941   0.000   0.000   5.675    -0.675
  P               8     1.735   3.936   0.000   0.000   5.671    -0.671
  P               9     1.734   3.941   0.000   0.000   5.675    -0.675
  P              10     1.776   3.793   0.000   0.000   5.569    -0.569
  P              11     1.837   3.740   0.000   0.000   5.577    -0.577
  P              12     1.736   3.929   0.000   0.000   5.665    -0.665
  In              1     0.888   1.446   9.989   0.000  12.322     0.678
  In              2     0.936   1.449   9.989   0.000  12.373     0.627
  In              3     0.883   1.444   9.989   0.000  12.317     0.683
  In              4     0.885   1.446   9.989   0.000  12.320     0.680
  In              5     0.889   1.446   9.989   0.000  12.324     0.676
  In              6     0.888   1.446   9.989   0.000  12.323     0.677
  In              7     0.889   1.445   9.989   0.000  12.323     0.677
  In              8     0.961   1.472   9.990   0.000  12.424     0.576
  In              9     0.870   1.440   9.989   0.000  12.299     0.701
  In             10     1.020   1.471   9.988   0.000  12.479     0.521
  In             11     1.060   1.253   9.995   0.000  12.309     0.691
  In             12     0.895   1.445   9.989   0.000  12.329     0.671
==========================================================================

                 Bond                   Population      Length (A)
======================================================================
              P 12 -- In 9                   1.26        2.54922
              P 4  -- In 2                   1.06        2.54976
              P 1  -- In 6                   1.17        2.55009
              P 3  -- In 1                   1.16        2.55028
              P 6  -- In 6                   1.16        2.55036
              P 7  -- In 7                   1.16        2.55048
              P 2  -- In 12                  1.17        2.55051
              P 5  -- In 5                   1.16        2.55067
              P 8  -- In 3                   1.20        2.55074
              P 6  -- In 5                   1.16        2.55078
              P 1  -- In 1                   1.16        2.55093
              P 9  -- In 4                   1.16        2.55094
              P 5  -- In 4                   1.17        2.55143
              P 3  -- In 7                   1.17        2.55145
              P 9  -- In 3                   1.16        2.55202
              P 7  -- In 12                  1.16        2.55205
              P 8  -- In 2                   1.13        2.55289
              P 2  -- In 9                   1.15        2.55309
              P 12 -- In 10                  1.05        2.55454
              P 10 -- In 10                  1.04        2.56125
              P 4  -- In 8                   1.24        2.56398
              P 11 -- In 8                   1.12        2.64599
              P 10 -- In 11                  1.09        2.65171
======================================================================

 Hirshfeld supercell size:           4           4           1
Standard grid dimensions: 180 180 360
Fine grid dimensions:     180 180 360


     Hirshfeld Analysis
     ------------------
Species   Ion     Hirshfeld Charge (e)
======================================
  P        1                -0.24
  P        2                -0.24
  P        3                -0.24
  P        4                -0.23
  P        5                -0.24
  P        6                -0.24
  P        7                -0.24
  P        8                -0.24
  P        9                -0.24
  P       10                -0.22
  P       11                -0.24
  P       12                -0.23
  In       1                 0.24
  In       2                 0.24
  In       3                 0.24
  In       4                 0.24
  In       5                 0.24
  In       6                 0.24
  In       7                 0.24
  In       8                 0.20
  In       9                 0.24
  In      10                 0.22
  In      11                 0.27
  In      12                 0.24
======================================

 
 A BibTeX formatted list of references used in this run has been written to 
 StackingFaultStructs_001_110_4.bib
 
Initialisation time =     22.71 s
Calculation time    =   3581.13 s
Finalisation time   =     64.43 s
Total time          =   3668.28 s
Peak Memory Use     = 10020968 kB
 
Overall parallel efficiency rating: Very good (82%)
 
Data was distributed by:-
k-point (84-way); efficiency rating: Very good (83%)
