 +-------------------------------------------------+
 |                                                 |
 |      CCC   AA    SSS  TTTTT  EEEEE  PPPP        |
 |     C     A  A  S       T    E      P   P       |
 |     C     AAAA   SS     T    EEE    PPPP        |
 |     C     A  A     S    T    E      P           |
 |      CCC  A  A  SSS     T    EEEEE  P           |
 |                                                 |
 +-------------------------------------------------+
 |                                                 |
 | Welcome to Academic Release CASTEP version 24.1 |
 | Ab Initio Total Energy Program                  |
 |                                                 |
 | Authors:                                        |
 | M. Segall, M. Probert, C. Pickard, P. Hasnip,   |
 | S. Clark, K. Refson, J. R. Yates,               |
 | A. Bartok-Partay, M. Payne                      |
 |                                                 |
 | Contributors:                                   |
 | P. Lindan, P. Haynes, J. White, V. Milman,      |
 | N. Govind, M. Gibson, P. Tulip, V. Cocula,      |
 | B. Montanari, D. Quigley, M. Glover,            |
 | L. Bernasconi, A. Perlov, M. Plummer,           |
 | E. McNellis, J. Meyer, J. Gale, D. Jochym       |
 | J. Aarons, B. Walker, R. Gillen, D. Jones       |
 | T. Green, I. J. Bush, C. J. Armstrong,          |
 | E. J. Higgins, E. L. Brown, M. S. McFly,        |
 | J. Wilkins, B-C. Shih, P. J. P. Byrne,          |
 | R. J. Maurer, J. C. Womack, J. Dziedzic,        |
 | L. LeBlanc, T. K. Stenczel, J. Kermode,         |
 | S. Sturniolo, B. Shi, B. Durham, M. Evans,      |
 | M. J. Smith, A. Tamerus, Z. Hawkhead,           |
 | V. Ravindran, T. Hollins, S. A. Joyce,          |
 | R. T. Strong, A. M. Reilly, S. J. Donaldson     |
 |                                                 |
 | Copyright (c) 2000 - 2023                       |
 |                                                 |
 |     Distributed under license from Cambridge    |
 |     Enterprise for academic use only.           |
 |                                                 |
 | Please cite                                     |
 |                                                 |
 |     "First principles methods using CASTEP"     |
 |                                                 |
 |         Zeitschrift fuer Kristallographie       |
 |           220(5-6) pp. 567-570 (2005)           |
 |                                                 |
 | S. J. Clark, M. D. Segall, C. J. Pickard,       |
 | P. J. Hasnip, M. J. Probert, K. Refson,         |
 | M. C. Payne                                     |
 |                                                 |
 |       in all publications arising from          |
 |              your use of CASTEP                 |
 |                                                 |
 +-------------------------------------------------+
 |                                                 |
 |              http://www.castep.org              |
 |                                                 |
 +-------------------------------------------------+



 Compiled for  GNU 11.2.0 on 04-04-2024 18:39:17
 from code version 6355fd106 Castep241_branch Thu Mar 7 17:56:19 2024 +0000
 Compiler: GNU Fortran 11.2.0; Optimisation: FAST
 Comms   : MPI VERSION : CRAY MPICH version 8.1.23.14 (ANL base 3.4a2)
 MATHLIBS: default (LAPACK version 3.10.1)
 FFT Lib : fftw3 version commercial-fftw-3.3.10-sse2-avx-avx2-avx2_128
 Fundamental constants values: CODATA 2018

 Run started: Sun, 19 Jan 2025 00:56:27 +0000

 Atomic calculation performed for P: 1s2 2s2 2p6 3s2 3p3

 Converged in 47 iterations to an ae energy of -9309.074 eV

   ============================================================                
   | Pseudopotential Report - Date of generation 19-01-2025   |                
   ------------------------------------------------------------                
   | Element: P Ionic charge:  5.00 Level of theory: RSCAN    |                
   | Atomic Solver: Koelling-Harmon                           |                
   |                                                          |                
   |               Reference Electronic Structure             |                
   |         Orbital         Occupation         Energy        |                
   |            3s              2.000           -0.535        |                
   |            3p              3.000           -0.209        |                
   |                                                          |                
   |                 Pseudopotential Definition               |                
   |        Beta     l      e      Rc     scheme   norm       |                
   |          1      0   -0.535   1.807     qc      0         |                
   |          2      0    0.250   1.807     qc      0         |                
   |          3      1   -0.209   1.807     qc      0         |                
   |          4      1    0.250   1.807     qc      0         |                
   |          5      2    0.000   1.807     qc      0         |                
   |          6      2    0.250   1.807     qc      0         |                
   |         loc     3    0.000   1.807     pn      0         |                
   |                                                          |                
   | Augmentation charge Rinner = 1.263                       |                
   | Partial core correction Rc = 1.263                       |                
   ------------------------------------------------------------                
   | "3|1.8|4|4|5|30:31:32"                                   |                
   ------------------------------------------------------------                
   |      Author: Chris J. Pickard, Cambridge University      |                
   ============================================================                
 Warning: otfg_output_psp cannot write out meta-GGA pseudopotentials presently.

 Atomic calculation performed for In:
 1s2 2s2 2p6 3s2 3p6 3d10 4s2 4p6 4d10 5s2 5p1

 Converged in 84 iterations to an ae energy of -160093.328 eV

   ============================================================                
   | Pseudopotential Report - Date of generation 19-01-2025   |                
   ------------------------------------------------------------                
   | Element: In Ionic charge: 13.00 Level of theory: RSCAN   |                
   | Atomic Solver: Koelling-Harmon                           |                
   |                                                          |                
   |               Reference Electronic Structure             |                
   |         Orbital         Occupation         Energy        |                
   |            4d             10.000           -0.711        |                
   |            5s              2.000           -0.313        |                
   |            5p              1.000           -0.095        |                
   |                                                          |                
   |                 Pseudopotential Definition               |                
   |        Beta     l      e      Rc     scheme   norm       |                
   |          1      0   -0.313   2.501     qc      0         |                
   |          2      0    0.250   2.501     qc      0         |                
   |          3      1   -0.095   2.501     qc      0         |                
   |          4      1    0.250   2.501     qc      0         |                
   |          5      2   -0.711   2.207     qc      0         |                
   |          6      2    0.250   2.207     qc      0         |                
   |         loc     3    0.000   2.501     pn      0         |                
   |                                                          |                
   | Augmentation charge Rinner = 1.504                       |                
   | Partial core correction Rc = 1.504                       |                
   ------------------------------------------------------------                
   | "3|2.5|2.5|1.5|7|8|9|50:51:42U2.2U2.2"                   |                
   ------------------------------------------------------------                
   |      Author: Chris J. Pickard, Cambridge University      |                
   ============================================================                
 Warning: otfg_output_psp cannot write out meta-GGA pseudopotentials presently.

 Pseudo atomic calculation performed for P 3s2 3p3

 Converged in 23 iterations to a total energy of -208.0292 eV

 Pseudo atomic calculation performed for In 4d10 5s2 5p1

 Converged in 42 iterations to a total energy of -1747.4501 eV
 Calculation parallelised over 80 processes.
 Data is distributed by G-vector(2-way) and k-point(40-way)
 Each process may use up to 16 threads.

 ************************************ Title ************************************
 

 ***************************** General Parameters ******************************
  
 output verbosity                               : normal  (1)
 write checkpoint data to                       : StackingFaultStructs_001_100_7.check
 type of calculation                            : geometry optimization
 stress calculation                             : off
 density difference calculation                 : off
 electron localisation func (ELF) calculation   : off
 Hirshfeld analysis                             : on
 polarisation (Berry phase) analysis            : off
 molecular orbital projected DOS                : off
 deltaSCF calculation                           : off
 unlimited duration calculation
 timing information                             : on
 memory usage estimate                          : on
 write extra output files                       : on
 write final potential to formatted file        : off
 write final density to formatted file          : off
 write BibTeX reference list                    : on
 write OTFG pseudopotential files               : on
 write electrostatic potential file             : on
 write bands file                               : on
 checkpoint writing                             : off
  
 output         length unit                     : A
 output           mass unit                     : amu
 output           time unit                     : ps
 output         charge unit                     : e
 output           spin unit                     : hbar/2
 output         energy unit                     : eV
 output          force unit                     : eV/A
 output       velocity unit                     : A/ps
 output       pressure unit                     : GPa
 output     inv_length unit                     : 1/A
 output      frequency unit                     : cm-1
 output force constant unit                     : eV/A**2
 output         volume unit                     : A**3
 output   IR intensity unit                     : (D/A)**2/amu
 output         dipole unit                     : D
 output         efield unit                     : eV/A/e
 output        entropy unit                     : J/mol/K
 output    efield chi2 unit                     : pm/V
  
 wavefunctions paging                           : none
 random number generator seed                   :    5627981
 data distribution                              : optimal for this architecture
 optimization strategy                          : balance speed and memory

 *********************** Exchange-Correlation Parameters ***********************
  
 using functional                               : RSCAN
 relativistic treatment                         : Koelling-Harmon
 DFT+D: Semi-empirical dispersion correction    : off

 ************************* Pseudopotential Parameters **************************
  
 pseudopotential representation                 : reciprocal space
 <beta|phi> representation                      : reciprocal space
 spin-orbit coupling                            : off

 **************************** Basis Set Parameters *****************************
  
 plane wave basis set cut-off                   :   900.0000   eV
 size of standard grid                          :     2.0000
 size of   fine   gmax                          :    30.7390   1/A
 finite basis set correction                    : none

 **************************** Electronic Parameters ****************************
  
 number of  electrons                           :  216.0    
 net charge of system                           :  0.000    
 treating system as non-spin-polarized
 number of bands                                :        130

 ********************* Electronic Minimization Parameters **********************
  
 Method: Treating system as metallic with density mixing treatment of electrons,
         and number of  SD  steps               :          1
         and number of  CG  steps               :          4
  
 total energy / atom convergence tol.           : 0.1000E-07   eV
 eigen-energy convergence tolerance             : 0.2222E-08   eV
 max force / atom convergence tol.              : ignored
 convergence tolerance window                   :          3   cycles
 max. number of SCF cycles                      :         50
 number of fixed-spin iterations                :         10
 smearing scheme                                : Gaussian
 smearing width                                 : 0.2000       eV
 Fermi energy convergence tolerance             : 0.2721E-13   eV
 periodic dipole correction                     : NONE

 ************************** Density Mixing Parameters **************************
  
 density-mixing scheme                          : Pulay
 max. length of mixing history                  :         15
 charge density mixing amplitude                : 0.5000    
 cut-off energy for mixing                      :  900.0       eV

 *********************** Population Analysis Parameters ************************
  
 Population analysis with cutoff                :  3.000       A
 Population analysis output                     : summary and pdos components

 ********************** Geometry Optimization Parameters ***********************
  
 optimization method                            : LBFGS
 max. no. of LBFGS updates                      : unbounded
 preconditioned LBFGS is activated
 preconditioner type                            : EXP
     stabilization constant                     :     0.1000
     parameter A                                :     3.0000
     nearest neighbor distance                  : automatic
     cut-off distance                           : automatic
     parameter mu                               : automatic
 variable cell method                           : fixed basis quality
 max. number of steps                           :         30
 estimated bulk modulus                         :  500.0       GPa
 estimated <frequency>                          :  1668.       cm-1
 geom line minimiser                            : on
 with line minimiser tolerance                  :     0.4000
 total energy convergence tolerance             : 0.2000E-04   eV/atom
        max ionic |force| tolerance             : 0.1000E-02   eV/A
 max ionic |displacement| tolerance             : 0.1000E-02   A
   max |stress component| tolerance             : 0.1000       GPa
 convergence tolerance window                   :          2   steps
 backup results every                           :          5   steps
 write geom trajectory file                     : on

 *******************************************************************************
  

                           -------------------------------
                                      Unit Cell
                           -------------------------------
        Real Lattice(A)                      Reciprocal Lattice(1/A)
     5.9012740     0.0000000     0.0000000        1.064716756   0.000000000   0.000000000
     0.0000000     5.9012740     0.0000000        0.000000000   1.064716756  -0.310542359
     0.0000000     5.1636140    17.7038210        0.000000000   0.000000000   0.354905605

                       Lattice parameters(A)       Cell Angles
                    a =      5.901274          alpha =   73.739797
                    b =      5.901274          beta  =   90.000000
                    c =     18.441480          gamma =   90.000000

                       Current cell volume =           616.536183       A**3
                                   density =             2.837629   AMU/A**3
                                           =             4.711994     g/cm^3

                           -------------------------------
                                     Cell Contents
                           -------------------------------
                         Total number of ions in cell =   24
                      Total number of species in cell =    2
                        Max number of any one species =   12

            xxxxxxxxxxxxxxxxxxxxxxxxxxxxxxxxxxxxxxxxxxxxxxxxxxxxxxxxxxxx
            x  Element    Atom        Fractional coordinates of atoms  x
            x            Number           u          v          w      x
            x----------------------------------------------------------x
            x  P            1         0.250000  -0.045771   0.909452   x 
            x  P            2         0.250000  -0.402423   0.745627   x 
            x  P            3         0.750000   0.097577   0.745627   x 
            x  P            4         0.750000  -0.545771   0.909452   x 
            x  P            5         0.750000   0.028602   0.253026   x 
            x  P            6         0.750000   0.384968   0.417180   x 
            x  P            7         0.750000  -0.258709   0.581382   x 
            x  P            8         0.250000   0.528602   0.253026   x 
            x  P            9         0.250000   0.172840   0.088182   x 
            x  P           10         0.750000   0.672840   0.088182   x 
            x  P           11         0.250000  -0.115032   0.417180   x 
            x  P           12         0.250000   0.241291   0.581382   x 
            x  In           1         0.000000  -0.225024   0.828600   x 
            x  In           2         0.500000  -0.081007   0.664008   x 
            x  In           3         0.500000  -0.725024   0.828600   x 
            x  In           4         0.500000  -0.149941   0.171361   x 
            x  In           5         0.500000   0.494636   0.006131   x 
            x  In           6         0.000000  -0.005364   0.006131   x 
            x  In           7         0.000000   0.350059   0.171361   x 
            x  In           8         0.000000  -0.581007   0.664008   x 
            x  In           9         0.500000  -0.437145   0.499594   x 
            x  In          10         0.500000   0.206474   0.335458   x 
            x  In          11         0.000000  -0.293526   0.335458   x 
            x  In          12         0.000000   0.062855   0.499594   x 
            xxxxxxxxxxxxxxxxxxxxxxxxxxxxxxxxxxxxxxxxxxxxxxxxxxxxxxxxxxxx


                         No user defined ionic velocities

                           -------------------------------
                                   Details of Species
                           -------------------------------

                               Mass of species in AMU
                                    P   30.9737600
                                    In  114.8180000

                          Electric Quadrupole Moment (Barn)
                                    P    1.0000000 No Isotope Defined
                                    In    0.7700000 Isotope115

                          Files used for pseudopotentials:
                                    P 3|1.8|4|4|5|30:31:32
                                    In 3|2.5|2.5|1.5|7|8|9|50:51:42U2.2U2.2

                           -------------------------------
                              k-Points For BZ Sampling
                           -------------------------------
                       MP grid size for SCF calculation is  6  6  2
                            with an offset of   0.083  0.083  0.250
                       Number of kpoints used =            40

                           -------------------------------
                               Symmetry and Constraints
                           -------------------------------

                      Cell is a supercell containing 2 primitive cells
                      Maximum deviation from symmetry =  0.00000         ANG

                      Number of symmetry operations   =           1
                      Number of ionic constraints     =          48
                      Point group of crystal =     1: C1, 1, 1
                      Space group of crystal =     1: P1, P 1

             Set iprint > 1 for details on symmetry rotations/translations

                         Centre of mass is NOT constrained
             Set iprint > 1 for details of linear ionic constraints

                         Number of cell constraints= 6
                         Cell constraints are:  0 0 0 0 0 0

                         External pressure/stress (GPa)
                          0.00000   0.00000   0.00000
                                    0.00000   0.00000
                                              0.00000
 
+---------------- MEMORY AND SCRATCH DISK ESTIMATES PER PROCESS --------------+
|                                                     Memory          Disk    |
| Baseline code, static data and system overhead      386.0 MB         0.0 MB |
| BLAS internal memory storage                          0.0 MB         0.0 MB |
| Model and support data                             2236.4 MB         0.0 MB |
| Electronic energy minimisation requirements         261.0 MB         0.0 MB |
| Force calculation requirements                       50.1 MB         0.0 MB |
|                                               ----------------------------- |
| Approx. total storage required per process         2883.4 MB         0.0 MB |
|                                                                             |
| Requirements will fluctuate during execution and may exceed these estimates |
+-----------------------------------------------------------------------------+
Calculating approximate eigenstates for fixed initial Hamiltonian
Cut-off for approx. calculation is   89.988 eV
Improving approx. states at cut-off of  450.000 eV
Resetting cut-off to  900.000 eV
Calculating total energy with cut-off of  900.000 eV.
------------------------------------------------------------------------ <-- SCF
SCF loop      Energy           Fermi           Energy gain       Timer   <-- SCF
                               energy          per atom          (sec)   <-- SCF
------------------------------------------------------------------------ <-- SCF
Initial  -2.36408571E+004  0.00000000E+000                        66.00  <-- SCF
      1  -2.35506937E+004  2.75935109E+000  -3.75680878E+000     106.28  <-- SCF
      2  -2.35508364E+004  2.61669701E+000   5.94336390E-003     136.45  <-- SCF
      3  -2.35754691E+004  2.95653903E+000   1.02636397E+000     174.74  <-- SCF
      4  -2.35799319E+004  3.03825240E+000   1.85949818E-001     215.86  <-- SCF
      5  -2.35774171E+004  3.38785106E+000  -1.04780982E-001     254.55  <-- SCF
      6  -2.35777641E+004  3.44930528E+000   1.44583594E-002     295.90  <-- SCF
      7  -2.35776446E+004  3.49907863E+000  -4.98228173E-003     335.29  <-- SCF
      8  -2.35782399E+004  3.54034146E+000   2.48057939E-002     371.09  <-- SCF
      9  -2.35782232E+004  3.50579830E+000  -6.97629145E-004     408.60  <-- SCF
     10  -2.35782326E+004  3.50799941E+000   3.91746063E-004     445.44  <-- SCF
     11  -2.35782388E+004  3.50271970E+000   2.60015530E-004     483.21  <-- SCF
     12  -2.35782390E+004  3.50460589E+000   7.01137434E-006     521.95  <-- SCF
     13  -2.35782392E+004  3.50589554E+000   9.03973033E-006     559.73  <-- SCF
     14  -2.35782392E+004  3.50533675E+000  -2.45084212E-007     597.69  <-- SCF
     15  -2.35782392E+004  3.50547222E+000   1.63675716E-007     628.11  <-- SCF
     16  -2.35782392E+004  3.50549165E+000   1.19208648E-007     657.72  <-- SCF
     17  -2.35782392E+004  3.50554870E+000   1.63602502E-008     682.90  <-- SCF
     18  -2.35782392E+004  3.50553537E+000   2.50192995E-010     708.75  <-- SCF
     19  -2.35782392E+004  3.50553349E+000   2.00953570E-010     732.91  <-- SCF
------------------------------------------------------------------------ <-- SCF
 
Final energy, E             =  -23578.23895434     eV
Final free energy (E-TS)    =  -23578.23919141     eV
(energies not corrected for finite basis set)
 
NB est. 0K energy (E-0.5TS)      =  -23578.23907288     eV
 
 
+---------------- MEMORY AND SCRATCH DISK ESTIMATES PER PROCESS --------------+
|                                                     Memory          Disk    |
| Model and support data                             1324.8 MB         0.0 MB |
| Electronic energy minimisation requirements         261.0 MB         0.0 MB |
| Geometry minimisation requirements                  304.5 MB         0.0 MB |
|                                               ----------------------------- |
| Approx. total storage required per process         1890.3 MB         0.0 MB |
|                                                                             |
| Requirements will fluctuate during execution and may exceed these estimates |
+-----------------------------------------------------------------------------+
 

 ******************************** Constrained Forces ********************************
 *                                                                                  *
 *                           Cartesian components (eV/A)                            *
 * -------------------------------------------------------------------------------- *
 *                         x                    y                    z              *
 *                                                                                  *
 * P               1     -0.00000(cons'd)      0.00000(cons'd)     -0.00225         *
 * P               2      0.00000(cons'd)      0.00000(cons'd)      0.00497         *
 * P               3      0.00000(cons'd)      0.00000(cons'd)      0.00497         *
 * P               4      0.00000(cons'd)      0.00000(cons'd)     -0.00225         *
 * P               5      0.00000(cons'd)     -0.00000(cons'd)     -0.02873         *
 * P               6      0.00000(cons'd)     -0.00000(cons'd)     -0.03126         *
 * P               7      0.00000(cons'd)      0.00000(cons'd)     -0.01672         *
 * P               8      0.00000(cons'd)      0.00000(cons'd)     -0.02873         *
 * P               9      0.00000(cons'd)      0.00000(cons'd)      0.01824         *
 * P              10      0.00000(cons'd)      0.00000(cons'd)      0.01824         *
 * P              11      0.00000(cons'd)     -0.00000(cons'd)     -0.03126         *
 * P              12      0.00000(cons'd)      0.00000(cons'd)     -0.01672         *
 * In              1      0.00000(cons'd)     -0.00000(cons'd)     -0.01530         *
 * In              2      0.00000(cons'd)      0.00000(cons'd)      0.00068         *
 * In              3      0.00000(cons'd)      0.00000(cons'd)     -0.01530         *
 * In              4      0.00000(cons'd)      0.00000(cons'd)     -0.01469         *
 * In              5      0.00000(cons'd)      0.00000(cons'd)      0.01655         *
 * In              6      0.00000(cons'd)      0.00000(cons'd)      0.01655         *
 * In              7      0.00000(cons'd)      0.00000(cons'd)     -0.01469         *
 * In              8      0.00000(cons'd)      0.00000(cons'd)      0.00068         *
 * In              9      0.00000(cons'd)      0.00000(cons'd)      0.04041         *
 * In             10      0.00000(cons'd)      0.00000(cons'd)      0.02811         *
 * In             11      0.00000(cons'd)      0.00000(cons'd)      0.02811         *
 * In             12      0.00000(cons'd)      0.00000(cons'd)      0.04041         *
 *                                                                                  *
 ************************************************************************************
 EXP precond LBFGS => estimated nearest neighbor distance :  2.542       A
 EXP precond LBFGS => estimated cutoff distance :  5.085       A

 ************************************** Forces **************************************
 *                                                                                  *
 *                           Cartesian components (eV/A)                            *
 * -------------------------------------------------------------------------------- *
 *                         x                    y                    z              *
 *                                                                                  *
 * P               1      0.78790(cons'd)     -1.59314(cons'd)     -0.00225         *
 * P               2     -0.14054(cons'd)     -0.07102(cons'd)      0.00497         *
 * P               3     -0.14054(cons'd)     -0.07102(cons'd)      0.00497         *
 * P               4      0.78790(cons'd)     -1.59314(cons'd)     -0.00225         *
 * P               5     -0.01249(cons'd)      0.05024(cons'd)     -0.02873         *
 * P               6     -0.00658(cons'd)      0.00496(cons'd)     -0.03126         *
 * P               7     -0.01752(cons'd)     -0.01031(cons'd)     -0.01672         *
 * P               8     -0.01249(cons'd)      0.05024(cons'd)     -0.02873         *
 * P               9     -0.08365(cons'd)      0.35372(cons'd)      0.01824         *
 * P              10     -0.08365(cons'd)      0.35372(cons'd)      0.01824         *
 * P              11     -0.00658(cons'd)      0.00496(cons'd)     -0.03126         *
 * P              12     -0.01752(cons'd)     -0.01031(cons'd)     -0.01672         *
 * In              1      0.14177(cons'd)      0.18615(cons'd)     -0.01530         *
 * In              2      0.01759(cons'd)      0.03362(cons'd)      0.00068         *
 * In              3      0.14177(cons'd)      0.18615(cons'd)     -0.01530         *
 * In              4      0.11666(cons'd)     -0.00443(cons'd)     -0.01469         *
 * In              5     -0.82616(cons'd)      1.04437(cons'd)      0.01655         *
 * In              6     -0.82616(cons'd)      1.04437(cons'd)      0.01655         *
 * In              7      0.11666(cons'd)     -0.00443(cons'd)     -0.01469         *
 * In              8      0.01759(cons'd)      0.03362(cons'd)      0.00068         *
 * In              9      0.00574(cons'd)      0.00510(cons'd)      0.04041         *
 * In             10      0.01728(cons'd)      0.00075(cons'd)      0.02811         *
 * In             11      0.01728(cons'd)      0.00075(cons'd)      0.02811         *
 * In             12      0.00574(cons'd)      0.00510(cons'd)      0.04041         *
 *                                                                                  *
 ************************************************************************************
 doing test perturbation to get energy scale for EXP preconditioner

                           -------------------------------
                                     Cell Contents
                           -------------------------------

            xxxxxxxxxxxxxxxxxxxxxxxxxxxxxxxxxxxxxxxxxxxxxxxxxxxxxxxxxxxxxxxxx
            x  Element         Atom        Fractional coordinates of atoms  x
            x                 Number           u          v          w      x
            x---------------------------------------------------------------x
            x  P                 1         0.251409   0.957128   0.910666   x
            x  P                 2         0.251409   0.599842   0.746682   x
            x  P                 3         0.753625   0.098719   0.746682   x
            x  P                 4         0.753625   0.456356   0.910666   x
            x  P                 5         0.753625   0.028969   0.253423   x
            x  P                 6         0.753625   0.386473   0.417820   x
            x  P                 7         0.753625   0.743726   0.582243   x
            x  P                 8         0.251409   0.530320   0.253423   x
            x  P                 9         0.251409   0.173433   0.088322   x
            x  P                10         0.753625   0.674783   0.088322   x
            x  P                11         0.251409   0.887597   0.417820   x
            x  P                12         0.251409   0.242603   0.582243   x
            x  In                1         0.000000   0.777603   0.829740   x
            x  In                2         0.502664   0.921775   0.664971   x
            x  In                3         0.502664   0.276642   0.829740   x
            x  In                4         0.502664   0.852486   0.171632   x
            x  In                5         0.502664   0.496037   0.006140   x
            x  In                6         0.000000   0.997291   0.006140   x
            x  In                7         0.000000   0.351232   0.171632   x
            x  In                8         0.000000   0.420814   0.664971   x
            x  In                9         0.502664   0.564859   0.500348   x
            x  In               10         0.502664   0.207428   0.335979   x
            x  In               11         0.000000   0.708682   0.335979   x
            x  In               12         0.000000   0.063605   0.500348   x
            xxxxxxxxxxxxxxxxxxxxxxxxxxxxxxxxxxxxxxxxxxxxxxxxxxxxxxxxxxxxxxxxx


------------------------------------------------------------------------ <-- SCF
SCF loop      Energy           Fermi           Energy gain       Timer   <-- SCF
                               energy          per atom          (sec)   <-- SCF
------------------------------------------------------------------------ <-- SCF
Initial  -2.35772301E+004  0.00000000E+000                       779.36  <-- SCF
      1  -2.35780862E+004  3.49496134E+000   3.56724431E-002     813.18  <-- SCF
      2  -2.35781989E+004  3.49488136E+000   4.69679898E-003     853.32  <-- SCF
      3  -2.35781999E+004  3.49412408E+000   3.97918077E-005     888.90  <-- SCF
      4  -2.35782007E+004  3.49300204E+000   3.35932262E-005     927.87  <-- SCF
      5  -2.35782008E+004  3.49255631E+000   4.79280723E-006     968.05  <-- SCF
      6  -2.35782008E+004  3.49224150E+000   7.75571990E-007    1009.87  <-- SCF
      7  -2.35782008E+004  3.49205485E+000  -4.64981297E-008    1044.04  <-- SCF
      8  -2.35782008E+004  3.49188002E+000  -7.50805848E-008    1076.79  <-- SCF
      9  -2.35782008E+004  3.49178560E+000  -1.67732426E-008    1107.03  <-- SCF
     10  -2.35782008E+004  3.49175469E+000   2.39881074E-010    1136.43  <-- SCF
     11  -2.35782008E+004  3.49175132E+000   4.63649770E-010    1161.44  <-- SCF
------------------------------------------------------------------------ <-- SCF
 
Final energy, E             =  -23578.20063281     eV
Final free energy (E-TS)    =  -23578.20082561     eV
(energies not corrected for finite basis set)
 
NB est. 0K energy (E-0.5TS)      =  -23578.20072921     eV
 

 ************************************** Forces **************************************
 *                                                                                  *
 *                           Cartesian components (eV/A)                            *
 * -------------------------------------------------------------------------------- *
 *                         x                    y                    z              *
 *                                                                                  *
 * P               1      0.88117(cons'd)     -1.67995(cons'd)     -0.16438         *
 * P               2     -0.11369(cons'd)     -0.08548(cons'd)      0.00725         *
 * P               3     -0.27706(cons'd)     -0.01090(cons'd)      0.00524         *
 * P               4      0.82616(cons'd)     -1.71224(cons'd)     -0.13291         *
 * P               5     -0.15296(cons'd)      0.13192(cons'd)     -0.02410         *
 * P               6     -0.13535(cons'd)      0.00693(cons'd)     -0.02909         *
 * P               7     -0.17784(cons'd)     -0.05726(cons'd)      0.01237         *
 * P               8      0.01412(cons'd)      0.04099(cons'd)     -0.02392         *
 * P               9     -0.05769(cons'd)      0.44601(cons'd)      0.03633         *
 * P              10     -0.22232(cons'd)      0.35078(cons'd)      0.03210         *
 * P              11      0.01497(cons'd)     -0.06520(cons'd)     -0.03144         *
 * P              12     -0.01519(cons'd)      0.02835(cons'd)     -0.03358         *
 * In              1      0.32406(cons'd)      0.16111(cons'd)     -0.02095         *
 * In              2     -0.04009(cons'd)     -0.01411(cons'd)     -0.00384         *
 * In              3      0.11177(cons'd)      0.20990(cons'd)     -0.06244         *
 * In              4      0.06401(cons'd)     -0.08374(cons'd)     -0.01876         *
 * In              5     -0.98405(cons'd)      1.10675(cons'd)      0.23205         *
 * In              6     -0.84200(cons'd)      1.10096(cons'd)      0.12713         *
 * In              7      0.28071(cons'd)      0.01904(cons'd)     -0.01874         *
 * In              8      0.18277(cons'd)      0.03865(cons'd)     -0.00432         *
 * In              9     -0.04548(cons'd)     -0.00724(cons'd)      0.03608         *
 * In             10     -0.01080(cons'd)      0.04829(cons'd)     -0.00214         *
 * In             11      0.20698(cons'd)     -0.04822(cons'd)      0.05080         *
 * In             12      0.16776(cons'd)      0.07466(cons'd)      0.03125         *
 *                                                                                  *
 ************************************************************************************
 EXP precond LBFGS => estimated parameter mu :  2.092       eV/A**2
 LBFGS: finished iteration     0 with enthalpy= -2.35782392E+004 eV
  
 +-----------+-----------------+-----------------+------------+-----+ <-- LBFGS
 | Parameter |      value      |    tolerance    |    units   | OK? | <-- LBFGS
 +-----------+-----------------+-----------------+------------+-----+ <-- LBFGS
 |  dE/ion   |   0.000000E+000 |   2.000000E-005 |         eV | No  | <-- LBFGS
 |  |F|max   |   1.905770E+000 |   1.000000E-003 |       eV/A | No  | <-- LBFGS
 |  |dR|max  |   2.719875E-015 |   1.000000E-003 |          A | No  | <-- LBFGS
 +-----------+-----------------+-----------------+------------+-----+ <-- LBFGS
  

================================================================================
 Starting LBFGS iteration          1 ...
================================================================================
  
 +------------+-------------+-------------+-----------------+ <-- min LBFGS
 |    Step    |   lambda    |   F.delta'  |    enthalpy     | <-- min LBFGS
 +------------+-------------+-------------+-----------------+ <-- min LBFGS
 |  previous  |    0.000000 |    0.048012 |   -23578.239191 | <-- min LBFGS
 +------------+-------------+-------------+-----------------+ <-- min LBFGS
  

--------------------------------------------------------------------------------
 LBFGS: starting iteration         1 with trial guess (lambda=  1.000000)
--------------------------------------------------------------------------------

                           -------------------------------
                                     Cell Contents
                           -------------------------------

            xxxxxxxxxxxxxxxxxxxxxxxxxxxxxxxxxxxxxxxxxxxxxxxxxxxxxxxxxxxxxxxxx
            x  Element         Atom        Fractional coordinates of atoms  x
            x                 Number           u          v          w      x
            x---------------------------------------------------------------x
            x  P                 1         0.250000  -0.045779   0.909462   x
            x  P                 2         0.250000  -0.402425   0.745629   x
            x  P                 3         0.750000   0.097575   0.745629   x
            x  P                 4         0.750000  -0.545779   0.909462   x
            x  P                 5         0.750000   0.028748   0.252860   x
            x  P                 6         0.750000   0.385052   0.417083   x
            x  P                 7         0.750000  -0.258681   0.581350   x
            x  P                 8         0.250000   0.528748   0.252860   x
            x  P                 9         0.250000   0.172749   0.088287   x
            x  P                10         0.750000   0.672749   0.088287   x
            x  P                11         0.250000  -0.114948   0.417083   x
            x  P                12         0.250000   0.241319   0.581350   x
            x  In                1         0.000000  -0.224963   0.828530   x
            x  In                2         0.500000  -0.081003   0.664004   x
            x  In                3         0.500000  -0.724963   0.828530   x
            x  In                4         0.500000  -0.149854   0.171262   x
            x  In                5         0.500000   0.494522   0.006260   x
            x  In                6         0.000000  -0.005478   0.006260   x
            x  In                7         0.000000   0.350146   0.171262   x
            x  In                8         0.000000  -0.581003   0.664004   x
            x  In                9         0.500000  -0.437291   0.499761   x
            x  In               10         0.500000   0.206427   0.335512   x
            x  In               11         0.000000  -0.293573   0.335512   x
            x  In               12         0.000000   0.062709   0.499761   x
            xxxxxxxxxxxxxxxxxxxxxxxxxxxxxxxxxxxxxxxxxxxxxxxxxxxxxxxxxxxxxxxxx


------------------------------------------------------------------------ <-- SCF
SCF loop      Energy           Fermi           Energy gain       Timer   <-- SCF
                               energy          per atom          (sec)   <-- SCF
------------------------------------------------------------------------ <-- SCF
Initial  -2.35773379E+004  0.00000000E+000                      1190.60  <-- SCF
      1  -2.35781256E+004  3.50279116E+000   3.28188384E-002    1228.11  <-- SCF
      2  -2.35782375E+004  3.50271170E+000   4.66332203E-003    1271.65  <-- SCF
      3  -2.35782386E+004  3.50382831E+000   4.30132180E-005    1309.43  <-- SCF
      4  -2.35782394E+004  3.50523659E+000   3.63592383E-005    1346.30  <-- SCF
      5  -2.35782395E+004  3.50564979E+000   4.80366400E-006    1389.31  <-- SCF
      6  -2.35782396E+004  3.50589394E+000   7.16068981E-007    1429.18  <-- SCF
      7  -2.35782396E+004  3.50606799E+000   6.60228508E-008    1466.16  <-- SCF
      8  -2.35782396E+004  3.50621641E+000  -1.38413055E-008    1498.39  <-- SCF
      9  -2.35782396E+004  3.50627213E+000  -4.29994237E-009    1526.04  <-- SCF
     10  -2.35782396E+004  3.50632311E+000  -2.12167785E-009    1555.37  <-- SCF
     11  -2.35782396E+004  3.50634286E+000  -7.34724407E-011    1583.73  <-- SCF
------------------------------------------------------------------------ <-- SCF
 
Final energy, E             =  -23578.23931919     eV
Final free energy (E-TS)    =  -23578.23955773     eV
(energies not corrected for finite basis set)
 
NB est. 0K energy (E-0.5TS)      =  -23578.23943846     eV
 

 ******************************** Constrained Forces ********************************
 *                                                                                  *
 *                           Cartesian components (eV/A)                            *
 * -------------------------------------------------------------------------------- *
 *                         x                    y                    z              *
 *                                                                                  *
 * P               1     -0.00000(cons'd)      0.00000(cons'd)      0.00287         *
 * P               2      0.00000(cons'd)      0.00000(cons'd)     -0.00501         *
 * P               3      0.00000(cons'd)      0.00000(cons'd)     -0.00501         *
 * P               4     -0.00000(cons'd)      0.00000(cons'd)      0.00287         *
 * P               5      0.00000(cons'd)     -0.00000(cons'd)     -0.00294         *
 * P               6      0.00000(cons'd)     -0.00000(cons'd)      0.00505         *
 * P               7      0.00000(cons'd)      0.00000(cons'd)      0.00167         *
 * P               8      0.00000(cons'd)      0.00000(cons'd)     -0.00294         *
 * P               9      0.00000(cons'd)      0.00000(cons'd)     -0.00320         *
 * P              10      0.00000(cons'd)     -0.00000(cons'd)     -0.00320         *
 * P              11      0.00000(cons'd)     -0.00000(cons'd)      0.00505         *
 * P              12      0.00000(cons'd)      0.00000(cons'd)      0.00167         *
 * In              1      0.00000(cons'd)     -0.00000(cons'd)      0.00481         *
 * In              2      0.00000(cons'd)      0.00000(cons'd)      0.00290         *
 * In              3      0.00000(cons'd)      0.00000(cons'd)      0.00481         *
 * In              4      0.00000(cons'd)      0.00000(cons'd)      0.00489         *
 * In              5      0.00000(cons'd)      0.00000(cons'd)     -0.00356         *
 * In              6      0.00000(cons'd)      0.00000(cons'd)     -0.00358         *
 * In              7      0.00000(cons'd)      0.00000(cons'd)      0.00488         *
 * In              8      0.00000(cons'd)      0.00000(cons'd)      0.00290         *
 * In              9      0.00000(cons'd)      0.00000(cons'd)     -0.00343         *
 * In             10      0.00000(cons'd)      0.00000(cons'd)     -0.00403         *
 * In             11      0.00000(cons'd)      0.00000(cons'd)     -0.00403         *
 * In             12      0.00000(cons'd)      0.00000(cons'd)     -0.00343         *
 *                                                                                  *
 ************************************************************************************
  
 +------------+-------------+-------------+-----------------+ <-- min LBFGS
 |    Step    |   lambda    |   F.delta'  |    enthalpy     | <-- min LBFGS
 +------------+-------------+-------------+-----------------+ <-- min LBFGS
 |  previous  |    0.000000 |    0.048012 |   -23578.239191 | <-- min LBFGS
 | trial step |    1.000000 |   -0.005085 |   -23578.239558 | <-- min LBFGS
 +------------+-------------+-------------+-----------------+ <-- min LBFGS
  
 LBFGS: finished iteration     1 with enthalpy= -2.35782396E+004 eV
  
 +-----------+-----------------+-----------------+------------+-----+ <-- LBFGS
 | Parameter |      value      |    tolerance    |    units   | OK? | <-- LBFGS
 +-----------+-----------------+-----------------+------------+-----+ <-- LBFGS
 |  dE/ion   |   1.526348E-005 |   2.000000E-005 |         eV | Yes | <-- LBFGS
 |  |F|max   |   5.053431E-003 |   1.000000E-003 |       eV/A | No  | <-- LBFGS
 |  |dR|max  |   2.954211E-003 |   1.000000E-003 |          A | No  | <-- LBFGS
 +-----------+-----------------+-----------------+------------+-----+ <-- LBFGS
  

================================================================================
 Starting LBFGS iteration          2 ...
================================================================================
  
 +------------+-------------+-------------+-----------------+ <-- min LBFGS
 |    Step    |   lambda    |   F.delta'  |    enthalpy     | <-- min LBFGS
 +------------+-------------+-------------+-----------------+ <-- min LBFGS
 |  previous  |    0.000000 |    0.007119 |   -23578.239558 | <-- min LBFGS
 +------------+-------------+-------------+-----------------+ <-- min LBFGS
  

--------------------------------------------------------------------------------
 LBFGS: starting iteration         2 with trial guess (lambda=  1.000000)
--------------------------------------------------------------------------------

                           -------------------------------
                                     Cell Contents
                           -------------------------------

            xxxxxxxxxxxxxxxxxxxxxxxxxxxxxxxxxxxxxxxxxxxxxxxxxxxxxxxxxxxxxxxxx
            x  Element         Atom        Fractional coordinates of atoms  x
            x                 Number           u          v          w      x
            x---------------------------------------------------------------x
            x  P                 1         0.250000  -0.045798   0.909483   x
            x  P                 2         0.250000  -0.402424   0.745628   x
            x  P                 3         0.750000   0.097576   0.745628   x
            x  P                 4         0.750000  -0.545798   0.909483   x
            x  P                 5         0.750000   0.028773   0.252831   x
            x  P                 6         0.750000   0.385044   0.417093   x
            x  P                 7         0.750000  -0.258694   0.581364   x
            x  P                 8         0.250000   0.528773   0.252831   x
            x  P                 9         0.250000   0.172768   0.088265   x
            x  P                10         0.750000   0.672768   0.088265   x
            x  P                11         0.250000  -0.114956   0.417093   x
            x  P                12         0.250000   0.241306   0.581365   x
            x  In                1         0.000000  -0.224990   0.828560   x
            x  In                2         0.500000  -0.081023   0.664026   x
            x  In                3         0.500000  -0.724990   0.828560   x
            x  In                4         0.500000  -0.149855   0.171263   x
            x  In                5         0.500000   0.494538   0.006243   x
            x  In                6         0.000000  -0.005462   0.006243   x
            x  In                7         0.000000   0.350145   0.171262   x
            x  In                8         0.000000  -0.581023   0.664026   x
            x  In                9         0.500000  -0.437287   0.499757   x
            x  In               10         0.500000   0.206449   0.335487   x
            x  In               11         0.000000  -0.293551   0.335487   x
            x  In               12         0.000000   0.062713   0.499757   x
            xxxxxxxxxxxxxxxxxxxxxxxxxxxxxxxxxxxxxxxxxxxxxxxxxxxxxxxxxxxxxxxxx


------------------------------------------------------------------------ <-- SCF
SCF loop      Energy           Fermi           Energy gain       Timer   <-- SCF
                               energy          per atom          (sec)   <-- SCF
------------------------------------------------------------------------ <-- SCF
Initial  -2.35782387E+004  0.00000000E+000                      1611.18  <-- SCF
      1  -2.35782395E+004  3.50606486E+000   3.40420246E-005    1648.55  <-- SCF
      2  -2.35782396E+004  3.50606485E+000   1.10450927E-006    1692.39  <-- SCF
      3  -2.35782396E+004  3.50603541E+000  -8.25185738E-009    1724.06  <-- SCF
      4  -2.35782396E+004  3.50601461E+000  -3.03698978E-009    1754.44  <-- SCF
      5  -2.35782396E+004  3.50601472E+000  -1.84067799E-010    1781.02  <-- SCF
------------------------------------------------------------------------ <-- SCF
 
Final energy, E             =  -23578.23933238     eV
Final free energy (E-TS)    =  -23578.23956924     eV
(energies not corrected for finite basis set)
 
NB est. 0K energy (E-0.5TS)      =  -23578.23945081     eV
 

 ******************************** Constrained Forces ********************************
 *                                                                                  *
 *                           Cartesian components (eV/A)                            *
 * -------------------------------------------------------------------------------- *
 *                         x                    y                    z              *
 *                                                                                  *
 * P               1     -0.00000(cons'd)      0.00000(cons'd)     -0.00141         *
 * P               2      0.00000(cons'd)      0.00000(cons'd)      0.00004         *
 * P               3      0.00000(cons'd)      0.00000(cons'd)      0.00004         *
 * P               4     -0.00000(cons'd)      0.00000(cons'd)     -0.00141         *
 * P               5      0.00000(cons'd)      0.00000(cons'd)      0.00025         *
 * P               6      0.00000(cons'd)     -0.00000(cons'd)      0.00022         *
 * P               7      0.00000(cons'd)      0.00000(cons'd)      0.00035         *
 * P               8      0.00000(cons'd)      0.00000(cons'd)      0.00025         *
 * P               9      0.00000(cons'd)      0.00000(cons'd)     -0.00063         *
 * P              10      0.00000(cons'd)     -0.00000(cons'd)     -0.00064         *
 * P              11      0.00000(cons'd)     -0.00000(cons'd)      0.00022         *
 * P              12      0.00000(cons'd)      0.00000(cons'd)      0.00035         *
 * In              1      0.00000(cons'd)      0.00000(cons'd)     -0.00014         *
 * In              2      0.00000(cons'd)      0.00000(cons'd)     -0.00066         *
 * In              3      0.00000(cons'd)      0.00000(cons'd)     -0.00015         *
 * In              4      0.00000(cons'd)      0.00000(cons'd)     -0.00047         *
 * In              5      0.00000(cons'd)      0.00000(cons'd)      0.00245         *
 * In              6      0.00000(cons'd)      0.00000(cons'd)      0.00247         *
 * In              7      0.00000(cons'd)      0.00000(cons'd)     -0.00046         *
 * In              8      0.00000(cons'd)      0.00000(cons'd)     -0.00066         *
 * In              9      0.00000(cons'd)      0.00000(cons'd)     -0.00018         *
 * In             10      0.00000(cons'd)     -0.00000(cons'd)      0.00016         *
 * In             11      0.00000(cons'd)      0.00000(cons'd)      0.00016         *
 * In             12      0.00000(cons'd)      0.00000(cons'd)     -0.00017         *
 *                                                                                  *
 ************************************************************************************
  
 +------------+-------------+-------------+-----------------+ <-- min LBFGS
 |    Step    |   lambda    |   F.delta'  |    enthalpy     | <-- min LBFGS
 +------------+-------------+-------------+-----------------+ <-- min LBFGS
 |  previous  |    0.000000 |    0.007119 |   -23578.239558 | <-- min LBFGS
 | trial step |    1.000000 |   -0.000847 |   -23578.239569 | <-- min LBFGS
 +------------+-------------+-------------+-----------------+ <-- min LBFGS
  
 LBFGS: finished iteration     2 with enthalpy= -2.35782396E+004 eV
  
 +-----------+-----------------+-----------------+------------+-----+ <-- LBFGS
 | Parameter |      value      |    tolerance    |    units   | OK? | <-- LBFGS
 +-----------+-----------------+-----------------+------------+-----+ <-- LBFGS
 |  dE/ion   |   4.797240E-007 |   2.000000E-005 |         eV | Yes | <-- LBFGS
 |  |F|max   |   2.471569E-003 |   1.000000E-003 |       eV/A | No  | <-- LBFGS
 |  |dR|max  |   5.411406E-004 |   1.000000E-003 |          A | Yes | <-- LBFGS
 +-----------+-----------------+-----------------+------------+-----+ <-- LBFGS
  

================================================================================
 Starting LBFGS iteration          3 ...
================================================================================
  
 +------------+-------------+-------------+-----------------+ <-- min LBFGS
 |    Step    |   lambda    |   F.delta'  |    enthalpy     | <-- min LBFGS
 +------------+-------------+-------------+-----------------+ <-- min LBFGS
 |  previous  |    0.000000 |    0.001822 |   -23578.239569 | <-- min LBFGS
 +------------+-------------+-------------+-----------------+ <-- min LBFGS
  

--------------------------------------------------------------------------------
 LBFGS: starting iteration         3 with trial guess (lambda=  1.000000)
--------------------------------------------------------------------------------

                           -------------------------------
                                     Cell Contents
                           -------------------------------

            xxxxxxxxxxxxxxxxxxxxxxxxxxxxxxxxxxxxxxxxxxxxxxxxxxxxxxxxxxxxxxxxx
            x  Element         Atom        Fractional coordinates of atoms  x
            x                 Number           u          v          w      x
            x---------------------------------------------------------------x
            x  P                 1         0.250000  -0.045794   0.909479   x
            x  P                 2         0.250000  -0.402421   0.745624   x
            x  P                 3         0.750000   0.097579   0.745624   x
            x  P                 4         0.750000  -0.545794   0.909479   x
            x  P                 5         0.750000   0.028771   0.252833   x
            x  P                 6         0.750000   0.385041   0.417096   x
            x  P                 7         0.750000  -0.258694   0.581364   x
            x  P                 8         0.250000   0.528771   0.252833   x
            x  P                 9         0.250000   0.172768   0.088266   x
            x  P                10         0.750000   0.672768   0.088266   x
            x  P                11         0.250000  -0.114959   0.417096   x
            x  P                12         0.250000   0.241306   0.581364   x
            x  In                1         0.000000  -0.224988   0.828558   x
            x  In                2         0.500000  -0.081019   0.664021   x
            x  In                3         0.500000  -0.724988   0.828558   x
            x  In                4         0.500000  -0.149855   0.171263   x
            x  In                5         0.500000   0.494529   0.006253   x
            x  In                6         0.000000  -0.005471   0.006253   x
            x  In                7         0.000000   0.350145   0.171263   x
            x  In                8         0.000000  -0.581019   0.664021   x
            x  In                9         0.500000  -0.437286   0.499755   x
            x  In               10         0.500000   0.206448   0.335488   x
            x  In               11         0.000000  -0.293552   0.335488   x
            x  In               12         0.000000   0.062714   0.499755   x
            xxxxxxxxxxxxxxxxxxxxxxxxxxxxxxxxxxxxxxxxxxxxxxxxxxxxxxxxxxxxxxxxx


------------------------------------------------------------------------ <-- SCF
SCF loop      Energy           Fermi           Energy gain       Timer   <-- SCF
                               energy          per atom          (sec)   <-- SCF
------------------------------------------------------------------------ <-- SCF
Initial  -2.35782396E+004  0.00000000E+000                      1808.70  <-- SCF
      1  -2.35782396E+004  3.50612491E+000   6.41381022E-007    1845.49  <-- SCF
      2  -2.35782396E+004  3.50612491E+000   6.07114378E-008    1879.71  <-- SCF
      3  -2.35782396E+004  3.50614375E+000  -1.24774250E-010    1907.51  <-- SCF
      4  -2.35782396E+004  3.50616355E+000  -1.03841049E-009    1935.65  <-- SCF
------------------------------------------------------------------------ <-- SCF
 
Final energy, E             =  -23578.23933164     eV
Final free energy (E-TS)    =  -23578.23956926     eV
(energies not corrected for finite basis set)
 
NB est. 0K energy (E-0.5TS)      =  -23578.23945045     eV
 

 ******************************** Constrained Forces ********************************
 *                                                                                  *
 *                           Cartesian components (eV/A)                            *
 * -------------------------------------------------------------------------------- *
 *                         x                    y                    z              *
 *                                                                                  *
 * P               1      0.00000(cons'd)      0.00000(cons'd)      0.00040         *
 * P               2      0.00000(cons'd)      0.00000(cons'd)      0.00027         *
 * P               3      0.00000(cons'd)      0.00000(cons'd)      0.00027         *
 * P               4     -0.00000(cons'd)      0.00000(cons'd)      0.00039         *
 * P               5      0.00000(cons'd)      0.00000(cons'd)      0.00010         *
 * P               6      0.00000(cons'd)      0.00000(cons'd)     -0.00038         *
 * P               7      0.00000(cons'd)      0.00000(cons'd)     -0.00015         *
 * P               8      0.00000(cons'd)      0.00000(cons'd)      0.00010         *
 * P               9      0.00000(cons'd)     -0.00000(cons'd)      0.00023         *
 * P              10      0.00000(cons'd)      0.00000(cons'd)      0.00023         *
 * P              11      0.00000(cons'd)     -0.00000(cons'd)     -0.00038         *
 * P              12      0.00000(cons'd)      0.00000(cons'd)     -0.00015         *
 * In              1      0.00000(cons'd)      0.00000(cons'd)      0.00071         *
 * In              2      0.00000(cons'd)      0.00000(cons'd)      0.00088         *
 * In              3      0.00000(cons'd)      0.00000(cons'd)      0.00071         *
 * In              4      0.00000(cons'd)      0.00000(cons'd)     -0.00006         *
 * In              5      0.00000(cons'd)      0.00000(cons'd)     -0.00182         *
 * In              6      0.00000(cons'd)      0.00000(cons'd)     -0.00183         *
 * In              7      0.00000(cons'd)      0.00000(cons'd)     -0.00006         *
 * In              8      0.00000(cons'd)      0.00000(cons'd)      0.00088         *
 * In              9      0.00000(cons'd)      0.00000(cons'd)      0.00054         *
 * In             10      0.00000(cons'd)     -0.00000(cons'd)     -0.00072         *
 * In             11      0.00000(cons'd)      0.00000(cons'd)     -0.00072         *
 * In             12      0.00000(cons'd)      0.00000(cons'd)      0.00054         *
 *                                                                                  *
 ************************************************************************************
  
 +------------+-------------+-------------+-----------------+ <-- min LBFGS
 |    Step    |   lambda    |   F.delta'  |    enthalpy     | <-- min LBFGS
 +------------+-------------+-------------+-----------------+ <-- min LBFGS
 |  previous  |    0.000000 |    0.001822 |   -23578.239569 | <-- min LBFGS
 | trial step |    1.000000 |   -0.001521 |   -23578.239569 | <-- min LBFGS
 +------------+-------------+-------------+-----------------+ <-- min LBFGS
  

--------------------------------------------------------------------------------
 LBFGS: improving iteration         3 with line minimization (lambda=  0.545010)
--------------------------------------------------------------------------------

                           -------------------------------
                                     Cell Contents
                           -------------------------------

            xxxxxxxxxxxxxxxxxxxxxxxxxxxxxxxxxxxxxxxxxxxxxxxxxxxxxxxxxxxxxxxxx
            x  Element         Atom        Fractional coordinates of atoms  x
            x                 Number           u          v          w      x
            x---------------------------------------------------------------x
            x  P                 1         0.250000  -0.045796   0.909481   x
            x  P                 2         0.250000  -0.402422   0.745626   x
            x  P                 3         0.750000   0.097578   0.745626   x
            x  P                 4         0.750000  -0.545796   0.909481   x
            x  P                 5         0.750000   0.028772   0.252832   x
            x  P                 6         0.750000   0.385042   0.417094   x
            x  P                 7         0.750000  -0.258694   0.581364   x
            x  P                 8         0.250000   0.528772   0.252832   x
            x  P                 9         0.250000   0.172768   0.088265   x
            x  P                10         0.750000   0.672768   0.088265   x
            x  P                11         0.250000  -0.114958   0.417094   x
            x  P                12         0.250000   0.241306   0.581364   x
            x  In                1         0.000000  -0.224989   0.828559   x
            x  In                2         0.500000  -0.081020   0.664023   x
            x  In                3         0.500000  -0.724989   0.828559   x
            x  In                4         0.500000  -0.149855   0.171263   x
            x  In                5         0.500000   0.494533   0.006248   x
            x  In                6         0.000000  -0.005467   0.006248   x
            x  In                7         0.000000   0.350145   0.171263   x
            x  In                8         0.000000  -0.581020   0.664023   x
            x  In                9         0.500000  -0.437286   0.499756   x
            x  In               10         0.500000   0.206448   0.335488   x
            x  In               11         0.000000  -0.293552   0.335487   x
            x  In               12         0.000000   0.062714   0.499756   x
            xxxxxxxxxxxxxxxxxxxxxxxxxxxxxxxxxxxxxxxxxxxxxxxxxxxxxxxxxxxxxxxxx


------------------------------------------------------------------------ <-- SCF
SCF loop      Energy           Fermi           Energy gain       Timer   <-- SCF
                               energy          per atom          (sec)   <-- SCF
------------------------------------------------------------------------ <-- SCF
Initial  -2.35782393E+004  0.00000000E+000                      1961.86  <-- SCF
      1  -2.35782396E+004  3.50611914E+000   1.10786393E-005    2004.13  <-- SCF
      2  -2.35782396E+004  3.50611914E+000   1.18865519E-008    2033.44  <-- SCF
      3  -2.35782396E+004  3.50611298E+000   6.77622141E-010    2060.13  <-- SCF
      4  -2.35782396E+004  3.50610792E+000   2.64371887E-010    2086.16  <-- SCF
------------------------------------------------------------------------ <-- SCF
 
Final energy, E             =  -23578.23933204     eV
Final free energy (E-TS)    =  -23578.23956942     eV
(energies not corrected for finite basis set)
 
NB est. 0K energy (E-0.5TS)      =  -23578.23945073     eV
 

 ******************************** Constrained Forces ********************************
 *                                                                                  *
 *                           Cartesian components (eV/A)                            *
 * -------------------------------------------------------------------------------- *
 *                         x                    y                    z              *
 *                                                                                  *
 * P               1      0.00000(cons'd)      0.00000(cons'd)     -0.00020         *
 * P               2      0.00000(cons'd)      0.00000(cons'd)      0.00033         *
 * P               3      0.00000(cons'd)      0.00000(cons'd)      0.00033         *
 * P               4     -0.00000(cons'd)      0.00000(cons'd)     -0.00020         *
 * P               5      0.00000(cons'd)      0.00000(cons'd)      0.00016         *
 * P               6      0.00000(cons'd)      0.00000(cons'd)     -0.00026         *
 * P               7      0.00000(cons'd)      0.00000(cons'd)      0.00003         *
 * P               8      0.00000(cons'd)      0.00000(cons'd)      0.00016         *
 * P               9      0.00000(cons'd)      0.00000(cons'd)     -0.00004         *
 * P              10      0.00000(cons'd)     -0.00000(cons'd)     -0.00004         *
 * P              11      0.00000(cons'd)     -0.00000(cons'd)     -0.00026         *
 * P              12      0.00000(cons'd)      0.00000(cons'd)      0.00003         *
 * In              1      0.00000(cons'd)      0.00000(cons'd)     -0.00001         *
 * In              2      0.00000(cons'd)      0.00000(cons'd)     -0.00027         *
 * In              3      0.00000(cons'd)      0.00000(cons'd)     -0.00001         *
 * In              4      0.00000(cons'd)      0.00000(cons'd)     -0.00001         *
 * In              5      0.00000(cons'd)      0.00000(cons'd)      0.00057         *
 * In              6      0.00000(cons'd)      0.00000(cons'd)      0.00058         *
 * In              7      0.00000(cons'd)      0.00000(cons'd)     -0.00000         *
 * In              8      0.00000(cons'd)      0.00000(cons'd)     -0.00027         *
 * In              9      0.00000(cons'd)     -0.00000(cons'd)     -0.00022         *
 * In             10      0.00000(cons'd)      0.00000(cons'd)     -0.00010         *
 * In             11      0.00000(cons'd)      0.00000(cons'd)     -0.00010         *
 * In             12      0.00000(cons'd)      0.00000(cons'd)     -0.00021         *
 *                                                                                  *
 ************************************************************************************
  
 +------------+-------------+-------------+-----------------+ <-- min LBFGS
 |    Step    |   lambda    |   F.delta'  |    enthalpy     | <-- min LBFGS
 +------------+-------------+-------------+-----------------+ <-- min LBFGS
 |  previous  |    0.000000 |    0.001822 |   -23578.239569 | <-- min LBFGS
 | trial step |    1.000000 |   -0.001521 |   -23578.239569 | <-- min LBFGS
 |  line step |    0.545010 |    0.000328 |   -23578.239569 | <-- min LBFGS
 +------------+-------------+-------------+-----------------+ <-- min LBFGS
  
 LBFGS: finished iteration     3 with enthalpy= -2.35782396E+004 eV
  
 +-----------+-----------------+-----------------+------------+-----+ <-- LBFGS
 | Parameter |      value      |    tolerance    |    units   | OK? | <-- LBFGS
 +-----------+-----------------+-----------------+------------+-----+ <-- LBFGS
 |  dE/ion   |   7.121026E-009 |   2.000000E-005 |         eV | Yes | <-- LBFGS
 |  |F|max   |   5.756940E-004 |   1.000000E-003 |       eV/A | Yes | <-- LBFGS
 |  |dR|max  |   9.863594E-005 |   1.000000E-003 |          A | Yes | <-- LBFGS
 +-----------+-----------------+-----------------+------------+-----+ <-- LBFGS
  
 Hirshfeld supercell size:           3           3           1
Standard grid dimensions: 180 180 192
Fine grid dimensions:     180 180 192

 LBFGS: Geometry optimization completed successfully.

================================================================================
 LBFGS: Final Configuration:
================================================================================

                           -------------------------------
                                     Cell Contents
                           -------------------------------

            xxxxxxxxxxxxxxxxxxxxxxxxxxxxxxxxxxxxxxxxxxxxxxxxxxxxxxxxxxxxxxxxx
            x  Element         Atom        Fractional coordinates of atoms  x
            x                 Number           u          v          w      x
            x---------------------------------------------------------------x
            x  P                 1         0.250000  -0.045796   0.909481   x
            x  P                 2         0.250000  -0.402422   0.745626   x
            x  P                 3         0.750000   0.097578   0.745626   x
            x  P                 4         0.750000  -0.545796   0.909481   x
            x  P                 5         0.750000   0.028772   0.252832   x
            x  P                 6         0.750000   0.385042   0.417094   x
            x  P                 7         0.750000  -0.258694   0.581364   x
            x  P                 8         0.250000   0.528772   0.252832   x
            x  P                 9         0.250000   0.172768   0.088265   x
            x  P                10         0.750000   0.672768   0.088265   x
            x  P                11         0.250000  -0.114958   0.417094   x
            x  P                12         0.250000   0.241306   0.581364   x
            x  In                1         0.000000  -0.224989   0.828559   x
            x  In                2         0.500000  -0.081020   0.664023   x
            x  In                3         0.500000  -0.724989   0.828559   x
            x  In                4         0.500000  -0.149855   0.171263   x
            x  In                5         0.500000   0.494533   0.006248   x
            x  In                6         0.000000  -0.005467   0.006248   x
            x  In                7         0.000000   0.350145   0.171263   x
            x  In                8         0.000000  -0.581020   0.664023   x
            x  In                9         0.500000  -0.437286   0.499756   x
            x  In               10         0.500000   0.206448   0.335488   x
            x  In               11         0.000000  -0.293552   0.335487   x
            x  In               12         0.000000   0.062714   0.499756   x
            xxxxxxxxxxxxxxxxxxxxxxxxxxxxxxxxxxxxxxxxxxxxxxxxxxxxxxxxxxxxxxxxx


 LBFGS: Final Enthalpy     = -2.35782396E+004 eV
 LBFGS: Final <frequency>  =     217.15389 cm-1

 ******************* Unconstrained Forces *******************
 *                                                          *
 *               Cartesian components (eV/A)                *
 * -------------------------------------------------------- *
 *                         x            y            z      *
 *                                                          *
 * P               1      0.77964     -1.58871     -0.00020 *
 * P               2     -0.14058     -0.07096      0.00033 *
 * P               3     -0.14058     -0.07096      0.00033 *
 * P               4      0.77964     -1.58871     -0.00020 *
 * P               5     -0.01232      0.05025      0.00016 *
 * P               6     -0.00652      0.00490     -0.00026 *
 * P               7     -0.01755     -0.01029      0.00003 *
 * P               8     -0.01233      0.05025      0.00016 *
 * P               9     -0.08343      0.35324     -0.00004 *
 * P              10     -0.08343      0.35324     -0.00004 *
 * P              11     -0.00652      0.00490     -0.00026 *
 * P              12     -0.01755     -0.01029      0.00003 *
 * In              1      0.14187      0.18681     -0.00001 *
 * In              2      0.01754      0.03361     -0.00027 *
 * In              3      0.14187      0.18682     -0.00001 *
 * In              4      0.11630     -0.00441     -0.00001 *
 * In              5     -0.81794      1.03969      0.00057 *
 * In              6     -0.81794      1.03970      0.00058 *
 * In              7      0.11630     -0.00441     -0.00000 *
 * In              8      0.01754      0.03361     -0.00027 *
 * In              9      0.00571      0.00509     -0.00022 *
 * In             10      0.01729      0.00076     -0.00010 *
 * In             11      0.01730      0.00076     -0.00010 *
 * In             12      0.00571      0.00509     -0.00021 *
 *                                                          *
 ************************************************************

 ******************************** Constrained Forces ********************************
 *                                                                                  *
 *                           Cartesian components (eV/A)                            *
 * -------------------------------------------------------------------------------- *
 *                         x                    y                    z              *
 *                                                                                  *
 * P               1     -0.00000(cons'd)      0.00000(cons'd)     -0.00020         *
 * P               2      0.00000(cons'd)      0.00000(cons'd)      0.00033         *
 * P               3      0.00000(cons'd)      0.00000(cons'd)      0.00033         *
 * P               4      0.00000(cons'd)      0.00000(cons'd)     -0.00020         *
 * P               5      0.00000(cons'd)     -0.00000(cons'd)      0.00016         *
 * P               6      0.00000(cons'd)      0.00000(cons'd)     -0.00026         *
 * P               7      0.00000(cons'd)      0.00000(cons'd)      0.00003         *
 * P               8      0.00000(cons'd)     -0.00000(cons'd)      0.00016         *
 * P               9      0.00000(cons'd)     -0.00000(cons'd)     -0.00004         *
 * P              10      0.00000(cons'd)      0.00000(cons'd)     -0.00004         *
 * P              11      0.00000(cons'd)     -0.00000(cons'd)     -0.00026         *
 * P              12      0.00000(cons'd)      0.00000(cons'd)      0.00003         *
 * In              1      0.00000(cons'd)     -0.00000(cons'd)     -0.00001         *
 * In              2      0.00000(cons'd)      0.00000(cons'd)     -0.00027         *
 * In              3      0.00000(cons'd)     -0.00000(cons'd)     -0.00001         *
 * In              4      0.00000(cons'd)      0.00000(cons'd)     -0.00001         *
 * In              5      0.00000(cons'd)      0.00000(cons'd)      0.00057         *
 * In              6      0.00000(cons'd)      0.00000(cons'd)      0.00058         *
 * In              7      0.00000(cons'd)      0.00000(cons'd)     -0.00000         *
 * In              8      0.00000(cons'd)      0.00000(cons'd)     -0.00027         *
 * In              9      0.00000(cons'd)      0.00000(cons'd)     -0.00022         *
 * In             10      0.00000(cons'd)     -0.00000(cons'd)     -0.00010         *
 * In             11      0.00000(cons'd)      0.00000(cons'd)     -0.00010         *
 * In             12      0.00000(cons'd)      0.00000(cons'd)     -0.00021         *
 *                                                                                  *
 ************************************************************************************

 Pseudo atomic calculation performed for P 3s2 3p3

 Converged in 23 iterations to a total energy of -208.0292 eV

 Pseudo atomic calculation performed for In 4d10 5s2 5p1

 Converged in 42 iterations to a total energy of -1747.4501 eV
Charge spilling parameter for spin component 1 = 0.16%

            Orbital Populations       
     Ion    Atom   Orbital             Charge
  -------------------------------------------
      P     1      S                    1.739
      P     1      Px                   1.313
      P     1      Py                   1.338
      P     1      Pz                   1.291
      P     2      S                    1.733
      P     2      Px                   1.312
      P     2      Py                   1.313
      P     2      Pz                   1.317
      P     3      S                    1.733
      P     3      Px                   1.312
      P     3      Py                   1.313
      P     3      Pz                   1.317
      P     4      S                    1.739
      P     4      Px                   1.313
      P     4      Py                   1.338
      P     4      Pz                   1.291
      P     5      S                    1.731
      P     5      Px                   1.315
      P     5      Py                   1.315
      P     5      Pz                   1.318
      P     6      S                    1.731
      P     6      Px                   1.315
      P     6      Py                   1.315
      P     6      Pz                   1.318
      P     7      S                    1.731
      P     7      Px                   1.315
      P     7      Py                   1.315
      P     7      Pz                   1.318
      P     8      S                    1.731
      P     8      Px                   1.315
      P     8      Py                   1.315
      P     8      Pz                   1.318
      P     9      S                    1.738
      P     9      Px                   1.309
      P     9      Py                   1.307
      P     9      Pz                   1.318
      P    10      S                    1.738
      P    10      Px                   1.309
      P    10      Py                   1.307
      P    10      Pz                   1.318
      P    11      S                    1.731
      P    11      Px                   1.315
      P    11      Py                   1.315
      P    11      Pz                   1.318
      P    12      S                    1.731
      P    12      Px                   1.315
      P    12      Py                   1.315
      P    12      Pz                   1.318
     In     1      Dzz                  1.999
     In     1      Dzy                  1.997
     In     1      Dzx                  1.997
     In     1      Dxx-yy               1.999
     In     1      Dxy                  1.997
     In     1      S                    1.433
     In     1      Px                   0.489
     In     1      Py                   0.482
     In     1      Pz                   0.481
     In     1      S                   -0.536
     In     2      Dzz                  1.999
     In     2      Dzy                  1.997
     In     2      Dzx                  1.997
     In     2      Dxx-yy               1.999
     In     2      Dxy                  1.997
     In     2      S                    1.434
     In     2      Px                   0.488
     In     2      Py                   0.487
     In     2      Pz                   0.479
     In     2      S                   -0.556
     In     3      Dzz                  1.999
     In     3      Dzy                  1.997
     In     3      Dzx                  1.997
     In     3      Dxx-yy               1.999
     In     3      Dxy                  1.997
     In     3      S                    1.433
     In     3      Px                   0.489
     In     3      Py                   0.482
     In     3      Pz                   0.481
     In     3      S                   -0.536
     In     4      Dzz                  1.999
     In     4      Dzy                  1.997
     In     4      Dzx                  1.997
     In     4      Dxx-yy               1.999
     In     4      Dxy                  1.997
     In     4      S                    1.435
     In     4      Px                   0.487
     In     4      Py                   0.486
     In     4      Pz                   0.476
     In     4      S                   -0.537
     In     5      Dzz                  1.999
     In     5      Dzy                  1.998
     In     5      Dzx                  1.995
     In     5      Dxx-yy               1.999
     In     5      Dxy                  1.997
     In     5      S                    1.443
     In     5      Px                   0.463
     In     5      Py                   0.451
     In     5      Pz                   0.499
     In     5      S                   -0.524
     In     6      Dzz                  1.999
     In     6      Dzy                  1.998
     In     6      Dzx                  1.995
     In     6      Dxx-yy               1.999
     In     6      Dxy                  1.997
     In     6      S                    1.443
     In     6      Px                   0.463
     In     6      Py                   0.451
     In     6      Pz                   0.499
     In     6      S                   -0.524
     In     7      Dzz                  1.999
     In     7      Dzy                  1.997
     In     7      Dzx                  1.997
     In     7      Dxx-yy               1.999
     In     7      Dxy                  1.997
     In     7      S                    1.435
     In     7      Px                   0.487
     In     7      Py                   0.486
     In     7      Pz                   0.476
     In     7      S                   -0.537
     In     8      Dzz                  1.999
     In     8      Dzy                  1.997
     In     8      Dzx                  1.997
     In     8      Dxx-yy               1.999
     In     8      Dxy                  1.997
     In     8      S                    1.434
     In     8      Px                   0.488
     In     8      Py                   0.487
     In     8      Pz                   0.479
     In     8      S                   -0.556
     In     9      Dzz                  1.999
     In     9      Dzy                  1.997
     In     9      Dzx                  1.997
     In     9      Dxx-yy               1.999
     In     9      Dxy                  1.997
     In     9      S                    1.433
     In     9      Px                   0.486
     In     9      Py                   0.486
     In     9      Pz                   0.479
     In     9      S                   -0.561
     In    10      Dzz                  1.999
     In    10      Dzy                  1.997
     In    10      Dzx                  1.997
     In    10      Dxx-yy               1.999
     In    10      Dxy                  1.997
     In    10      S                    1.434
     In    10      Px                   0.486
     In    10      Py                   0.486
     In    10      Pz                   0.479
     In    10      S                   -0.564
     In    11      Dzz                  1.999
     In    11      Dzy                  1.997
     In    11      Dzx                  1.997
     In    11      Dxx-yy               1.999
     In    11      Dxy                  1.997
     In    11      S                    1.434
     In    11      Px                   0.486
     In    11      Py                   0.486
     In    11      Pz                   0.479
     In    11      S                   -0.564
     In    12      Dzz                  1.999
     In    12      Dzy                  1.997
     In    12      Dzx                  1.997
     In    12      Dxx-yy               1.999
     In    12      Dxy                  1.997
     In    12      S                    1.433
     In    12      Px                   0.486
     In    12      Py                   0.486
     In    12      Pz                   0.479
     In    12      S                   -0.561
  -------------------------------------------
                           Total:     216.000
  -------------------------------------------

     Atomic Populations (Mulliken)
     -----------------------------
Species          Ion     s       p       d       f      Total   Charge (e)
==========================================================================
  P               1     1.739   3.942   0.000   0.000   5.681    -0.681
  P               2     1.733   3.942   0.000   0.000   5.675    -0.675
  P               3     1.733   3.942   0.000   0.000   5.675    -0.675
  P               4     1.739   3.942   0.000   0.000   5.681    -0.681
  P               5     1.731   3.947   0.000   0.000   5.679    -0.679
  P               6     1.731   3.948   0.000   0.000   5.679    -0.679
  P               7     1.731   3.948   0.000   0.000   5.679    -0.679
  P               8     1.731   3.947   0.000   0.000   5.679    -0.679
  P               9     1.738   3.934   0.000   0.000   5.671    -0.671
  P              10     1.738   3.934   0.000   0.000   5.671    -0.671
  P              11     1.731   3.948   0.000   0.000   5.679    -0.679
  P              12     1.731   3.948   0.000   0.000   5.679    -0.679
  In              1     0.896   1.453   9.988   0.000  12.337     0.663
  In              2     0.877   1.454   9.989   0.000  12.320     0.680
  In              3     0.896   1.453   9.988   0.000  12.337     0.663
  In              4     0.898   1.449   9.989   0.000  12.336     0.664
  In              5     0.919   1.413   9.988   0.000  12.320     0.680
  In              6     0.919   1.413   9.988   0.000  12.320     0.680
  In              7     0.898   1.449   9.989   0.000  12.336     0.664
  In              8     0.877   1.454   9.989   0.000  12.320     0.680
  In              9     0.872   1.452   9.989   0.000  12.312     0.688
  In             10     0.870   1.451   9.989   0.000  12.310     0.690
  In             11     0.870   1.451   9.989   0.000  12.310     0.690
  In             12     0.872   1.452   9.989   0.000  12.312     0.688
==========================================================================

                 Bond                   Population      Length (A)
======================================================================
              P 1  -- In 6                   0.86        2.37815
              P 4  -- In 5                   0.86        2.37815
              P 1  -- In 1                   0.62        2.53092
              P 4  -- In 3                   0.62        2.53092
              P 1  -- In 3                   0.64        2.53092
              P 4  -- In 1                   0.64        2.53092
              P 5  -- In 4                   0.58        2.53742
              P 8  -- In 7                   0.58        2.53742
              P 8  -- In 4                   0.61        2.53743
              P 5  -- In 7                   0.61        2.53743
              P 2  -- In 8                   0.60        2.53776
              P 3  -- In 2                   0.60        2.53776
              P 3  -- In 8                   0.58        2.53776
              P 2  -- In 2                   0.58        2.53776
              P 6  -- In 10                  0.59        2.53780
              P 11 -- In 11                  0.59        2.53780
              P 11 -- In 10                  0.60        2.53780
              P 6  -- In 11                  0.60        2.53780
              P 7  -- In 9                   0.60        2.53782
              P 12 -- In 12                  0.60        2.53782
              P 12 -- In 9                   0.60        2.53782
              P 7  -- In 12                  0.60        2.53782
              P 10 -- In 5                   0.53        2.54194
              P 9  -- In 6                   0.53        2.54194
              P 9  -- In 5                   0.63        2.54194
              P 10 -- In 6                   0.63        2.54195
              P 5  -- In 11                  0.57        2.54841
              P 8  -- In 11                  0.57        2.54841
              P 5  -- In 10                  0.57        2.54841
              P 8  -- In 10                  0.57        2.54841
              P 12 -- In 2                   0.57        2.54845
              P 12 -- In 8                   0.57        2.54845
              P 7  -- In 2                   0.57        2.54845
              P 7  -- In 8                   0.57        2.54845
              P 11 -- In 12                  0.58        2.54848
              P 6  -- In 12                  0.57        2.54848
              P 11 -- In 9                   0.57        2.54848
              P 6  -- In 9                   0.58        2.54848
              P 2  -- In 1                   0.60        2.55124
              P 3  -- In 1                   0.55        2.55124
              P 2  -- In 3                   0.55        2.55124
              P 3  -- In 3                   0.60        2.55124
              P 10 -- In 7                   0.56        2.55190
              P 9  -- In 7                   0.57        2.55190
              P 10 -- In 4                   0.57        2.55190
              P 9  -- In 4                   0.56        2.55190
======================================================================

 Hirshfeld supercell size:           3           3           1
Standard grid dimensions: 180 180 192
Fine grid dimensions:     180 180 192


     Hirshfeld Analysis
     ------------------
Species   Ion     Hirshfeld Charge (e)
======================================
  P        1                -0.26
  P        2                -0.24
  P        3                -0.24
  P        4                -0.26
  P        5                -0.24
  P        6                -0.24
  P        7                -0.24
  P        8                -0.24
  P        9                -0.23
  P       10                -0.23
  P       11                -0.24
  P       12                -0.24
  In       1                 0.24
  In       2                 0.24
  In       3                 0.24
  In       4                 0.24
  In       5                 0.26
  In       6                 0.26
  In       7                 0.24
  In       8                 0.24
  In       9                 0.24
  In      10                 0.24
  In      11                 0.24
  In      12                 0.24
======================================

 
 A BibTeX formatted list of references used in this run has been written to 
 StackingFaultStructs_001_100_7.bib
 
Initialisation time =     21.97 s
Calculation time    =   2164.69 s
Finalisation time   =     54.11 s
Total time          =   2240.78 s
Peak Memory Use     = 5990040 kB
 
Overall parallel efficiency rating: Poor (37%)
 
Data was distributed by:-
G-vector (2-way); efficiency rating: Poor (46%)
k-point (40-way); efficiency rating: Satisfactory (65%)
