 +-------------------------------------------------+
 |                                                 |
 |      CCC   AA    SSS  TTTTT  EEEEE  PPPP        |
 |     C     A  A  S       T    E      P   P       |
 |     C     AAAA   SS     T    EEE    PPPP        |
 |     C     A  A     S    T    E      P           |
 |      CCC  A  A  SSS     T    EEEEE  P           |
 |                                                 |
 +-------------------------------------------------+
 |                                                 |
 | Welcome to Academic Release CASTEP version 24.1 |
 | Ab Initio Total Energy Program                  |
 |                                                 |
 | Authors:                                        |
 | M. Segall, M. Probert, C. Pickard, P. Hasnip,   |
 | S. Clark, K. Refson, J. R. Yates,               |
 | A. Bartok-Partay, M. Payne                      |
 |                                                 |
 | Contributors:                                   |
 | P. Lindan, P. Haynes, J. White, V. Milman,      |
 | N. Govind, M. Gibson, P. Tulip, V. Cocula,      |
 | B. Montanari, D. Quigley, M. Glover,            |
 | L. Bernasconi, A. Perlov, M. Plummer,           |
 | E. McNellis, J. Meyer, J. Gale, D. Jochym       |
 | J. Aarons, B. Walker, R. Gillen, D. Jones       |
 | T. Green, I. J. Bush, C. J. Armstrong,          |
 | E. J. Higgins, E. L. Brown, M. S. McFly,        |
 | J. Wilkins, B-C. Shih, P. J. P. Byrne,          |
 | R. J. Maurer, J. C. Womack, J. Dziedzic,        |
 | L. LeBlanc, T. K. Stenczel, J. Kermode,         |
 | S. Sturniolo, B. Shi, B. Durham, M. Evans,      |
 | M. J. Smith, A. Tamerus, Z. Hawkhead,           |
 | V. Ravindran, T. Hollins, S. A. Joyce,          |
 | R. T. Strong, A. M. Reilly, S. J. Donaldson     |
 |                                                 |
 | Copyright (c) 2000 - 2023                       |
 |                                                 |
 |     Distributed under license from Cambridge    |
 |     Enterprise for academic use only.           |
 |                                                 |
 | Please cite                                     |
 |                                                 |
 |     "First principles methods using CASTEP"     |
 |                                                 |
 |         Zeitschrift fuer Kristallographie       |
 |           220(5-6) pp. 567-570 (2005)           |
 |                                                 |
 | S. J. Clark, M. D. Segall, C. J. Pickard,       |
 | P. J. Hasnip, M. J. Probert, K. Refson,         |
 | M. C. Payne                                     |
 |                                                 |
 |       in all publications arising from          |
 |              your use of CASTEP                 |
 |                                                 |
 +-------------------------------------------------+
 |                                                 |
 |              http://www.castep.org              |
 |                                                 |
 +-------------------------------------------------+



 Compiled for  GNU 11.2.0 on 04-04-2024 18:39:17
 from code version 6355fd106 Castep241_branch Thu Mar 7 17:56:19 2024 +0000
 Compiler: GNU Fortran 11.2.0; Optimisation: FAST
 Comms   : MPI VERSION : CRAY MPICH version 8.1.23.14 (ANL base 3.4a2)
 MATHLIBS: default (LAPACK version 3.10.1)
 FFT Lib : fftw3 version commercial-fftw-3.3.10-sse2-avx-avx2-avx2_128
 Fundamental constants values: CODATA 2018

 Run started: Wed, 30 Jul 2025 01:29:51 +0100

 Atomic calculation performed for P: 1s2 2s2 2p6 3s2 3p3

 Converged in 47 iterations to an ae energy of -9309.074 eV

   ============================================================                
   | Pseudopotential Report - Date of generation 30-07-2025   |                
   ------------------------------------------------------------                
   | Element: P Ionic charge:  5.00 Level of theory: RSCAN    |                
   | Atomic Solver: Koelling-Harmon                           |                
   |                                                          |                
   |               Reference Electronic Structure             |                
   |         Orbital         Occupation         Energy        |                
   |            3s              2.000           -0.535        |                
   |            3p              3.000           -0.209        |                
   |                                                          |                
   |                 Pseudopotential Definition               |                
   |        Beta     l      e      Rc     scheme   norm       |                
   |          1      0   -0.535   1.807     qc      0         |                
   |          2      0    0.250   1.807     qc      0         |                
   |          3      1   -0.209   1.807     qc      0         |                
   |          4      1    0.250   1.807     qc      0         |                
   |          5      2    0.000   1.807     qc      0         |                
   |          6      2    0.250   1.807     qc      0         |                
   |         loc     3    0.000   1.807     pn      0         |                
   |                                                          |                
   | Augmentation charge Rinner = 1.263                       |                
   | Partial core correction Rc = 1.263                       |                
   ------------------------------------------------------------                
   | "3|1.8|4|4|5|30:31:32"                                   |                
   ------------------------------------------------------------                
   |      Author: Chris J. Pickard, Cambridge University      |                
   ============================================================                
 Warning: otfg_output_psp cannot write out meta-GGA pseudopotentials presently.

 Atomic calculation performed for In:
 1s2 2s2 2p6 3s2 3p6 3d10 4s2 4p6 4d10 5s2 5p1

 Converged in 84 iterations to an ae energy of -160093.328 eV

   ============================================================                
   | Pseudopotential Report - Date of generation 30-07-2025   |                
   ------------------------------------------------------------                
   | Element: In Ionic charge: 13.00 Level of theory: RSCAN   |                
   | Atomic Solver: Koelling-Harmon                           |                
   |                                                          |                
   |               Reference Electronic Structure             |                
   |         Orbital         Occupation         Energy        |                
   |            4d             10.000           -0.711        |                
   |            5s              2.000           -0.313        |                
   |            5p              1.000           -0.095        |                
   |                                                          |                
   |                 Pseudopotential Definition               |                
   |        Beta     l      e      Rc     scheme   norm       |                
   |          1      0   -0.313   2.501     qc      0         |                
   |          2      0    0.250   2.501     qc      0         |                
   |          3      1   -0.095   2.501     qc      0         |                
   |          4      1    0.250   2.501     qc      0         |                
   |          5      2   -0.711   2.207     qc      0         |                
   |          6      2    0.250   2.207     qc      0         |                
   |         loc     3    0.000   2.501     pn      0         |                
   |                                                          |                
   | Augmentation charge Rinner = 1.504                       |                
   | Partial core correction Rc = 1.504                       |                
   ------------------------------------------------------------                
   | "3|2.5|2.5|1.5|7|8|9|50:51:42U2.2U2.2"                   |                
   ------------------------------------------------------------                
   |      Author: Chris J. Pickard, Cambridge University      |                
   ============================================================                
 Warning: otfg_output_psp cannot write out meta-GGA pseudopotentials presently.

 Pseudo atomic calculation performed for P 3s2 3p3

 Converged in 23 iterations to a total energy of -208.0292 eV

 Pseudo atomic calculation performed for In 4d10 5s2 5p1

 Converged in 42 iterations to a total energy of -1747.4501 eV
 Calculation parallelised over 108 processes.
 Data is distributed by G-vector(3-way) and k-point(36-way)
 Each process may use up to 16 threads.

 ************************************ Title ************************************
 

 ***************************** General Parameters ******************************
  
 output verbosity                               : normal  (1)
 write checkpoint data to                       : In_Interstitial_Migration_Tetra_Octa_Singlepoints_0.check
 type of calculation                            : single point energy
 stress calculation                             : off
 density difference calculation                 : off
 electron localisation func (ELF) calculation   : off
 Hirshfeld analysis                             : on
 polarisation (Berry phase) analysis            : off
 molecular orbital projected DOS                : off
 deltaSCF calculation                           : off
 unlimited duration calculation
 timing information                             : on
 memory usage estimate                          : on
 write extra output files                       : on
 write final potential to formatted file        : off
 write final density to formatted file          : off
 write BibTeX reference list                    : on
 write OTFG pseudopotential files               : on
 write electrostatic potential file             : on
 write bands file                               : on
 checkpoint writing                             : off
  
 output         length unit                     : A
 output           mass unit                     : amu
 output           time unit                     : ps
 output         charge unit                     : e
 output           spin unit                     : hbar/2
 output         energy unit                     : eV
 output          force unit                     : eV/A
 output       velocity unit                     : A/ps
 output       pressure unit                     : GPa
 output     inv_length unit                     : 1/A
 output      frequency unit                     : cm-1
 output force constant unit                     : eV/A**2
 output         volume unit                     : A**3
 output   IR intensity unit                     : (D/A)**2/amu
 output         dipole unit                     : D
 output         efield unit                     : eV/A/e
 output        entropy unit                     : J/mol/K
 output    efield chi2 unit                     : pm/V
  
 wavefunctions paging                           : none
 random number generator seed                   :   12951486
 data distribution                              : optimal for this architecture
 optimization strategy                          : balance speed and memory

 *********************** Exchange-Correlation Parameters ***********************
  
 using functional                               : RSCAN
 relativistic treatment                         : Koelling-Harmon
 DFT+D: Semi-empirical dispersion correction    : off

 ************************* Pseudopotential Parameters **************************
  
 pseudopotential representation                 : reciprocal space
 <beta|phi> representation                      : reciprocal space
 spin-orbit coupling                            : off

 **************************** Basis Set Parameters *****************************
  
 plane wave basis set cut-off                   :   900.0000   eV
 size of standard grid                          :     2.0000
 size of   fine   gmax                          :    30.7390   1/A
 finite basis set correction                    : none

 **************************** Electronic Parameters ****************************
  
 number of  electrons                           :  589.0    
 net charge of system                           :  0.000    
 net spin   of system                           :  1.000    
 number of  up  spins                           :  295.0    
 number of down spins                           :  294.0    
 treating system as spin-polarized
 number of bands                                :        354

 ********************* Electronic Minimization Parameters **********************
  
 Method: Treating system as metallic with density mixing treatment of electrons,
         and number of  SD  steps               :          1
         and number of  CG  steps               :          4
  
 total energy / atom convergence tol.           : 0.1000E-07   eV
 eigen-energy convergence tolerance             : 0.2203E-08   eV
 max force / atom convergence tol.              : ignored
 convergence tolerance window                   :          3   cycles
 max. number of SCF cycles                      :        100
 number of fixed-spin iterations                :         10
 smearing scheme                                : Gaussian
 smearing width                                 : 0.2000       eV
 Fermi energy convergence tolerance             : 0.2721E-13   eV
 periodic dipole correction                     : NONE

 ************************** Density Mixing Parameters **************************
  
 density-mixing scheme                          : Pulay
 max. length of mixing history                  :         20
 charge density mixing amplitude                : 0.5000    
   spin density mixing amplitude                :  2.000    
 cut-off energy for mixing                      :  900.0       eV

 *********************** Population Analysis Parameters ************************
  
 Population analysis with cutoff                :  3.000       A
 Population analysis output                     : summary and pdos components

 *******************************************************************************
  

                           -------------------------------
                                      Unit Cell
                           -------------------------------
        Real Lattice(A)                      Reciprocal Lattice(1/A)
    11.8025500     0.0000000     0.0000000        0.532358288   0.000000000   0.000000000
     0.0000000    11.8025500     0.0000000        0.000000000   0.532358288   0.000000000
     0.0000000     0.0000000    11.8025500        0.000000000   0.000000000   0.532358288

                       Lattice parameters(A)       Cell Angles
                    a =     11.802550          alpha =   90.000000
                    b =     11.802550          beta  =   90.000000
                    c =     11.802550          gamma =   90.000000

                       Current cell volume =          1644.097416       A**3
                                   density =             2.907464   AMU/A**3
                                           =             4.827958     g/cm^3

                           -------------------------------
                                     Cell Contents
                           -------------------------------
                         Total number of ions in cell =   65
                      Total number of species in cell =    2
                        Max number of any one species =   33

            xxxxxxxxxxxxxxxxxxxxxxxxxxxxxxxxxxxxxxxxxxxxxxxxxxxxxxxxxxxx
            x  Element    Atom        Fractional coordinates of atoms  x
            x            Number           u          v          w      x
            x----------------------------------------------------------x
            x  P            1         0.125000   0.125000   0.377272   x 
            x  P            2         0.377272   0.125000   0.125000   x 
            x  P            3         0.125000   0.377272   0.125000   x 
            x  P            4         0.375024   0.375024   0.375024   x 
            x  P            5         0.125000   0.125000   0.872728   x 
            x  P            6         0.375449   0.125000   0.625000   x 
            x  P            7         0.125000   0.375449   0.625000   x 
            x  P            8         0.385108   0.385108   0.864892   x 
            x  P            9         0.125000   0.625000   0.375449   x 
            x  P           10         0.375449   0.625000   0.125000   x 
            x  P           11         0.125000   0.872728   0.125000   x 
            x  P           12         0.385108   0.864892   0.385108   x 
            x  P           13         0.125000   0.625000   0.874551   x 
            x  P           14         0.375841   0.625000   0.625000   x 
            x  P           15         0.125000   0.874551   0.625000   x 
            x  P           16         0.375024   0.874976   0.874976   x 
            x  P           17         0.625000   0.125000   0.375449   x 
            x  P           18         0.872728   0.125000   0.125000   x 
            x  P           19         0.625000   0.375449   0.125000   x 
            x  P           20         0.864892   0.385108   0.385108   x 
            x  P           21         0.625000   0.125000   0.874551   x 
            x  P           22         0.874551   0.125000   0.625000   x 
            x  P           23         0.625000   0.375841   0.625000   x 
            x  P           24         0.874976   0.375024   0.874976   x 
            x  P           25         0.625000   0.625000   0.375841   x 
            x  P           26         0.874551   0.625000   0.125000   x 
            x  P           27         0.625000   0.874551   0.125000   x 
            x  P           28         0.874976   0.874976   0.375024   x 
            x  P           29         0.625000   0.625000   0.874159   x 
            x  P           30         0.874159   0.625000   0.625000   x 
            x  P           31         0.625000   0.874159   0.625000   x 
            x  P           32         0.864892   0.864892   0.864892   x 
            x  In           1        -0.014173  -0.014173  -0.014173   x 
            x  In           2         0.264173  -0.014173   0.264173   x 
            x  In           3        -0.014173   0.264173   0.264173   x 
            x  In           4         0.264173   0.264173  -0.014173   x 
            x  In           5        -0.000561  -0.000561   0.501038   x 
            x  In           6         0.250561  -0.000561   0.748962   x 
            x  In           7        -0.000561   0.250561   0.748962   x 
            x  In           8         0.250561   0.250561   0.501038   x 
            x  In           9        -0.000561   0.501038  -0.000561   x 
            x  In          10         0.250561   0.501038   0.250561   x 
            x  In          11        -0.000561   0.748962   0.250561   x 
            x  In          12         0.250561   0.748962  -0.000561   x 
            x  In          13         0.001437   0.503058   0.503058   x 
            x  In          14         0.248563   0.503058   0.746942   x 
            x  In          15         0.001437   0.746942   0.746942   x 
            x  In          16         0.248563   0.746942   0.503058   x 
            x  In          17         0.501038  -0.000561  -0.000561   x 
            x  In          18         0.748962  -0.000561   0.250561   x 
            x  In          19         0.501038   0.250561   0.250561   x 
            x  In          20         0.748962   0.250561  -0.000561   x 
            x  In          21         0.503058   0.001437   0.503058   x 
            x  In          22         0.746942   0.001437   0.746942   x 
            x  In          23         0.503058   0.248563   0.746942   x 
            x  In          24         0.746942   0.248563   0.503058   x 
            x  In          25         0.503058   0.503058   0.001437   x 
            x  In          26         0.746942   0.503058   0.248563   x 
            x  In          27         0.503058   0.746942   0.248563   x 
            x  In          28         0.746942   0.746942   0.001437   x 
            x  In          29         0.499869   0.499869   0.499869   x 
            x  In          30         0.750131   0.499869   0.750131   x 
            x  In          31         0.499869   0.750131   0.750131   x 
            x  In          32         0.750131   0.750131   0.499869   x 
            x  In          33         0.125000   0.125000   0.125000   x 
            xxxxxxxxxxxxxxxxxxxxxxxxxxxxxxxxxxxxxxxxxxxxxxxxxxxxxxxxxxxx


                         No user defined ionic velocities

                           -------------------------------
                                   Details of Species
                           -------------------------------

                               Mass of species in AMU
                                    P   30.9737600
                                    In  114.8180000

                          Electric Quadrupole Moment (Barn)
                                    P    1.0000000 No Isotope Defined
                                    In    0.7700000 Isotope115

                          Files used for pseudopotentials:
                                    P 3|1.8|4|4|5|30:31:32
                                    In 3|2.5|2.5|1.5|7|8|9|50:51:42U2.2U2.2

                           -------------------------------
                              k-Points For BZ Sampling
                           -------------------------------
                       MP grid size for SCF calculation is  4  4  4
                            with an offset of   0.125  0.125  0.125
                       Number of kpoints used =            36

                           -------------------------------
                               Symmetry and Constraints
                           -------------------------------

                      Maximum deviation from symmetry =  0.00000         ANG

                      Number of symmetry operations   =           1
                      Number of ionic constraints     =           3
                      Point group of crystal =     1: C1, 1, 1
                      Space group of crystal =   215: P-43m, P -4 2 3

             Set iprint > 1 for details on symmetry rotations/translations

                         Centre of mass is constrained
             Set iprint > 1 for details of linear ionic constraints

                         Number of cell constraints= 0
                         Cell constraints are:  1 2 3 4 5 6

                         External pressure/stress (GPa)
                          0.00000   0.00000   0.00000
                                    0.00000   0.00000
                                              0.00000
 
+---------------- MEMORY AND SCRATCH DISK ESTIMATES PER PROCESS --------------+
|                                                     Memory          Disk    |
| Baseline code, static data and system overhead      368.0 MB         0.0 MB |
| BLAS internal memory storage                          0.0 MB         0.0 MB |
| Model and support data                             4331.9 MB         0.0 MB |
| Electronic energy minimisation requirements        1349.7 MB         0.0 MB |
| Force calculation requirements                      127.4 MB         0.0 MB |
|                                               ----------------------------- |
| Approx. total storage required per process         6049.6 MB         0.0 MB |
|                                                                             |
| Requirements will fluctuate during execution and may exceed these estimates |
+-----------------------------------------------------------------------------+
Calculating approximate eigenstates for fixed initial Hamiltonian
Cut-off for approx. calculation is   89.988 eV
Improving approx. states at cut-off of  450.000 eV
Resetting cut-off to  900.000 eV
Calculating total energy with cut-off of  900.000 eV.
------------------------------------------------------------------------ <-- SCF
SCF loop      Energy           Fermi           Energy gain       Timer   <-- SCF
                               energy          per atom          (sec)   <-- SCF
------------------------------------------------------------------------ <-- SCF
Initial  -6.48020641E+004  0.00000000E+000                       452.01  <-- SCF
      1  -6.45476223E+004  3.73848436E+000  -3.91448924E+000     910.07  <-- SCF
      2  -6.45479491E+004  3.73224631E+000   5.02805688E-003    1225.73  <-- SCF
      3  -6.46181107E+004  3.90280339E+000   1.07940973E+000    1570.90  <-- SCF
      4  -6.46304271E+004  3.96808784E+000   1.89482363E-001    2067.49  <-- SCF
      5  -6.46368910E+004  4.14065276E+000   9.94451492E-002    2417.12  <-- SCF
      6  -6.46258008E+004  4.37929333E+000  -1.70619187E-001    2772.86  <-- SCF
      7  -6.46244814E+004  4.42178090E+000  -2.02977140E-002    3140.85  <-- SCF
      8  -6.46245878E+004  4.45307324E+000   1.63605386E-003    3511.44  <-- SCF
      9  -6.46253778E+004  4.47100118E+000   1.21537134E-002    3878.97  <-- SCF
     10  -6.46258037E+004  4.79477440E+000   6.55330770E-003    4237.55  <-- SCF
     11  -6.46258138E+004  4.78890152E+000   1.55692097E-004    4616.06  <-- SCF
     12  -6.46258184E+004  4.78707313E+000   7.04331788E-005    4982.21  <-- SCF
     13  -6.46258203E+004  4.78417871E+000   2.85044830E-005    5354.48  <-- SCF
     14  -6.46258206E+004  4.78304884E+000   5.35044651E-006    5717.74  <-- SCF
     15  -6.46258208E+004  4.78262762E+000   2.54729425E-006    6073.75  <-- SCF
     16  -6.46258208E+004  4.78226830E+000   6.76281703E-007    6419.33  <-- SCF
     17  -6.46258208E+004  4.78201207E+000   2.30983551E-007    6739.28  <-- SCF
     18  -6.46258208E+004  4.78197307E+000   7.29314931E-008    7020.91  <-- SCF
     19  -6.46258208E+004  4.78197954E+000   3.78962163E-008    7284.69  <-- SCF
     20  -6.46258208E+004  4.78199991E+000   9.90230025E-009    7536.64  <-- SCF
     21  -6.46258208E+004  4.78200692E+000   9.76618288E-010    7800.25  <-- SCF
     22  -6.46258208E+004  4.78201117E+000   3.49907293E-010    8067.20  <-- SCF
------------------------------------------------------------------------ <-- SCF
 
Integrated Spin Density     =   -0.962553E-04 hbar/2
Integrated |Spin Density|   =    0.250615E-03 hbar/2
 
Final energy, E             =  -64625.70079018     eV
Final free energy (E-TS)    =  -64625.82084767     eV
(energies not corrected for finite basis set)
 
NB est. 0K energy (E-0.5TS)      =  -64625.76081893     eV
 

 ************************** Forces **************************
 *                                                          *
 *               Cartesian components (eV/A)                *
 * -------------------------------------------------------- *
 *                         x            y            z      *
 *                                                          *
 * P               1     -0.00000     -0.00000      0.00398 *
 * P               2      0.00398     -0.00000     -0.00000 *
 * P               3     -0.00000      0.00398     -0.00000 *
 * P               4      0.00021      0.00021      0.00021 *
 * P               5     -0.00000     -0.00000     -0.00397 *
 * P               6     -0.01652      0.00000     -0.00000 *
 * P               7      0.00000     -0.01652     -0.00000 *
 * P               8      0.00682      0.00682     -0.00682 *
 * P               9      0.00000     -0.00000     -0.01652 *
 * P              10     -0.01652     -0.00000      0.00000 *
 * P              11     -0.00000     -0.00397     -0.00000 *
 * P              12      0.00682     -0.00682      0.00682 *
 * P              13     -0.00000     -0.00000      0.01652 *
 * P              14      0.04335     -0.00000     -0.00000 *
 * P              15     -0.00000      0.01652     -0.00000 *
 * P              16      0.00022     -0.00021     -0.00021 *
 * P              17     -0.00000      0.00000     -0.01652 *
 * P              18     -0.00397     -0.00000     -0.00000 *
 * P              19     -0.00000     -0.01652      0.00000 *
 * P              20     -0.00682      0.00682      0.00682 *
 * P              21     -0.00000     -0.00000      0.01652 *
 * P              22      0.01652     -0.00000     -0.00000 *
 * P              23     -0.00000      0.04335     -0.00000 *
 * P              24     -0.00021      0.00022     -0.00021 *
 * P              25     -0.00000     -0.00000      0.04335 *
 * P              26      0.01652     -0.00000     -0.00000 *
 * P              27     -0.00000      0.01652     -0.00000 *
 * P              28     -0.00021     -0.00021      0.00022 *
 * P              29     -0.00000     -0.00000     -0.04335 *
 * P              30     -0.04335     -0.00000     -0.00000 *
 * P              31     -0.00000     -0.04335     -0.00000 *
 * P              32     -0.00682     -0.00682     -0.00682 *
 * In              1      0.00152      0.00152      0.00152 *
 * In              2     -0.00151      0.00151     -0.00151 *
 * In              3      0.00151     -0.00151     -0.00151 *
 * In              4     -0.00151     -0.00151      0.00151 *
 * In              5      0.00135      0.00135      0.00337 *
 * In              6     -0.00135      0.00135     -0.00338 *
 * In              7      0.00135     -0.00135     -0.00338 *
 * In              8     -0.00136     -0.00136      0.00338 *
 * In              9      0.00135      0.00337      0.00135 *
 * In             10     -0.00136      0.00338     -0.00136 *
 * In             11      0.00135     -0.00338     -0.00135 *
 * In             12     -0.00135     -0.00338      0.00135 *
 * In             13      0.00496     -0.00008     -0.00008 *
 * In             14     -0.00496     -0.00008      0.00008 *
 * In             15      0.00496      0.00008      0.00008 *
 * In             16     -0.00496      0.00008     -0.00008 *
 * In             17      0.00337      0.00135      0.00135 *
 * In             18     -0.00338      0.00135     -0.00135 *
 * In             19      0.00338     -0.00136     -0.00136 *
 * In             20     -0.00338     -0.00135      0.00135 *
 * In             21     -0.00008      0.00496     -0.00008 *
 * In             22      0.00008      0.00496      0.00008 *
 * In             23     -0.00008     -0.00496      0.00008 *
 * In             24      0.00008     -0.00496     -0.00008 *
 * In             25     -0.00008     -0.00008      0.00496 *
 * In             26      0.00008     -0.00008     -0.00496 *
 * In             27     -0.00008      0.00008     -0.00496 *
 * In             28      0.00008      0.00008      0.00496 *
 * In             29     -0.02213     -0.02213     -0.02213 *
 * In             30      0.02213     -0.02212      0.02213 *
 * In             31     -0.02212      0.02213      0.02213 *
 * In             32      0.02213      0.02213     -0.02212 *
 * In             33     -0.00000     -0.00000     -0.00000 *
 *                                                          *
 ************************************************************

 Pseudo atomic calculation performed for P 3s2 3p3

 Converged in 23 iterations to a total energy of -208.0292 eV

 Pseudo atomic calculation performed for In 4d10 5s2 5p1

 Converged in 42 iterations to a total energy of -1747.4501 eV
Charge spilling parameter for spin component 1 = 0.26%
Charge spilling parameter for spin component 2 = 0.26%

                   Orbital Populations                  
  ---------------------------------------------------------------
     Ion    Atom   Orbital              Up        Down      Spin
  ---------------------------------------------------------------
      P     1      S                    0.880     0.880    -0.000
      P     1      Px                   0.650     0.650     0.000
      P     1      Py                   0.650     0.650    -0.000
      P     1      Pz                   0.636     0.636    -0.000
      P     2      S                    0.880     0.880     0.000
      P     2      Px                   0.636     0.636    -0.000
      P     2      Py                   0.650     0.650     0.000
      P     2      Pz                   0.650     0.650    -0.000
      P     3      S                    0.880     0.880     0.000
      P     3      Px                   0.650     0.650     0.000
      P     3      Py                   0.636     0.636    -0.000
      P     3      Pz                   0.650     0.650     0.000
      P     4      S                    0.868     0.868     0.000
      P     4      Px                   0.656     0.656     0.000
      P     4      Py                   0.656     0.656    -0.000
      P     4      Pz                   0.656     0.656     0.000
      P     5      S                    0.880     0.880     0.000
      P     5      Px                   0.650     0.650    -0.000
      P     5      Py                   0.650     0.650    -0.000
      P     5      Pz                   0.636     0.636    -0.000
      P     6      S                    0.868     0.868    -0.000
      P     6      Px                   0.654     0.654     0.000
      P     6      Py                   0.658     0.658     0.000
      P     6      Pz                   0.656     0.656     0.000
      P     7      S                    0.868     0.868     0.000
      P     7      Px                   0.658     0.658     0.000
      P     7      Py                   0.654     0.654     0.000
      P     7      Pz                   0.656     0.656     0.000
      P     8      S                    0.869     0.869     0.000
      P     8      Px                   0.655     0.655     0.000
      P     8      Py                   0.655     0.655     0.000
      P     8      Pz                   0.655     0.655     0.000
      P     9      S                    0.868     0.868     0.000
      P     9      Px                   0.658     0.658    -0.000
      P     9      Py                   0.656     0.656     0.000
      P     9      Pz                   0.654     0.654    -0.000
      P    10      S                    0.868     0.868     0.000
      P    10      Px                   0.654     0.654     0.000
      P    10      Py                   0.656     0.656     0.000
      P    10      Pz                   0.658     0.658    -0.000
      P    11      S                    0.880     0.880    -0.000
      P    11      Px                   0.650     0.650     0.000
      P    11      Py                   0.636     0.636    -0.000
      P    11      Pz                   0.650     0.650    -0.000
      P    12      S                    0.869     0.869     0.000
      P    12      Px                   0.655     0.655    -0.000
      P    12      Py                   0.655     0.655    -0.000
      P    12      Pz                   0.655     0.655     0.000
      P    13      S                    0.868     0.868     0.000
      P    13      Px                   0.658     0.658    -0.000
      P    13      Py                   0.656     0.656     0.000
      P    13      Pz                   0.654     0.654    -0.000
      P    14      S                    0.867     0.867    -0.000
      P    14      Px                   0.654     0.654     0.000
      P    14      Py                   0.658     0.658     0.000
      P    14      Pz                   0.658     0.658     0.000
      P    15      S                    0.868     0.868     0.000
      P    15      Px                   0.658     0.658     0.000
      P    15      Py                   0.654     0.654     0.000
      P    15      Pz                   0.656     0.656     0.000
      P    16      S                    0.868     0.868     0.000
      P    16      Px                   0.656     0.656     0.000
      P    16      Py                   0.656     0.656    -0.000
      P    16      Pz                   0.656     0.656    -0.000
      P    17      S                    0.868     0.868    -0.000
      P    17      Px                   0.656     0.656     0.000
      P    17      Py                   0.658     0.658     0.000
      P    17      Pz                   0.654     0.654     0.000
      P    18      S                    0.880     0.880    -0.000
      P    18      Px                   0.636     0.636    -0.000
      P    18      Py                   0.650     0.650     0.000
      P    18      Pz                   0.650     0.650     0.000
      P    19      S                    0.868     0.868     0.000
      P    19      Px                   0.656     0.656     0.000
      P    19      Py                   0.654     0.654     0.000
      P    19      Pz                   0.658     0.658    -0.000
      P    20      S                    0.869     0.869     0.000
      P    20      Px                   0.655     0.655    -0.000
      P    20      Py                   0.655     0.655     0.000
      P    20      Pz                   0.655     0.655     0.000
      P    21      S                    0.868     0.868     0.000
      P    21      Px                   0.656     0.656     0.000
      P    21      Py                   0.658     0.658    -0.000
      P    21      Pz                   0.654     0.654     0.000
      P    22      S                    0.868     0.868     0.000
      P    22      Px                   0.654     0.654     0.000
      P    22      Py                   0.658     0.658     0.000
      P    22      Pz                   0.656     0.656     0.000
      P    23      S                    0.867     0.867     0.000
      P    23      Px                   0.658     0.658    -0.000
      P    23      Py                   0.654     0.654    -0.000
      P    23      Pz                   0.658     0.658     0.000
      P    24      S                    0.868     0.868     0.000
      P    24      Px                   0.656     0.656     0.000
      P    24      Py                   0.656     0.656     0.000
      P    24      Pz                   0.656     0.656     0.000
      P    25      S                    0.867     0.867    -0.000
      P    25      Px                   0.658     0.658     0.000
      P    25      Py                   0.658     0.658     0.000
      P    25      Pz                   0.654     0.654    -0.000
      P    26      S                    0.868     0.868    -0.000
      P    26      Px                   0.654     0.654     0.000
      P    26      Py                   0.656     0.656     0.000
      P    26      Pz                   0.658     0.658     0.000
      P    27      S                    0.868     0.868     0.000
      P    27      Px                   0.656     0.656     0.000
      P    27      Py                   0.654     0.654     0.000
      P    27      Pz                   0.658     0.658    -0.000
      P    28      S                    0.868     0.868     0.000
      P    28      Px                   0.656     0.656     0.000
      P    28      Py                   0.656     0.656     0.000
      P    28      Pz                   0.656     0.656     0.000
      P    29      S                    0.867     0.867    -0.000
      P    29      Px                   0.658     0.658     0.000
      P    29      Py                   0.658     0.658     0.000
      P    29      Pz                   0.654     0.654    -0.000
      P    30      S                    0.867     0.867    -0.000
      P    30      Px                   0.654     0.654     0.000
      P    30      Py                   0.658     0.658     0.000
      P    30      Pz                   0.658     0.658     0.000
      P    31      S                    0.867     0.867    -0.000
      P    31      Px                   0.658     0.658     0.000
      P    31      Py                   0.654     0.654    -0.000
      P    31      Pz                   0.658     0.658    -0.000
      P    32      S                    0.869     0.869     0.000
      P    32      Px                   0.655     0.655     0.000
      P    32      Py                   0.655     0.655    -0.000
      P    32      Pz                   0.655     0.655     0.000
     In     1      Dzz                  1.000     1.000    -0.000
     In     1      Dzy                  0.998     0.998    -0.000
     In     1      Dzx                  0.998     0.998    -0.000
     In     1      Dxx-yy               1.000     1.000     0.000
     In     1      Dxy                  0.998     0.998    -0.000
     In     1      S                    0.696     0.696     0.000
     In     1      Px                   0.241     0.241    -0.000
     In     1      Py                   0.241     0.241     0.000
     In     1      Pz                   0.241     0.241    -0.000
     In     1      S                   -0.220    -0.220    -0.000
     In     2      Dzz                  1.000     1.000     0.000
     In     2      Dzy                  0.998     0.998    -0.000
     In     2      Dzx                  0.998     0.998    -0.000
     In     2      Dxx-yy               1.000     1.000    -0.000
     In     2      Dxy                  0.998     0.998    -0.000
     In     2      S                    0.696     0.696    -0.000
     In     2      Px                   0.241     0.241    -0.000
     In     2      Py                   0.241     0.241     0.000
     In     2      Pz                   0.241     0.241    -0.000
     In     2      S                   -0.220    -0.220     0.000
     In     3      Dzz                  1.000     1.000    -0.000
     In     3      Dzy                  0.998     0.998    -0.000
     In     3      Dzx                  0.998     0.998    -0.000
     In     3      Dxx-yy               1.000     1.000    -0.000
     In     3      Dxy                  0.998     0.998    -0.000
     In     3      S                    0.696     0.696    -0.000
     In     3      Px                   0.241     0.241     0.000
     In     3      Py                   0.241     0.241     0.000
     In     3      Pz                   0.241     0.241     0.000
     In     3      S                   -0.220    -0.220    -0.000
     In     4      Dzz                  1.000     1.000     0.000
     In     4      Dzy                  0.998     0.998     0.000
     In     4      Dzx                  0.998     0.998    -0.000
     In     4      Dxx-yy               1.000     1.000     0.000
     In     4      Dxy                  0.998     0.998    -0.000
     In     4      S                    0.696     0.696    -0.000
     In     4      Px                   0.241     0.241     0.000
     In     4      Py                   0.241     0.241     0.000
     In     4      Pz                   0.241     0.241     0.000
     In     4      S                   -0.220    -0.220     0.000
     In     5      Dzz                  1.000     1.000    -0.000
     In     5      Dzy                  0.998     0.998    -0.000
     In     5      Dzx                  0.998     0.998    -0.000
     In     5      Dxx-yy               1.000     1.000    -0.000
     In     5      Dxy                  0.998     0.998    -0.000
     In     5      S                    0.715     0.715    -0.000
     In     5      Px                   0.243     0.243     0.000
     In     5      Py                   0.243     0.243    -0.000
     In     5      Pz                   0.239     0.239    -0.000
     In     5      S                   -0.265    -0.265    -0.000
     In     6      Dzz                  1.000     1.000     0.000
     In     6      Dzy                  0.998     0.998    -0.000
     In     6      Dzx                  0.998     0.998    -0.000
     In     6      Dxx-yy               1.000     1.000    -0.000
     In     6      Dxy                  0.998     0.998    -0.000
     In     6      S                    0.715     0.715    -0.000
     In     6      Px                   0.243     0.243    -0.000
     In     6      Py                   0.243     0.243    -0.000
     In     6      Pz                   0.238     0.239    -0.000
     In     6      S                   -0.265    -0.265    -0.000
     In     7      Dzz                  1.000     1.000    -0.000
     In     7      Dzy                  0.998     0.998    -0.000
     In     7      Dzx                  0.998     0.998    -0.000
     In     7      Dxx-yy               1.000     1.000    -0.000
     In     7      Dxy                  0.998     0.998    -0.000
     In     7      S                    0.715     0.715    -0.000
     In     7      Px                   0.243     0.243    -0.000
     In     7      Py                   0.243     0.243    -0.000
     In     7      Pz                   0.239     0.239    -0.000
     In     7      S                   -0.265    -0.265    -0.000
     In     8      Dzz                  1.000     1.000     0.000
     In     8      Dzy                  0.998     0.998    -0.000
     In     8      Dzx                  0.998     0.998    -0.000
     In     8      Dxx-yy               1.000     1.000    -0.000
     In     8      Dxy                  0.998     0.998    -0.000
     In     8      S                    0.715     0.715     0.000
     In     8      Px                   0.243     0.243     0.000
     In     8      Py                   0.243     0.243    -0.000
     In     8      Pz                   0.238     0.239    -0.000
     In     8      S                   -0.265    -0.265     0.000
     In     9      Dzz                  1.000     1.000     0.000
     In     9      Dzy                  0.998     0.998    -0.000
     In     9      Dzx                  0.998     0.998     0.000
     In     9      Dxx-yy               1.000     1.000    -0.000
     In     9      Dxy                  0.998     0.998    -0.000
     In     9      S                    0.715     0.715    -0.000
     In     9      Px                   0.243     0.243    -0.000
     In     9      Py                   0.239     0.239    -0.000
     In     9      Pz                   0.243     0.243    -0.000
     In     9      S                   -0.265    -0.265    -0.000
     In    10      Dzz                  1.000     1.000     0.000
     In    10      Dzy                  0.998     0.998     0.000
     In    10      Dzx                  0.998     0.998     0.000
     In    10      Dxx-yy               1.000     1.000    -0.000
     In    10      Dxy                  0.998     0.998    -0.000
     In    10      S                    0.715     0.715    -0.000
     In    10      Px                   0.243     0.243    -0.000
     In    10      Py                   0.239     0.238     0.000
     In    10      Pz                   0.243     0.243    -0.000
     In    10      S                   -0.265    -0.265    -0.000
     In    11      Dzz                  1.000     1.000    -0.000
     In    11      Dzy                  0.998     0.998    -0.000
     In    11      Dzx                  0.998     0.998     0.000
     In    11      Dxx-yy               1.000     1.000    -0.000
     In    11      Dxy                  0.998     0.998    -0.000
     In    11      S                    0.715     0.715    -0.000
     In    11      Px                   0.243     0.243     0.000
     In    11      Py                   0.239     0.239     0.000
     In    11      Pz                   0.243     0.243     0.000
     In    11      S                   -0.265    -0.265     0.000
     In    12      Dzz                  1.000     1.000    -0.000
     In    12      Dzy                  0.998     0.998    -0.000
     In    12      Dzx                  0.998     0.998     0.000
     In    12      Dxx-yy               1.000     1.000    -0.000
     In    12      Dxy                  0.998     0.998    -0.000
     In    12      S                    0.715     0.715    -0.000
     In    12      Px                   0.243     0.243     0.000
     In    12      Py                   0.239     0.239     0.000
     In    12      Pz                   0.243     0.243    -0.000
     In    12      S                   -0.265    -0.265     0.000
     In    13      Dzz                  1.000     1.000    -0.000
     In    13      Dzy                  0.998     0.998    -0.000
     In    13      Dzx                  0.998     0.998    -0.000
     In    13      Dxx-yy               1.000     1.000     0.000
     In    13      Dxy                  0.998     0.998    -0.000
     In    13      S                    0.715     0.715     0.000
     In    13      Px                   0.246     0.246    -0.000
     In    13      Py                   0.240     0.240     0.000
     In    13      Pz                   0.240     0.240     0.000
     In    13      S                   -0.264    -0.264     0.000
     In    14      Dzz                  1.000     1.000     0.000
     In    14      Dzy                  0.998     0.998    -0.000
     In    14      Dzx                  0.998     0.998     0.000
     In    14      Dxx-yy               1.000     1.000     0.000
     In    14      Dxy                  0.998     0.998    -0.000
     In    14      S                    0.715     0.715    -0.000
     In    14      Px                   0.246     0.246     0.000
     In    14      Py                   0.240     0.240     0.000
     In    14      Pz                   0.240     0.240     0.000
     In    14      S                   -0.264    -0.264     0.000
     In    15      Dzz                  1.000     1.000     0.000
     In    15      Dzy                  0.998     0.998     0.000
     In    15      Dzx                  0.998     0.998     0.000
     In    15      Dxx-yy               1.000     1.000     0.000
     In    15      Dxy                  0.998     0.998    -0.000
     In    15      S                    0.715     0.715     0.000
     In    15      Px                   0.246     0.246     0.000
     In    15      Py                   0.240     0.240     0.000
     In    15      Pz                   0.240     0.240     0.000
     In    15      S                   -0.264    -0.264    -0.000
     In    16      Dzz                  1.000     1.000    -0.000
     In    16      Dzy                  0.998     0.998    -0.000
     In    16      Dzx                  0.998     0.998     0.000
     In    16      Dxx-yy               1.000     1.000     0.000
     In    16      Dxy                  0.998     0.998    -0.000
     In    16      S                    0.715     0.715    -0.000
     In    16      Px                   0.246     0.246     0.000
     In    16      Py                   0.240     0.240     0.000
     In    16      Pz                   0.240     0.240     0.000
     In    16      S                   -0.264    -0.264    -0.000
     In    17      Dzz                  1.000     1.000     0.000
     In    17      Dzy                  0.998     0.998    -0.000
     In    17      Dzx                  0.998     0.998    -0.000
     In    17      Dxx-yy               1.000     1.000    -0.000
     In    17      Dxy                  0.998     0.998    -0.000
     In    17      S                    0.715     0.715     0.000
     In    17      Px                   0.238     0.239    -0.000
     In    17      Py                   0.243     0.243    -0.000
     In    17      Pz                   0.243     0.243     0.000
     In    17      S                   -0.265    -0.265     0.000
     In    18      Dzz                  1.000     1.000     0.000
     In    18      Dzy                  0.998     0.998     0.000
     In    18      Dzx                  0.998     0.998    -0.000
     In    18      Dxx-yy               1.000     1.000     0.000
     In    18      Dxy                  0.998     0.998    -0.000
     In    18      S                    0.715     0.715    -0.000
     In    18      Px                   0.239     0.239    -0.000
     In    18      Py                   0.243     0.243     0.000
     In    18      Pz                   0.243     0.243     0.000
     In    18      S                   -0.265    -0.265    -0.000
     In    19      Dzz                  1.000     1.000    -0.000
     In    19      Dzy                  0.998     0.998     0.000
     In    19      Dzx                  0.998     0.998    -0.000
     In    19      Dxx-yy               1.000     1.000    -0.000
     In    19      Dxy                  0.998     0.998    -0.000
     In    19      S                    0.715     0.715     0.000
     In    19      Px                   0.239     0.239    -0.000
     In    19      Py                   0.243     0.243    -0.000
     In    19      Pz                   0.243     0.243     0.000
     In    19      S                   -0.265    -0.265    -0.000
     In    20      Dzz                  1.000     1.000     0.000
     In    20      Dzy                  0.998     0.998     0.000
     In    20      Dzx                  0.998     0.998    -0.000
     In    20      Dxx-yy               1.000     1.000    -0.000
     In    20      Dxy                  0.998     0.998    -0.000
     In    20      S                    0.715     0.715     0.000
     In    20      Px                   0.239     0.239    -0.000
     In    20      Py                   0.243     0.243    -0.000
     In    20      Pz                   0.243     0.243     0.000
     In    20      S                   -0.265    -0.265    -0.000
     In    21      Dzz                  1.000     1.000    -0.000
     In    21      Dzy                  0.998     0.998     0.000
     In    21      Dzx                  0.998     0.998     0.000
     In    21      Dxx-yy               1.000     1.000     0.000
     In    21      Dxy                  0.998     0.998    -0.000
     In    21      S                    0.715     0.715     0.000
     In    21      Px                   0.240     0.240     0.000
     In    21      Py                   0.246     0.246     0.000
     In    21      Pz                   0.240     0.240    -0.000
     In    21      S                   -0.264    -0.264    -0.000
     In    22      Dzz                  1.000     1.000     0.000
     In    22      Dzy                  0.998     0.998    -0.000
     In    22      Dzx                  0.998     0.998    -0.000
     In    22      Dxx-yy               1.000     1.000     0.000
     In    22      Dxy                  0.998     0.998    -0.000
     In    22      S                    0.715     0.715     0.000
     In    22      Px                   0.240     0.240    -0.000
     In    22      Py                   0.246     0.246     0.000
     In    22      Pz                   0.240     0.240    -0.000
     In    22      S                   -0.264    -0.264    -0.000
     In    23      Dzz                  1.000     1.000     0.000
     In    23      Dzy                  0.998     0.998     0.000
     In    23      Dzx                  0.998     0.998    -0.000
     In    23      Dxx-yy               1.000     1.000     0.000
     In    23      Dxy                  0.998     0.998    -0.000
     In    23      S                    0.715     0.715     0.000
     In    23      Px                   0.240     0.240     0.000
     In    23      Py                   0.246     0.246     0.000
     In    23      Pz                   0.240     0.240     0.000
     In    23      S                   -0.264    -0.264     0.000
     In    24      Dzz                  1.000     1.000     0.000
     In    24      Dzy                  0.998     0.998    -0.000
     In    24      Dzx                  0.998     0.998    -0.000
     In    24      Dxx-yy               1.000     1.000     0.000
     In    24      Dxy                  0.998     0.998    -0.000
     In    24      S                    0.715     0.715     0.000
     In    24      Px                   0.240     0.240     0.000
     In    24      Py                   0.246     0.246    -0.000
     In    24      Pz                   0.240     0.240     0.000
     In    24      S                   -0.264    -0.264     0.000
     In    25      Dzz                  1.000     1.000     0.000
     In    25      Dzy                  0.998     0.998    -0.000
     In    25      Dzx                  0.998     0.998     0.000
     In    25      Dxx-yy               1.000     1.000     0.000
     In    25      Dxy                  0.998     0.998    -0.000
     In    25      S                    0.715     0.715     0.000
     In    25      Px                   0.240     0.240     0.000
     In    25      Py                   0.240     0.240     0.000
     In    25      Pz                   0.246     0.246    -0.000
     In    25      S                   -0.264    -0.264     0.000
     In    26      Dzz                  1.000     1.000     0.000
     In    26      Dzy                  0.998     0.998    -0.000
     In    26      Dzx                  0.998     0.998    -0.000
     In    26      Dxx-yy               1.000     1.000     0.000
     In    26      Dxy                  0.998     0.998    -0.000
     In    26      S                    0.715     0.715     0.000
     In    26      Px                   0.240     0.240     0.000
     In    26      Py                   0.240     0.240     0.000
     In    26      Pz                   0.246     0.246     0.000
     In    26      S                   -0.264    -0.264     0.000
     In    27      Dzz                  1.000     1.000    -0.000
     In    27      Dzy                  0.998     0.998     0.000
     In    27      Dzx                  0.998     0.998     0.000
     In    27      Dxx-yy               1.000     1.000     0.000
     In    27      Dxy                  0.998     0.998    -0.000
     In    27      S                    0.715     0.715    -0.000
     In    27      Px                   0.240     0.240    -0.000
     In    27      Py                   0.240     0.240    -0.000
     In    27      Pz                   0.246     0.246     0.000
     In    27      S                   -0.264    -0.264    -0.000
     In    28      Dzz                  1.000     1.000     0.000
     In    28      Dzy                  0.998     0.998    -0.000
     In    28      Dzx                  0.998     0.998    -0.000
     In    28      Dxx-yy               1.000     1.000     0.000
     In    28      Dxy                  0.998     0.998    -0.000
     In    28      S                    0.715     0.715    -0.000
     In    28      Px                   0.240     0.240     0.000
     In    28      Py                   0.240     0.240     0.000
     In    28      Pz                   0.246     0.246    -0.000
     In    28      S                   -0.264    -0.264    -0.000
     In    29      Dzz                  1.000     1.000    -0.000
     In    29      Dzy                  0.998     0.998     0.000
     In    29      Dzx                  0.998     0.998     0.000
     In    29      Dxx-yy               1.000     1.000    -0.000
     In    29      Dxy                  0.998     0.998    -0.000
     In    29      S                    0.714     0.714    -0.000
     In    29      Px                   0.241     0.241    -0.000
     In    29      Py                   0.241     0.241     0.000
     In    29      Pz                   0.241     0.241    -0.000
     In    29      S                   -0.265    -0.264    -0.000
     In    30      Dzz                  1.000     1.000     0.000
     In    30      Dzy                  0.998     0.998    -0.000
     In    30      Dzx                  0.998     0.998     0.000
     In    30      Dxx-yy               1.000     1.000    -0.000
     In    30      Dxy                  0.998     0.998     0.000
     In    30      S                    0.714     0.714    -0.000
     In    30      Px                   0.241     0.241    -0.000
     In    30      Py                   0.241     0.241     0.000
     In    30      Pz                   0.241     0.241     0.000
     In    30      S                   -0.264    -0.264     0.000
     In    31      Dzz                  1.000     1.000     0.000
     In    31      Dzy                  0.998     0.998    -0.000
     In    31      Dzx                  0.998     0.998     0.000
     In    31      Dxx-yy               1.000     1.000    -0.000
     In    31      Dxy                  0.998     0.998    -0.000
     In    31      S                    0.714     0.714    -0.000
     In    31      Px                   0.241     0.241    -0.000
     In    31      Py                   0.241     0.241     0.000
     In    31      Pz                   0.241     0.241     0.000
     In    31      S                   -0.264    -0.264    -0.000
     In    32      Dzz                  1.000     1.000     0.000
     In    32      Dzy                  0.998     0.998     0.000
     In    32      Dzx                  0.998     0.998     0.000
     In    32      Dxx-yy               1.000     1.000     0.000
     In    32      Dxy                  0.998     0.998    -0.000
     In    32      S                    0.714     0.714    -0.000
     In    32      Px                   0.241     0.241    -0.000
     In    32      Py                   0.241     0.241     0.000
     In    32      Pz                   0.241     0.241    -0.000
     In    32      S                   -0.264    -0.264     0.000
     In    33      Dzz                  0.999     0.999     0.000
     In    33      Dzy                  0.998     0.998    -0.000
     In    33      Dzx                  0.998     0.998    -0.000
     In    33      Dxx-yy               0.999     0.999     0.000
     In    33      Dxy                  0.998     0.998    -0.000
     In    33      S                    0.744     0.744     0.000
     In    33      Px                   0.193     0.193    -0.000
     In    33      Py                   0.192     0.193    -0.000
     In    33      Pz                   0.193     0.193    -0.000
     In    33      S                    0.012     0.012     0.000
  ---------------------------------------------------------------
                           Total:     294.500   294.500    -0.000
  ---------------------------------------------------------------

     Atomic Populations (Mulliken)
     -----------------------------
Species          Ion Spin      s       p       d       f      Total   Charge(e)   Spin(hbar/2)
==============================================================================================
  P               1   up:     0.880   1.936   0.000   0.000   2.816    -0.632       -0.000
                  1   dn:     0.880   1.936   0.000   0.000   2.816
  P               2   up:     0.880   1.936   0.000   0.000   2.816    -0.632        0.000
                  2   dn:     0.880   1.936   0.000   0.000   2.816
  P               3   up:     0.880   1.936   0.000   0.000   2.816    -0.632       -0.000
                  3   dn:     0.880   1.936   0.000   0.000   2.816
  P               4   up:     0.868   1.968   0.000   0.000   2.836    -0.673        0.000
                  4   dn:     0.868   1.968   0.000   0.000   2.836
  P               5   up:     0.880   1.936   0.000   0.000   2.816    -0.632       -0.000
                  5   dn:     0.880   1.936   0.000   0.000   2.816
  P               6   up:     0.868   1.968   0.000   0.000   2.836    -0.671        0.000
                  6   dn:     0.868   1.968   0.000   0.000   2.836
  P               7   up:     0.868   1.968   0.000   0.000   2.836    -0.671        0.000
                  7   dn:     0.868   1.968   0.000   0.000   2.836
  P               8   up:     0.869   1.966   0.000   0.000   2.835    -0.670        0.000
                  8   dn:     0.869   1.966   0.000   0.000   2.835
  P               9   up:     0.868   1.968   0.000   0.000   2.836    -0.671        0.000
                  9   dn:     0.868   1.968   0.000   0.000   2.836
  P              10   up:     0.868   1.968   0.000   0.000   2.836    -0.671        0.000
                 10   dn:     0.868   1.968   0.000   0.000   2.836
  P              11   up:     0.880   1.936   0.000   0.000   2.816    -0.632       -0.000
                 11   dn:     0.880   1.936   0.000   0.000   2.816
  P              12   up:     0.869   1.966   0.000   0.000   2.835    -0.670       -0.000
                 12   dn:     0.869   1.966   0.000   0.000   2.835
  P              13   up:     0.868   1.968   0.000   0.000   2.836    -0.671        0.000
                 13   dn:     0.868   1.968   0.000   0.000   2.836
  P              14   up:     0.867   1.971   0.000   0.000   2.837    -0.675        0.000
                 14   dn:     0.867   1.971   0.000   0.000   2.837
  P              15   up:     0.868   1.968   0.000   0.000   2.836    -0.671        0.000
                 15   dn:     0.868   1.968   0.000   0.000   2.836
  P              16   up:     0.868   1.968   0.000   0.000   2.836    -0.673       -0.000
                 16   dn:     0.868   1.968   0.000   0.000   2.836
  P              17   up:     0.868   1.968   0.000   0.000   2.836    -0.671        0.000
                 17   dn:     0.868   1.968   0.000   0.000   2.836
  P              18   up:     0.880   1.936   0.000   0.000   2.816    -0.632       -0.000
                 18   dn:     0.880   1.936   0.000   0.000   2.816
  P              19   up:     0.868   1.968   0.000   0.000   2.836    -0.671        0.000
                 19   dn:     0.868   1.968   0.000   0.000   2.836
  P              20   up:     0.869   1.966   0.000   0.000   2.835    -0.670        0.000
                 20   dn:     0.869   1.966   0.000   0.000   2.835
  P              21   up:     0.868   1.968   0.000   0.000   2.836    -0.671        0.000
                 21   dn:     0.868   1.968   0.000   0.000   2.836
  P              22   up:     0.868   1.968   0.000   0.000   2.836    -0.671        0.000
                 22   dn:     0.868   1.968   0.000   0.000   2.836
  P              23   up:     0.867   1.971   0.000   0.000   2.837    -0.675        0.000
                 23   dn:     0.867   1.971   0.000   0.000   2.837
  P              24   up:     0.868   1.968   0.000   0.000   2.836    -0.673        0.000
                 24   dn:     0.868   1.968   0.000   0.000   2.836
  P              25   up:     0.867   1.971   0.000   0.000   2.837    -0.675        0.000
                 25   dn:     0.867   1.971   0.000   0.000   2.837
  P              26   up:     0.868   1.968   0.000   0.000   2.836    -0.671        0.000
                 26   dn:     0.868   1.968   0.000   0.000   2.836
  P              27   up:     0.868   1.968   0.000   0.000   2.836    -0.671        0.000
                 27   dn:     0.868   1.968   0.000   0.000   2.836
  P              28   up:     0.868   1.968   0.000   0.000   2.836    -0.673        0.000
                 28   dn:     0.868   1.968   0.000   0.000   2.836
  P              29   up:     0.867   1.971   0.000   0.000   2.837    -0.675        0.000
                 29   dn:     0.867   1.971   0.000   0.000   2.837
  P              30   up:     0.867   1.971   0.000   0.000   2.837    -0.675        0.000
                 30   dn:     0.867   1.971   0.000   0.000   2.837
  P              31   up:     0.867   1.971   0.000   0.000   2.837    -0.675       -0.000
                 31   dn:     0.867   1.971   0.000   0.000   2.837
  P              32   up:     0.869   1.966   0.000   0.000   2.835    -0.670        0.000
                 32   dn:     0.869   1.966   0.000   0.000   2.835
  In              1   up:     0.476   0.724   4.994   0.000   6.194     0.613       -0.000
                  1   dn:     0.476   0.724   4.994   0.000   6.194
  In              2   up:     0.476   0.724   4.994   0.000   6.194     0.613       -0.000
                  2   dn:     0.476   0.724   4.994   0.000   6.194
  In              3   up:     0.476   0.724   4.994   0.000   6.194     0.613       -0.000
                  3   dn:     0.476   0.724   4.994   0.000   6.194
  In              4   up:     0.476   0.724   4.994   0.000   6.194     0.613        0.000
                  4   dn:     0.476   0.724   4.994   0.000   6.194
  In              5   up:     0.450   0.725   4.994   0.000   6.170     0.661       -0.000
                  5   dn:     0.450   0.725   4.994   0.000   6.170
  In              6   up:     0.450   0.725   4.994   0.000   6.170     0.661       -0.000
                  6   dn:     0.450   0.725   4.994   0.000   6.170
  In              7   up:     0.450   0.725   4.994   0.000   6.170     0.661       -0.000
                  7   dn:     0.450   0.725   4.994   0.000   6.170
  In              8   up:     0.450   0.725   4.994   0.000   6.170     0.661        0.000
                  8   dn:     0.450   0.725   4.994   0.000   6.170
  In              9   up:     0.450   0.725   4.994   0.000   6.170     0.661       -0.000
                  9   dn:     0.450   0.725   4.994   0.000   6.170
  In             10   up:     0.450   0.725   4.994   0.000   6.170     0.661       -0.000
                 10   dn:     0.450   0.725   4.994   0.000   6.170
  In             11   up:     0.450   0.725   4.994   0.000   6.170     0.661       -0.000
                 11   dn:     0.450   0.725   4.994   0.000   6.170
  In             12   up:     0.450   0.725   4.994   0.000   6.170     0.661        0.000
                 12   dn:     0.450   0.725   4.994   0.000   6.170
  In             13   up:     0.452   0.726   4.994   0.000   6.172     0.657        0.000
                 13   dn:     0.452   0.726   4.994   0.000   6.172
  In             14   up:     0.452   0.726   4.994   0.000   6.172     0.657        0.000
                 14   dn:     0.452   0.726   4.994   0.000   6.172
  In             15   up:     0.452   0.726   4.994   0.000   6.172     0.657        0.000
                 15   dn:     0.452   0.726   4.994   0.000   6.172
  In             16   up:     0.452   0.726   4.994   0.000   6.172     0.657       -0.000
                 16   dn:     0.452   0.726   4.994   0.000   6.172
  In             17   up:     0.450   0.725   4.994   0.000   6.170     0.661        0.000
                 17   dn:     0.450   0.725   4.994   0.000   6.170
  In             18   up:     0.450   0.725   4.994   0.000   6.170     0.661       -0.000
                 18   dn:     0.450   0.725   4.994   0.000   6.170
  In             19   up:     0.450   0.725   4.994   0.000   6.170     0.661        0.000
                 19   dn:     0.450   0.725   4.994   0.000   6.170
  In             20   up:     0.450   0.725   4.994   0.000   6.170     0.661       -0.000
                 20   dn:     0.450   0.725   4.994   0.000   6.170
  In             21   up:     0.452   0.726   4.994   0.000   6.172     0.657       -0.000
                 21   dn:     0.452   0.726   4.994   0.000   6.172
  In             22   up:     0.452   0.726   4.994   0.000   6.172     0.657       -0.000
                 22   dn:     0.452   0.726   4.994   0.000   6.172
  In             23   up:     0.452   0.726   4.994   0.000   6.172     0.657        0.000
                 23   dn:     0.452   0.726   4.994   0.000   6.172
  In             24   up:     0.452   0.726   4.994   0.000   6.172     0.657        0.000
                 24   dn:     0.452   0.726   4.994   0.000   6.172
  In             25   up:     0.452   0.726   4.994   0.000   6.172     0.657        0.000
                 25   dn:     0.452   0.726   4.994   0.000   6.172
  In             26   up:     0.452   0.726   4.994   0.000   6.172     0.657        0.000
                 26   dn:     0.452   0.726   4.994   0.000   6.172
  In             27   up:     0.452   0.726   4.994   0.000   6.172     0.657       -0.000
                 27   dn:     0.452   0.726   4.994   0.000   6.172
  In             28   up:     0.452   0.726   4.994   0.000   6.172     0.657       -0.000
                 28   dn:     0.452   0.726   4.994   0.000   6.172
  In             29   up:     0.449   0.723   4.995   0.000   6.167     0.665       -0.000
                 29   dn:     0.449   0.723   4.995   0.000   6.167
  In             30   up:     0.449   0.723   4.995   0.000   6.167     0.665       -0.000
                 30   dn:     0.449   0.723   4.995   0.000   6.167
  In             31   up:     0.449   0.723   4.995   0.000   6.167     0.665       -0.000
                 31   dn:     0.449   0.723   4.995   0.000   6.167
  In             32   up:     0.449   0.723   4.995   0.000   6.167     0.665       -0.000
                 32   dn:     0.449   0.723   4.995   0.000   6.167
  In             33   up:     0.756   0.578   4.993   0.000   6.327     0.347        0.000
                 33   dn:     0.755   0.578   4.993   0.000   6.326
==============================================================================================

                 Bond                   Population        Spin       Length (A)
================================================================================
              P 32 -- In 1                   0.82        -0.00          2.47224
              P 20 -- In 3                   0.82        -0.00          2.47224
              P 12 -- In 2                   0.82        -0.00          2.47224
              P 8  -- In 4                   0.82        -0.00          2.47224
              P 31 -- In 22                  0.67         0.00          2.52969
              P 31 -- In 21                  0.67         0.00          2.52969
              P 30 -- In 15                  0.67         0.00          2.52969
              P 30 -- In 13                  0.67        -0.00          2.52969
              P 29 -- In 28                  0.67         0.00          2.52969
              P 29 -- In 25                  0.67         0.00          2.52969
              P 25 -- In 27                  0.67         0.00          2.52969
              P 25 -- In 26                  0.67        -0.00          2.52969
              P 23 -- In 24                  0.67         0.00          2.52969
              P 23 -- In 23                  0.67        -0.00          2.52969
              P 14 -- In 16                  0.67         0.00          2.52969
              P 14 -- In 14                  0.67         0.00          2.52969
              P 19 -- In 25                  0.65        -0.00          2.54295
              P 10 -- In 25                  0.65        -0.00          2.54295
              P 7  -- In 13                  0.65        -0.00          2.54295
              P 6  -- In 21                  0.65        -0.00          2.54295
              P 19 -- In 26                  0.65         0.00          2.54295
              P 17 -- In 24                  0.65         0.00          2.54295
              P 17 -- In 21                  0.65        -0.00          2.54295
              P 10 -- In 27                  0.65         0.00          2.54295
              P 9  -- In 16                  0.65         0.00          2.54295
              P 9  -- In 13                  0.65         0.00          2.54295
              P 7  -- In 14                  0.65         0.00          2.54295
              P 6  -- In 23                  0.65         0.00          2.54295
              P 27 -- In 28                  0.65         0.00          2.54295
              P 27 -- In 27                  0.65        -0.00          2.54295
              P 26 -- In 28                  0.65         0.00          2.54295
              P 26 -- In 26                  0.65         0.00          2.54295
              P 22 -- In 24                  0.65        -0.00          2.54295
              P 22 -- In 22                  0.65         0.00          2.54295
              P 21 -- In 23                  0.65         0.00          2.54295
              P 21 -- In 22                  0.65        -0.00          2.54295
              P 15 -- In 16                  0.65        -0.00          2.54295
              P 15 -- In 15                  0.65         0.00          2.54295
              P 13 -- In 15                  0.65        -0.00          2.54295
              P 13 -- In 14                  0.65        -0.00          2.54295
              P 20 -- In 13                  0.61        -0.00          2.54424
              P 12 -- In 21                  0.61        -0.00          2.54424
              P 8  -- In 25                  0.61         0.00          2.54424
              P 32 -- In 28                  0.61        -0.00          2.54424
              P 32 -- In 22                  0.61         0.00          2.54424
              P 32 -- In 15                  0.61        -0.00          2.54424
              P 12 -- In 16                  0.61        -0.00          2.54424
              P 8  -- In 23                  0.61        -0.00          2.54424
              P 8  -- In 14                  0.61        -0.00          2.54424
              P 20 -- In 26                  0.61        -0.00          2.54424
              P 20 -- In 24                  0.61        -0.00          2.54424
              P 12 -- In 27                  0.61        -0.00          2.54424
              P 25 -- In 32                  0.65        -0.00          2.55051
              P 23 -- In 30                  0.65        -0.00          2.55051
              P 14 -- In 31                  0.65         0.00          2.55051
              P 31 -- In 32                  0.65        -0.00          2.55052
              P 31 -- In 31                  0.65        -0.00          2.55052
              P 30 -- In 32                  0.65        -0.00          2.55052
              P 30 -- In 30                  0.65        -0.00          2.55052
              P 29 -- In 31                  0.65        -0.00          2.55052
              P 29 -- In 30                  0.65        -0.00          2.55052
              P 25 -- In 29                  0.65         0.00          2.55052
              P 23 -- In 29                  0.65        -0.00          2.55052
              P 14 -- In 29                  0.65        -0.00          2.55052
              P 27 -- In 17                  0.64        -0.00          2.55135
              P 26 -- In 9                   0.64        -0.00          2.55135
              P 22 -- In 5                   0.64        -0.00          2.55135
              P 21 -- In 17                  0.64         0.00          2.55135
              P 19 -- In 20                  0.64         0.00          2.55135
              P 17 -- In 18                  0.64        -0.00          2.55135
              P 15 -- In 5                   0.64        -0.00          2.55135
              P 13 -- In 9                   0.64         0.00          2.55135
              P 10 -- In 12                  0.64         0.00          2.55135
              P 9  -- In 11                  0.64        -0.00          2.55135
              P 7  -- In 7                   0.64        -0.00          2.55135
              P 6  -- In 6                   0.64        -0.00          2.55135
              P 27 -- In 18                  0.64        -0.00          2.55135
              P 26 -- In 11                  0.64        -0.00          2.55135
              P 22 -- In 7                   0.64         0.00          2.55135
              P 21 -- In 20                  0.64        -0.00          2.55135
              P 19 -- In 19                  0.64        -0.00          2.55135
              P 17 -- In 19                  0.64        -0.00          2.55135
              P 15 -- In 6                   0.64        -0.00          2.55135
              P 13 -- In 12                  0.64         0.00          2.55135
              P 10 -- In 10                  0.64         0.00          2.55135
              P 9  -- In 10                  0.64        -0.00          2.55135
              P 7  -- In 8                   0.64         0.00          2.55135
              P 6  -- In 8                   0.64         0.00          2.55135
              P 28 -- In 32                  0.66         0.00          2.55215
              P 24 -- In 30                  0.66         0.00          2.55215
              P 16 -- In 31                  0.66        -0.00          2.55215
              P 4  -- In 29                  0.66         0.00          2.55215
              P 18 -- In 20                  0.64         0.00          2.55461
              P 18 -- In 18                  0.64         0.00          2.55461
              P 11 -- In 12                  0.64        -0.00          2.55461
              P 11 -- In 11                  0.64         0.00          2.55461
              P 5  -- In 7                   0.64        -0.00          2.55461
              P 5  -- In 6                   0.64        -0.00          2.55461
              P 3  -- In 9                   0.64         0.00          2.55461
              P 2  -- In 17                  0.64        -0.00          2.55461
              P 1  -- In 5                   0.64         0.00          2.55461
              P 3  -- In 10                  0.64        -0.00          2.55461
              P 2  -- In 19                  0.64         0.00          2.55461
              P 1  -- In 8                   0.64        -0.00          2.55461
              P 28 -- In 18                  0.64        -0.00          2.55497
              P 28 -- In 11                  0.64        -0.00          2.55497
              P 24 -- In 20                  0.64         0.00          2.55497
              P 24 -- In 7                   0.64        -0.00          2.55497
              P 16 -- In 12                  0.64         0.00          2.55497
              P 16 -- In 6                   0.64         0.00          2.55497
              P 4  -- In 19                  0.64         0.00          2.55497
              P 4  -- In 10                  0.64         0.00          2.55497
              P 4  -- In 8                   0.64         0.00          2.55497
              P 28 -- In 5                   0.64        -0.00          2.55497
              P 24 -- In 9                   0.64        -0.00          2.55497
              P 16 -- In 17                  0.64         0.00          2.55497
              P 18 -- In 3                   0.48         0.00          2.67919
              P 11 -- In 2                   0.48        -0.00          2.67919
              P 5  -- In 4                   0.48         0.00          2.67919
              P 3  -- In 4                   0.48        -0.00          2.67919
              P 3  -- In 3                   0.48        -0.00          2.67919
              P 2  -- In 4                   0.48        -0.00          2.67919
              P 2  -- In 2                   0.48        -0.00          2.67919
              P 1  -- In 3                   0.48        -0.00          2.67919
              P 1  -- In 2                   0.48        -0.00          2.67919
              P 18 -- In 1                   0.48        -0.00          2.67919
              P 11 -- In 1                   0.48         0.00          2.67919
              P 5  -- In 1                   0.48         0.00          2.67919
             In 4  -- In 33                 -0.57         0.00          2.84505
             In 3  -- In 33                 -0.57        -0.00          2.84505
             In 2  -- In 33                 -0.57         0.00          2.84505
             In 1  -- In 33                 -0.57         0.00          2.84505
              P 3  -- In 33                  0.05         0.00          2.97746
              P 2  -- In 33                  0.05         0.00          2.97746
              P 1  -- In 33                  0.05         0.00          2.97746
              P 18 -- In 33                  0.05         0.00          2.97746
              P 11 -- In 33                  0.05         0.00          2.97746
              P 5  -- In 33                  0.05         0.00          2.97746
================================================================================

 Hirshfeld supercell size:           2           2           2
Standard grid dimensions: 240 240 240
Fine grid dimensions:     240 240 240


     Hirshfeld Analysis
     ------------------
Species   Ion     Hirshfeld Charge (e)  Spin (hbar/2)
===================================================
  P        1                -0.23       -0.00
  P        2                -0.23       -0.00
  P        3                -0.23       -0.00
  P        4                -0.24        0.00
  P        5                -0.23       -0.00
  P        6                -0.24       -0.00
  P        7                -0.24       -0.00
  P        8                -0.23       -0.00
  P        9                -0.24       -0.00
  P       10                -0.24       -0.00
  P       11                -0.23       -0.00
  P       12                -0.23       -0.00
  P       13                -0.24       -0.00
  P       14                -0.24       -0.00
  P       15                -0.24       -0.00
  P       16                -0.24        0.00
  P       17                -0.24       -0.00
  P       18                -0.23       -0.00
  P       19                -0.24       -0.00
  P       20                -0.23       -0.00
  P       21                -0.24       -0.00
  P       22                -0.24       -0.00
  P       23                -0.24       -0.00
  P       24                -0.24        0.00
  P       25                -0.24       -0.00
  P       26                -0.24       -0.00
  P       27                -0.24       -0.00
  P       28                -0.24        0.00
  P       29                -0.24       -0.00
  P       30                -0.24       -0.00
  P       31                -0.24       -0.00
  P       32                -0.23       -0.00
  In       1                 0.23       -0.00
  In       2                 0.23       -0.00
  In       3                 0.23       -0.00
  In       4                 0.23       -0.00
  In       5                 0.23        0.00
  In       6                 0.23        0.00
  In       7                 0.23        0.00
  In       8                 0.23        0.00
  In       9                 0.23        0.00
  In      10                 0.23        0.00
  In      11                 0.23        0.00
  In      12                 0.23        0.00
  In      13                 0.23       -0.00
  In      14                 0.23       -0.00
  In      15                 0.23       -0.00
  In      16                 0.23       -0.00
  In      17                 0.23        0.00
  In      18                 0.23        0.00
  In      19                 0.23        0.00
  In      20                 0.23        0.00
  In      21                 0.23       -0.00
  In      22                 0.23       -0.00
  In      23                 0.23       -0.00
  In      24                 0.23       -0.00
  In      25                 0.23       -0.00
  In      26                 0.23       -0.00
  In      27                 0.23       -0.00
  In      28                 0.23       -0.00
  In      29                 0.24       -0.00
  In      30                 0.24       -0.00
  In      31                 0.24       -0.00
  In      32                 0.24       -0.00
  In      33                 0.09       -0.00
===================================================

 
 A BibTeX formatted list of references used in this run has been written to 
 In_Interstitial_Migration_Tetra_Octa_Singlepoints_0.bib
 
Initialisation time =     32.05 s
Calculation time    =   8311.45 s
Finalisation time   =    169.39 s
Total time          =   8512.90 s
Peak Memory Use     = 9645908 kB
 
Overall parallel efficiency rating: Terrible (34%)
 
Data was distributed by:-
G-vector (3-way); efficiency rating: Poor (38%)
k-point (36-way); efficiency rating: Good (76%)
