 +-------------------------------------------------+
 |                                                 |
 |      CCC   AA    SSS  TTTTT  EEEEE  PPPP        |
 |     C     A  A  S       T    E      P   P       |
 |     C     AAAA   SS     T    EEE    PPPP        |
 |     C     A  A     S    T    E      P           |
 |      CCC  A  A  SSS     T    EEEEE  P           |
 |                                                 |
 +-------------------------------------------------+
 |                                                 |
 | Welcome to Academic Release CASTEP version 24.1 |
 | Ab Initio Total Energy Program                  |
 |                                                 |
 | Authors:                                        |
 | M. Segall, M. Probert, C. Pickard, P. Hasnip,   |
 | S. Clark, K. Refson, J. R. Yates,               |
 | A. Bartok-Partay, M. Payne                      |
 |                                                 |
 | Contributors:                                   |
 | P. Lindan, P. Haynes, J. White, V. Milman,      |
 | N. Govind, M. Gibson, P. Tulip, V. Cocula,      |
 | B. Montanari, D. Quigley, M. Glover,            |
 | L. Bernasconi, A. Perlov, M. Plummer,           |
 | E. McNellis, J. Meyer, J. Gale, D. Jochym       |
 | J. Aarons, B. Walker, R. Gillen, D. Jones       |
 | T. Green, I. J. Bush, C. J. Armstrong,          |
 | E. J. Higgins, E. L. Brown, M. S. McFly,        |
 | J. Wilkins, B-C. Shih, P. J. P. Byrne,          |
 | R. J. Maurer, J. C. Womack, J. Dziedzic,        |
 | L. LeBlanc, T. K. Stenczel, J. Kermode,         |
 | S. Sturniolo, B. Shi, B. Durham, M. Evans,      |
 | M. J. Smith, A. Tamerus, Z. Hawkhead,           |
 | V. Ravindran, T. Hollins, S. A. Joyce,          |
 | R. T. Strong, A. M. Reilly, S. J. Donaldson     |
 |                                                 |
 | Copyright (c) 2000 - 2023                       |
 |                                                 |
 |     Distributed under license from Cambridge    |
 |     Enterprise for academic use only.           |
 |                                                 |
 | Please cite                                     |
 |                                                 |
 |     "First principles methods using CASTEP"     |
 |                                                 |
 |         Zeitschrift fuer Kristallographie       |
 |           220(5-6) pp. 567-570 (2005)           |
 |                                                 |
 | S. J. Clark, M. D. Segall, C. J. Pickard,       |
 | P. J. Hasnip, M. J. Probert, K. Refson,         |
 | M. C. Payne                                     |
 |                                                 |
 |       in all publications arising from          |
 |              your use of CASTEP                 |
 |                                                 |
 +-------------------------------------------------+
 |                                                 |
 |              http://www.castep.org              |
 |                                                 |
 +-------------------------------------------------+



 Compiled for  GNU 11.2.0 on 04-04-2024 18:39:17
 from code version 6355fd106 Castep241_branch Thu Mar 7 17:56:19 2024 +0000
 Compiler: GNU Fortran 11.2.0; Optimisation: FAST
 Comms   : MPI VERSION : CRAY MPICH version 8.1.23.14 (ANL base 3.4a2)
 MATHLIBS: default (LAPACK version 3.10.1)
 FFT Lib : fftw3 version commercial-fftw-3.3.10-sse2-avx-avx2-avx2_128
 Fundamental constants values: CODATA 2018

 Run started: Sun, 19 Jan 2025 01:26:40 +0000

 Atomic calculation performed for P: 1s2 2s2 2p6 3s2 3p3

 Converged in 47 iterations to an ae energy of -9309.074 eV

   ============================================================                
   | Pseudopotential Report - Date of generation 19-01-2025   |                
   ------------------------------------------------------------                
   | Element: P Ionic charge:  5.00 Level of theory: RSCAN    |                
   | Atomic Solver: Koelling-Harmon                           |                
   |                                                          |                
   |               Reference Electronic Structure             |                
   |         Orbital         Occupation         Energy        |                
   |            3s              2.000           -0.535        |                
   |            3p              3.000           -0.209        |                
   |                                                          |                
   |                 Pseudopotential Definition               |                
   |        Beta     l      e      Rc     scheme   norm       |                
   |          1      0   -0.535   1.807     qc      0         |                
   |          2      0    0.250   1.807     qc      0         |                
   |          3      1   -0.209   1.807     qc      0         |                
   |          4      1    0.250   1.807     qc      0         |                
   |          5      2    0.000   1.807     qc      0         |                
   |          6      2    0.250   1.807     qc      0         |                
   |         loc     3    0.000   1.807     pn      0         |                
   |                                                          |                
   | Augmentation charge Rinner = 1.263                       |                
   | Partial core correction Rc = 1.263                       |                
   ------------------------------------------------------------                
   | "3|1.8|4|4|5|30:31:32"                                   |                
   ------------------------------------------------------------                
   |      Author: Chris J. Pickard, Cambridge University      |                
   ============================================================                
 Warning: otfg_output_psp cannot write out meta-GGA pseudopotentials presently.

 Atomic calculation performed for In:
 1s2 2s2 2p6 3s2 3p6 3d10 4s2 4p6 4d10 5s2 5p1

 Converged in 84 iterations to an ae energy of -160093.328 eV

   ============================================================                
   | Pseudopotential Report - Date of generation 19-01-2025   |                
   ------------------------------------------------------------                
   | Element: In Ionic charge: 13.00 Level of theory: RSCAN   |                
   | Atomic Solver: Koelling-Harmon                           |                
   |                                                          |                
   |               Reference Electronic Structure             |                
   |         Orbital         Occupation         Energy        |                
   |            4d             10.000           -0.711        |                
   |            5s              2.000           -0.313        |                
   |            5p              1.000           -0.095        |                
   |                                                          |                
   |                 Pseudopotential Definition               |                
   |        Beta     l      e      Rc     scheme   norm       |                
   |          1      0   -0.313   2.501     qc      0         |                
   |          2      0    0.250   2.501     qc      0         |                
   |          3      1   -0.095   2.501     qc      0         |                
   |          4      1    0.250   2.501     qc      0         |                
   |          5      2   -0.711   2.207     qc      0         |                
   |          6      2    0.250   2.207     qc      0         |                
   |         loc     3    0.000   2.501     pn      0         |                
   |                                                          |                
   | Augmentation charge Rinner = 1.504                       |                
   | Partial core correction Rc = 1.504                       |                
   ------------------------------------------------------------                
   | "3|2.5|2.5|1.5|7|8|9|50:51:42U2.2U2.2"                   |                
   ------------------------------------------------------------                
   |      Author: Chris J. Pickard, Cambridge University      |                
   ============================================================                
 Warning: otfg_output_psp cannot write out meta-GGA pseudopotentials presently.

 Pseudo atomic calculation performed for P 3s2 3p3

 Converged in 23 iterations to a total energy of -208.0292 eV

 Pseudo atomic calculation performed for In 4d10 5s2 5p1

 Converged in 42 iterations to a total energy of -1747.4501 eV
 Calculation parallelised over 84 processes.
 Data is distributed by k-point(84-way)
 Each process may use up to 16 threads.

 ************************************ Title ************************************
 

 ***************************** General Parameters ******************************
  
 output verbosity                               : normal  (1)
 write checkpoint data to                       : StackingFaultStructs_001_110_7.check
 type of calculation                            : geometry optimization
 stress calculation                             : off
 density difference calculation                 : off
 electron localisation func (ELF) calculation   : off
 Hirshfeld analysis                             : on
 polarisation (Berry phase) analysis            : off
 molecular orbital projected DOS                : off
 deltaSCF calculation                           : off
 unlimited duration calculation
 timing information                             : on
 memory usage estimate                          : on
 write extra output files                       : on
 write final potential to formatted file        : off
 write final density to formatted file          : off
 write BibTeX reference list                    : on
 write OTFG pseudopotential files               : on
 write electrostatic potential file             : on
 write bands file                               : on
 checkpoint writing                             : off
  
 output         length unit                     : A
 output           mass unit                     : amu
 output           time unit                     : ps
 output         charge unit                     : e
 output           spin unit                     : hbar/2
 output         energy unit                     : eV
 output          force unit                     : eV/A
 output       velocity unit                     : A/ps
 output       pressure unit                     : GPa
 output     inv_length unit                     : 1/A
 output      frequency unit                     : cm-1
 output force constant unit                     : eV/A**2
 output         volume unit                     : A**3
 output   IR intensity unit                     : (D/A)**2/amu
 output         dipole unit                     : D
 output         efield unit                     : eV/A/e
 output        entropy unit                     : J/mol/K
 output    efield chi2 unit                     : pm/V
  
 wavefunctions paging                           : none
 random number generator seed                   :   12640842
 data distribution                              : optimal for this architecture
 optimization strategy                          : balance speed and memory

 *********************** Exchange-Correlation Parameters ***********************
  
 using functional                               : RSCAN
 relativistic treatment                         : Koelling-Harmon
 DFT+D: Semi-empirical dispersion correction    : off

 ************************* Pseudopotential Parameters **************************
  
 pseudopotential representation                 : reciprocal space
 <beta|phi> representation                      : reciprocal space
 spin-orbit coupling                            : off

 **************************** Basis Set Parameters *****************************
  
 plane wave basis set cut-off                   :   900.0000   eV
 size of standard grid                          :     2.0000
 size of   fine   gmax                          :    30.7390   1/A
 finite basis set correction                    : none

 **************************** Electronic Parameters ****************************
  
 number of  electrons                           :  216.0    
 net charge of system                           :  0.000    
 treating system as non-spin-polarized
 number of bands                                :        130

 ********************* Electronic Minimization Parameters **********************
  
 Method: Treating system as metallic with density mixing treatment of electrons,
         and number of  SD  steps               :          1
         and number of  CG  steps               :          4
  
 total energy / atom convergence tol.           : 0.1000E-07   eV
 eigen-energy convergence tolerance             : 0.2222E-08   eV
 max force / atom convergence tol.              : ignored
 convergence tolerance window                   :          3   cycles
 max. number of SCF cycles                      :         50
 number of fixed-spin iterations                :         10
 smearing scheme                                : Gaussian
 smearing width                                 : 0.2000       eV
 Fermi energy convergence tolerance             : 0.2721E-13   eV
 periodic dipole correction                     : NONE

 ************************** Density Mixing Parameters **************************
  
 density-mixing scheme                          : Pulay
 max. length of mixing history                  :         15
 charge density mixing amplitude                : 0.5000    
 cut-off energy for mixing                      :  900.0       eV

 *********************** Population Analysis Parameters ************************
  
 Population analysis with cutoff                :  3.000       A
 Population analysis output                     : summary and pdos components

 ********************** Geometry Optimization Parameters ***********************
  
 optimization method                            : LBFGS
 max. no. of LBFGS updates                      : unbounded
 preconditioned LBFGS is activated
 preconditioner type                            : EXP
     stabilization constant                     :     0.1000
     parameter A                                :     3.0000
     nearest neighbor distance                  : automatic
     cut-off distance                           : automatic
     parameter mu                               : automatic
 variable cell method                           : fixed basis quality
 max. number of steps                           :         30
 estimated bulk modulus                         :  500.0       GPa
 estimated <frequency>                          :  1668.       cm-1
 geom line minimiser                            : on
 with line minimiser tolerance                  :     0.4000
 total energy convergence tolerance             : 0.2000E-04   eV/atom
        max ionic |force| tolerance             : 0.1000E-02   eV/A
 max ionic |displacement| tolerance             : 0.1000E-02   A
   max |stress component| tolerance             : 0.1000       GPa
 convergence tolerance window                   :          2   steps
 backup results every                           :          5   steps
 write geom trajectory file                     : on

 *******************************************************************************
  

                           -------------------------------
                                      Unit Cell
                           -------------------------------
        Real Lattice(A)                      Reciprocal Lattice(1/A)
     4.1728310     0.0000000     0.0000000        1.505736826   0.000000000   0.000000000
     0.0000000     4.1728310     0.0000000        0.000000000   1.505736826  -0.155271197
     0.0000000     3.6512270    35.4076420        0.000000000   0.000000000   0.177452803

                       Lattice parameters(A)       Cell Angles
                    a =      4.172831          alpha =   84.112484
                    b =      4.172831          beta  =   90.000000
                    c =     35.595401          gamma =   90.000000

                       Current cell volume =           616.536223       A**3
                                   density =             2.837629   AMU/A**3
                                           =             4.711994     g/cm^3

                           -------------------------------
                                     Cell Contents
                           -------------------------------
                         Total number of ions in cell =   24
                      Total number of species in cell =    2
                        Max number of any one species =   12

            xxxxxxxxxxxxxxxxxxxxxxxxxxxxxxxxxxxxxxxxxxxxxxxxxxxxxxxxxxxx
            x  Element    Atom        Fractional coordinates of atoms  x
            x            Number           u          v          w      x
            x----------------------------------------------------------x
            x  P            1         0.500000  -0.328828   0.375804   x 
            x  P            2         0.000000   0.098820   0.458491   x 
            x  P            3         0.000000   0.243532   0.293107   x 
            x  P            4         0.500000  -0.473534   0.541181   x 
            x  P            5         0.000000  -0.045885   0.623869   x 
            x  P            6         0.500000  -0.184084   0.210382   x 
            x  P            7         0.500000  -0.618227   0.706545   x 
            x  P            8         0.000000  -0.190566   0.789218   x 
            x  P            9         0.000000   0.388249   0.127715   x 
            x  P           10         0.500000  -0.762898   0.871883   x 
            x  P           11         0.000000  -0.334576   0.953801   x 
            x  P           12         0.500000  -0.039143   0.044735   x 
            x  In           1         0.500000   0.134990   0.417154   x 
            x  In           2         0.500000  -0.154494   0.747993   x 
            x  In           3         0.000000  -0.582083   0.665238   x 
            x  In           4         0.500000  -0.009717   0.582533   x 
            x  In           5         0.000000  -0.437362   0.499843   x 
            x  In           6         0.000000  -0.726932   0.830780   x 
            x  In           7         0.000000  -0.292664   0.334473   x 
            x  In           8         0.500000  -0.299523   0.913740   x 
            x  In           9         0.000000  -0.148094   0.169250   x 
            x  In          10         0.500000   0.424223   0.086602   x 
            x  In          11         0.000000  -0.003369   0.003850   x 
            x  In          12         0.500000   0.279664   0.251812   x 
            xxxxxxxxxxxxxxxxxxxxxxxxxxxxxxxxxxxxxxxxxxxxxxxxxxxxxxxxxxxx


                         No user defined ionic velocities

                           -------------------------------
                                   Details of Species
                           -------------------------------

                               Mass of species in AMU
                                    P   30.9737600
                                    In  114.8180000

                          Electric Quadrupole Moment (Barn)
                                    P    1.0000000 No Isotope Defined
                                    In    0.7700000 Isotope115

                          Files used for pseudopotentials:
                                    P 3|1.8|4|4|5|30:31:32
                                    In 3|2.5|2.5|1.5|7|8|9|50:51:42U2.2U2.2

                           -------------------------------
                              k-Points For BZ Sampling
                           -------------------------------
                       MP grid size for SCF calculation is  8 10  2
                            with an offset of   0.062  0.050  0.250
                       Number of kpoints used =            84

                           -------------------------------
                               Symmetry and Constraints
                           -------------------------------

                      Maximum deviation from symmetry =  0.00000         ANG

                      Number of symmetry operations   =           1
                      Number of ionic constraints     =          48
                      Point group of crystal =     1: C1, 1, 1
                      Space group of crystal =     6: Pm, P -2y

             Set iprint > 1 for details on symmetry rotations/translations

                         Centre of mass is NOT constrained
             Set iprint > 1 for details of linear ionic constraints

                         Number of cell constraints= 6
                         Cell constraints are:  0 0 0 0 0 0

                         External pressure/stress (GPa)
                          0.00000   0.00000   0.00000
                                    0.00000   0.00000
                                              0.00000
 
+---------------- MEMORY AND SCRATCH DISK ESTIMATES PER PROCESS --------------+
|                                                     Memory          Disk    |
| Baseline code, static data and system overhead      386.0 MB         0.0 MB |
| BLAS internal memory storage                          0.0 MB         0.0 MB |
| Model and support data                             4594.4 MB         0.0 MB |
| Electronic energy minimisation requirements         525.0 MB         0.0 MB |
| Force calculation requirements                      105.7 MB         0.0 MB |
|                                               ----------------------------- |
| Approx. total storage required per process         5505.5 MB         0.0 MB |
|                                                                             |
| Requirements will fluctuate during execution and may exceed these estimates |
+-----------------------------------------------------------------------------+
Calculating approximate eigenstates for fixed initial Hamiltonian
Cut-off for approx. calculation is   89.988 eV
Improving approx. states at cut-off of  450.000 eV
Resetting cut-off to  900.000 eV
Calculating total energy with cut-off of  900.000 eV.
------------------------------------------------------------------------ <-- SCF
SCF loop      Energy           Fermi           Energy gain       Timer   <-- SCF
                               energy          per atom          (sec)   <-- SCF
------------------------------------------------------------------------ <-- SCF
Initial  -2.36422167E+004  0.00000000E+000                        78.64  <-- SCF
      1  -2.35516697E+004  2.63533353E+000  -3.77279282E+000     120.58  <-- SCF
      2  -2.35517450E+004  2.62756203E+000   3.13930095E-003     151.18  <-- SCF
      3  -2.35764727E+004  2.97015490E+000   1.03032146E+000     185.22  <-- SCF
      4  -2.35808756E+004  3.05333074E+000   1.83453285E-001     232.43  <-- SCF
      5  -2.35785986E+004  3.41624812E+000  -9.48770939E-002     267.71  <-- SCF
      6  -2.35786519E+004  3.47965839E+000   2.22056756E-003     302.83  <-- SCF
      7  -2.35786080E+004  3.53040746E+000  -1.82686096E-003     344.29  <-- SCF
      8  -2.35791281E+004  3.57222246E+000   2.16688230E-002     381.90  <-- SCF
      9  -2.35791398E+004  3.53242875E+000   4.89476736E-004     419.95  <-- SCF
     10  -2.35791459E+004  3.54193158E+000   2.54147830E-004     459.66  <-- SCF
     11  -2.35791495E+004  3.53810779E+000   1.49933251E-004     497.80  <-- SCF
     12  -2.35791465E+004  3.54941700E+000  -1.27037428E-004     539.13  <-- SCF
     13  -2.35791476E+004  3.55593908E+000   4.74121664E-005     580.48  <-- SCF
     14  -2.35791476E+004  3.55420510E+000  -1.32283778E-007     622.30  <-- SCF
     15  -2.35791476E+004  3.55481283E+000  -1.60866207E-006     661.55  <-- SCF
     16  -2.35791476E+004  3.55542617E+000   2.57205875E-007     700.67  <-- SCF
     17  -2.35791476E+004  3.55485363E+000   2.36221888E-007     736.77  <-- SCF
     18  -2.35791476E+004  3.55475465E+000   4.60685866E-007     770.97  <-- SCF
     19  -2.35791476E+004  3.55477508E+000   1.86086357E-008     800.16  <-- SCF
     20  -2.35791476E+004  3.55476791E+000   3.80986830E-009     828.11  <-- SCF
     21  -2.35791476E+004  3.55477366E+000   1.21293977E-010     856.97  <-- SCF
------------------------------------------------------------------------ <-- SCF
 
Final energy, E             =  -23579.14742115     eV
Final free energy (E-TS)    =  -23579.14758403     eV
(energies not corrected for finite basis set)
 
NB est. 0K energy (E-0.5TS)      =  -23579.14750259     eV
 
 
+---------------- MEMORY AND SCRATCH DISK ESTIMATES PER PROCESS --------------+
|                                                     Memory          Disk    |
| Model and support data                             2664.5 MB         0.0 MB |
| Electronic energy minimisation requirements         525.0 MB         0.0 MB |
| Geometry minimisation requirements                  612.5 MB         0.0 MB |
|                                               ----------------------------- |
| Approx. total storage required per process         3802.0 MB         0.0 MB |
|                                                                             |
| Requirements will fluctuate during execution and may exceed these estimates |
+-----------------------------------------------------------------------------+
 

 ******************************** Constrained Forces ********************************
 *                                                                                  *
 *                           Cartesian components (eV/A)                            *
 * -------------------------------------------------------------------------------- *
 *                         x                    y                    z              *
 *                                                                                  *
 * P               1     -0.00000(cons'd)      0.00000(cons'd)     -0.04312         *
 * P               2      0.00000(cons'd)      0.00000(cons'd)     -0.04706         *
 * P               3      0.00000(cons'd)      0.00000(cons'd)     -0.04348         *
 * P               4      0.00000(cons'd)     -0.00000(cons'd)     -0.05586         *
 * P               5      0.00000(cons'd)      0.00000(cons'd)     -0.05216         *
 * P               6     -0.00000(cons'd)      0.00000(cons'd)     -0.00195         *
 * P               7     -0.00000(cons'd)      0.00000(cons'd)     -0.02157         *
 * P               8      0.00000(cons'd)      0.00000(cons'd)      0.01186         *
 * P               9      0.00000(cons'd)     -0.00000(cons'd)      0.01664         *
 * P              10      0.00000(cons'd)      0.00000(cons'd)      0.05426         *
 * P              11      0.00000(cons'd)      0.00000(cons'd)      0.03788         *
 * P              12     -0.00000(cons'd)     -0.00000(cons'd)      0.08418         *
 * In              1      0.00000(cons'd)      0.00000(cons'd)      0.05055         *
 * In              2      0.00000(cons'd)      0.00000(cons'd)      0.01382         *
 * In              3      0.00000(cons'd)      0.00000(cons'd)      0.04313         *
 * In              4      0.00000(cons'd)      0.00000(cons'd)      0.05002         *
 * In              5      0.00000(cons'd)      0.00000(cons'd)      0.05022         *
 * In              6      0.00000(cons'd)      0.00000(cons'd)     -0.02994         *
 * In              7      0.00000(cons'd)      0.00000(cons'd)      0.04672         *
 * In              8      0.00000(cons'd)      0.00000(cons'd)     -0.08665         *
 * In              9      0.00000(cons'd)      0.00000(cons'd)     -0.02385         *
 * In             10      0.00000(cons'd)      0.00000(cons'd)     -0.05264         *
 * In             11      0.00000(cons'd)      0.00000(cons'd)     -0.03164         *
 * In             12      0.00000(cons'd)      0.00000(cons'd)      0.03063         *
 *                                                                                  *
 ************************************************************************************
 EXP precond LBFGS => estimated nearest neighbor distance :  2.549       A
 EXP precond LBFGS => estimated cutoff distance :  5.097       A

 ************************************** Forces **************************************
 *                                                                                  *
 *                           Cartesian components (eV/A)                            *
 * -------------------------------------------------------------------------------- *
 *                         x                    y                    z              *
 *                                                                                  *
 * P               1      0.00000(cons'd)     -0.00582(cons'd)     -0.04312         *
 * P               2     -0.00000(cons'd)     -0.00080(cons'd)     -0.04706         *
 * P               3     -0.00000(cons'd)      0.00094(cons'd)     -0.04348         *
 * P               4      0.00000(cons'd)      0.00345(cons'd)     -0.05586         *
 * P               5     -0.00000(cons'd)      0.00017(cons'd)     -0.05216         *
 * P               6      0.00000(cons'd)      0.00951(cons'd)     -0.00195         *
 * P               7      0.00000(cons'd)     -0.00490(cons'd)     -0.02157         *
 * P               8     -0.00000(cons'd)      0.00309(cons'd)      0.01186         *
 * P               9     -0.00000(cons'd)      0.03895(cons'd)      0.01664         *
 * P              10      0.00000(cons'd)      0.05484(cons'd)      0.05426         *
 * P              11     -0.00000(cons'd)     -1.78017(cons'd)      0.03788         *
 * P              12      0.00000(cons'd)      0.28406(cons'd)      0.08418         *
 * In              1      0.00000(cons'd)      0.00064(cons'd)      0.05055         *
 * In              2      0.00000(cons'd)      0.00249(cons'd)      0.01382         *
 * In              3     -0.00000(cons'd)      0.00114(cons'd)      0.04313         *
 * In              4      0.00000(cons'd)      0.00085(cons'd)      0.05002         *
 * In              5     -0.00000(cons'd)      0.00069(cons'd)      0.05022         *
 * In              6     -0.00000(cons'd)      0.01311(cons'd)     -0.02994         *
 * In              7     -0.00000(cons'd)      0.00040(cons'd)      0.04672         *
 * In              8      0.00000(cons'd)      0.04320(cons'd)     -0.08665         *
 * In              9     -0.00000(cons'd)     -0.01020(cons'd)     -0.02385         *
 * In             10      0.00000(cons'd)     -0.08045(cons'd)     -0.05264         *
 * In             11     -0.00000(cons'd)      1.42607(cons'd)     -0.03164         *
 * In             12      0.00000(cons'd)     -0.00125(cons'd)      0.03063         *
 *                                                                                  *
 ************************************************************************************
 doing test perturbation to get energy scale for EXP preconditioner

                           -------------------------------
                                     Cell Contents
                           -------------------------------

            xxxxxxxxxxxxxxxxxxxxxxxxxxxxxxxxxxxxxxxxxxxxxxxxxxxxxxxxxxxxxxxxx
            x  Element         Atom        Fractional coordinates of atoms  x
            x                 Number           u          v          w      x
            x---------------------------------------------------------------x
            x  P                 1         0.505139   0.676069   0.376081   x
            x  P                 2         0.000000   0.101456   0.458825   x
            x  P                 3         0.000000   0.246269   0.293325   x
            x  P                 4         0.505139   0.531266   0.541569   x
            x  P                 5         0.000000   0.959822   0.624308   x
            x  P                 6         0.505139   0.820917   0.210540   x
            x  P                 7         0.505139   0.386486   0.707033   x
            x  P                 8         0.000000   0.815062   0.789749   x
            x  P                 9         0.000000   0.391093   0.127812   x
            x  P                10         0.505139   0.241742   0.872455   x
            x  P                11         0.000000   0.670985   0.954408   x
            x  P                12         0.505139   0.965967   0.044769   x
            x  In                1         0.505139   0.137651   0.417460   x
            x  In                2         0.505139   0.851152   0.748503   x
            x  In                3         0.000000   0.422650   0.665702   x
            x  In                4         0.505139   0.996013   0.582947   x
            x  In                5         0.000000   0.567461   0.500204   x
            x  In                6         0.000000   0.277724   0.831332   x
            x  In                7         0.000000   0.712258   0.334721   x
            x  In                8         0.505139   0.706053   0.914331   x
            x  In                9         0.000000   0.856934   0.169378   x
            x  In               10         0.505139   0.427094   0.086668   x
            x  In               11         0.000000   1.001768   0.003853   x
            x  In               12         0.505139   0.282427   0.252001   x
            xxxxxxxxxxxxxxxxxxxxxxxxxxxxxxxxxxxxxxxxxxxxxxxxxxxxxxxxxxxxxxxxx


------------------------------------------------------------------------ <-- SCF
SCF loop      Energy           Fermi           Energy gain       Timer   <-- SCF
                               energy          per atom          (sec)   <-- SCF
------------------------------------------------------------------------ <-- SCF
Initial  -2.35776129E+004  0.00000000E+000                       941.20  <-- SCF
      1  -2.35789311E+004  3.54567631E+000   5.49242907E-002     980.66  <-- SCF
      2  -2.35791104E+004  3.54552875E+000   7.47013765E-003    1025.62  <-- SCF
      3  -2.35791124E+004  3.54499381E+000   8.42763947E-005    1062.46  <-- SCF
      4  -2.35791139E+004  3.54452025E+000   6.19561513E-005    1099.41  <-- SCF
      5  -2.35791140E+004  3.54429994E+000   6.53713436E-006    1142.26  <-- SCF
      6  -2.35791141E+004  3.54404145E+000   1.44085824E-006    1180.30  <-- SCF
      7  -2.35791141E+004  3.54386259E+000   3.55079416E-008    1215.19  <-- SCF
      8  -2.35791141E+004  3.54365161E+000  -8.98424871E-008    1246.90  <-- SCF
      9  -2.35791141E+004  3.54346690E+000  -9.37619196E-008    1277.68  <-- SCF
     10  -2.35791141E+004  3.54305556E+000  -1.32985891E-007    1308.86  <-- SCF
     11  -2.35791141E+004  3.54295450E+000  -1.87649902E-008    1338.63  <-- SCF
     12  -2.35791141E+004  3.54287781E+000  -1.37120198E-008    1368.77  <-- SCF
     13  -2.35791141E+004  3.54287480E+000  -4.17697270E-009    1397.94  <-- SCF
     14  -2.35791141E+004  3.54288378E+000  -1.69399090E-009    1426.80  <-- SCF
------------------------------------------------------------------------ <-- SCF
 
Final energy, E             =  -23579.11394161     eV
Final free energy (E-TS)    =  -23579.11406792     eV
(energies not corrected for finite basis set)
 
NB est. 0K energy (E-0.5TS)      =  -23579.11400477     eV
 

 ************************************** Forces **************************************
 *                                                                                  *
 *                           Cartesian components (eV/A)                            *
 * -------------------------------------------------------------------------------- *
 *                         x                    y                    z              *
 *                                                                                  *
 * P               1     -0.17979(cons'd)     -0.08015(cons'd)     -0.03757         *
 * P               2      0.18335(cons'd)      0.08181(cons'd)     -0.03867         *
 * P               3      0.18409(cons'd)      0.07620(cons'd)     -0.03908         *
 * P               4     -0.18140(cons'd)      0.02615(cons'd)     -0.04309         *
 * P               5      0.18354(cons'd)     -0.03919(cons'd)     -0.04434         *
 * P               6     -0.18589(cons'd)     -0.07228(cons'd)      0.00541         *
 * P               7     -0.18215(cons'd)      0.03340(cons'd)     -0.01932         *
 * P               8      0.18533(cons'd)     -0.02148(cons'd)      0.01947         *
 * P               9      0.18730(cons'd)      0.12247(cons'd)      0.02361         *
 * P              10     -0.18406(cons'd)      0.08595(cons'd)      0.07086         *
 * P              11      0.20439(cons'd)     -1.94712(cons'd)     -0.16738         *
 * P              12     -0.18315(cons'd)      0.23181(cons'd)      0.09762         *
 * In              1     -0.15543(cons'd)      0.06523(cons'd)      0.04358         *
 * In              2     -0.15736(cons'd)     -0.02684(cons'd)      0.00577         *
 * In              3      0.15354(cons'd)      0.02871(cons'd)      0.03528         *
 * In              4     -0.15552(cons'd)     -0.02593(cons'd)      0.04233         *
 * In              5      0.15295(cons'd)     -0.06608(cons'd)      0.04328         *
 * In              6      0.15681(cons'd)      0.03961(cons'd)     -0.03777         *
 * In              7      0.15311(cons'd)     -0.06675(cons'd)      0.03971         *
 * In              8     -0.17590(cons'd)      0.01257(cons'd)     -0.11041         *
 * In              9      0.15633(cons'd)     -0.07657(cons'd)     -0.03098         *
 * In             10     -0.15799(cons'd)     -0.02410(cons'd)     -0.05994         *
 * In             11      0.15405(cons'd)      1.57955(cons'd)      0.17803         *
 * In             12     -0.15615(cons'd)      0.06303(cons'd)      0.02361         *
 *                                                                                  *
 ************************************************************************************
 EXP precond LBFGS => estimated parameter mu :  4.841       eV/A**2
 LBFGS: finished iteration     0 with enthalpy= -2.35791476E+004 eV
  
 +-----------+-----------------+-----------------+------------+-----+ <-- LBFGS
 | Parameter |      value      |    tolerance    |    units   | OK? | <-- LBFGS
 +-----------+-----------------+-----------------+------------+-----+ <-- LBFGS
 |  dE/ion   |   0.000000E+000 |   2.000000E-005 |         eV | No  | <-- LBFGS
 |  |F|max   |   1.964961E+000 |   1.000000E-003 |       eV/A | No  | <-- LBFGS
 |  |dR|max  |   7.651107E-015 |   1.000000E-003 |          A | No  | <-- LBFGS
 +-----------+-----------------+-----------------+------------+-----+ <-- LBFGS
  

================================================================================
 Starting LBFGS iteration          1 ...
================================================================================
  
 +------------+-------------+-------------+-----------------+ <-- min LBFGS
 |    Step    |   lambda    |   F.delta'  |    enthalpy     | <-- min LBFGS
 +------------+-------------+-------------+-----------------+ <-- min LBFGS
 |  previous  |    0.000000 |    0.206809 |   -23579.147584 | <-- min LBFGS
 +------------+-------------+-------------+-----------------+ <-- min LBFGS
  

--------------------------------------------------------------------------------
 LBFGS: starting iteration         1 with trial guess (lambda=  1.000000)
--------------------------------------------------------------------------------

                           -------------------------------
                                     Cell Contents
                           -------------------------------

            xxxxxxxxxxxxxxxxxxxxxxxxxxxxxxxxxxxxxxxxxxxxxxxxxxxxxxxxxxxxxxxxx
            x  Element         Atom        Fractional coordinates of atoms  x
            x                 Number           u          v          w      x
            x---------------------------------------------------------------x
            x  P                 1         0.500000  -0.328796   0.375767   x
            x  P                 2         0.000000   0.098862   0.458444   x
            x  P                 3         0.000000   0.243580   0.293051   x
            x  P                 4         0.500000  -0.473467   0.541105   x
            x  P                 5         0.000000  -0.045827   0.623802   x
            x  P                 6         0.500000  -0.184070   0.210366   x
            x  P                 7         0.500000  -0.618221   0.706538   x
            x  P                 8         0.000000  -0.190584   0.789239   x
            x  P                 9         0.000000   0.388254   0.127710   x
            x  P                10         0.500000  -0.762932   0.871923   x
            x  P                11         0.000000  -0.334590   0.953817   x
            x  P                12         0.500000  -0.039278   0.044889   x
            x  In                1         0.500000   0.134912   0.417243   x
            x  In                2         0.500000  -0.154527   0.748031   x
            x  In                3         0.000000  -0.582149   0.665313   x
            x  In                4         0.500000  -0.009775   0.582600   x
            x  In                5         0.000000  -0.437427   0.499916   x
            x  In                6         0.000000  -0.726886   0.830727   x
            x  In                7         0.000000  -0.292731   0.334550   x
            x  In                8         0.500000  -0.299369   0.913564   x
            x  In                9         0.000000  -0.148039   0.169187   x
            x  In               10         0.500000   0.424285   0.086532   x
            x  In               11         0.000000  -0.003354   0.003833   x
            x  In               12         0.500000   0.279627   0.251854   x
            xxxxxxxxxxxxxxxxxxxxxxxxxxxxxxxxxxxxxxxxxxxxxxxxxxxxxxxxxxxxxxxxx


------------------------------------------------------------------------ <-- SCF
SCF loop      Energy           Fermi           Energy gain       Timer   <-- SCF
                               energy          per atom          (sec)   <-- SCF
------------------------------------------------------------------------ <-- SCF
Initial  -2.35774142E+004  0.00000000E+000                      1472.12  <-- SCF
      1  -2.35789648E+004  3.55052936E+000   6.46064342E-002    1512.98  <-- SCF
      2  -2.35791454E+004  3.55038397E+000   7.52708918E-003    1556.12  <-- SCF
      3  -2.35791474E+004  3.55106292E+000   8.04780937E-005    1595.54  <-- SCF
      4  -2.35791488E+004  3.55135315E+000   5.97739824E-005    1636.90  <-- SCF
      5  -2.35791489E+004  3.55127641E+000   6.35936547E-006    1685.41  <-- SCF
      6  -2.35791490E+004  3.55121838E+000   1.17822481E-006    1727.94  <-- SCF
      7  -2.35791490E+004  3.55117214E+000  -2.07523424E-007    1762.40  <-- SCF
      8  -2.35791490E+004  3.55101015E+000  -5.25707172E-007    1795.86  <-- SCF
      9  -2.35791489E+004  3.55074377E+000  -5.16348716E-007    1827.48  <-- SCF
     10  -2.35791489E+004  3.55018568E+000  -3.94240356E-007    1861.70  <-- SCF
     11  -2.35791489E+004  3.55005682E+000  -8.37431145E-009    1893.67  <-- SCF
     12  -2.35791489E+004  3.54997398E+000  -2.63070007E-009    1924.29  <-- SCF
     13  -2.35791489E+004  3.54993338E+000  -9.60813285E-010    1954.12  <-- SCF
------------------------------------------------------------------------ <-- SCF
 
Final energy, E             =  -23579.14878962     eV
Final free energy (E-TS)    =  -23579.14892890     eV
(energies not corrected for finite basis set)
 
NB est. 0K energy (E-0.5TS)      =  -23579.14885926     eV
 

 ******************************** Constrained Forces ********************************
 *                                                                                  *
 *                           Cartesian components (eV/A)                            *
 * -------------------------------------------------------------------------------- *
 *                         x                    y                    z              *
 *                                                                                  *
 * P               1      0.00000(cons'd)      0.00000(cons'd)     -0.00089         *
 * P               2      0.00000(cons'd)      0.00000(cons'd)     -0.00202         *
 * P               3      0.00000(cons'd)      0.00000(cons'd)     -0.00091         *
 * P               4     -0.00000(cons'd)      0.00000(cons'd)     -0.00288         *
 * P               5      0.00000(cons'd)      0.00000(cons'd)     -0.00174         *
 * P               6      0.00000(cons'd)      0.00000(cons'd)     -0.00172         *
 * P               7      0.00000(cons'd)      0.00000(cons'd)      0.00024         *
 * P               8      0.00000(cons'd)     -0.00000(cons'd)      0.00009         *
 * P               9      0.00000(cons'd)      0.00000(cons'd)     -0.00519         *
 * P              10      0.00000(cons'd)      0.00000(cons'd)     -0.00358         *
 * P              11      0.00000(cons'd)      0.00000(cons'd)     -0.00658         *
 * P              12     -0.00000(cons'd)     -0.00000(cons'd)      0.00953         *
 * In              1     -0.00000(cons'd)      0.00000(cons'd)      0.00312         *
 * In              2      0.00000(cons'd)      0.00000(cons'd)      0.00211         *
 * In              3      0.00000(cons'd)      0.00000(cons'd)      0.00208         *
 * In              4      0.00000(cons'd)      0.00000(cons'd)      0.00112         *
 * In              5      0.00000(cons'd)     -0.00000(cons'd)      0.00204         *
 * In              6      0.00000(cons'd)      0.00000(cons'd)      0.00055         *
 * In              7      0.00000(cons'd)      0.00000(cons'd)      0.00202         *
 * In              8      0.00000(cons'd)      0.00000(cons'd)     -0.00379         *
 * In              9      0.00000(cons'd)      0.00000(cons'd)     -0.00152         *
 * In             10      0.00000(cons'd)      0.00000(cons'd)      0.00216         *
 * In             11      0.00000(cons'd)      0.00000(cons'd)      0.00468         *
 * In             12      0.00000(cons'd)      0.00000(cons'd)      0.00109         *
 *                                                                                  *
 ************************************************************************************
  
 +------------+-------------+-------------+-----------------+ <-- min LBFGS
 |    Step    |   lambda    |   F.delta'  |    enthalpy     | <-- min LBFGS
 +------------+-------------+-------------+-----------------+ <-- min LBFGS
 |  previous  |    0.000000 |    0.206809 |   -23579.147584 | <-- min LBFGS
 | trial step |    1.000000 |    0.009192 |   -23579.148929 | <-- min LBFGS
 +------------+-------------+-------------+-----------------+ <-- min LBFGS
  
 LBFGS: finished iteration     1 with enthalpy= -2.35791489E+004 eV
  
 +-----------+-----------------+-----------------+------------+-----+ <-- LBFGS
 | Parameter |      value      |    tolerance    |    units   | OK? | <-- LBFGS
 +-----------+-----------------+-----------------+------------+-----+ <-- LBFGS
 |  dE/ion   |   5.603617E-005 |   2.000000E-005 |         eV | No  | <-- LBFGS
 |  |F|max   |   9.534617E-003 |   1.000000E-003 |       eV/A | No  | <-- LBFGS
 |  |dR|max  |   6.232988E-003 |   1.000000E-003 |          A | No  | <-- LBFGS
 +-----------+-----------------+-----------------+------------+-----+ <-- LBFGS
  

================================================================================
 Starting LBFGS iteration          2 ...
================================================================================
  
 +------------+-------------+-------------+-----------------+ <-- min LBFGS
 |    Step    |   lambda    |   F.delta'  |    enthalpy     | <-- min LBFGS
 +------------+-------------+-------------+-----------------+ <-- min LBFGS
 |  previous  |    0.000000 |    0.013667 |   -23579.148929 | <-- min LBFGS
 +------------+-------------+-------------+-----------------+ <-- min LBFGS
  

--------------------------------------------------------------------------------
 LBFGS: starting iteration         2 with trial guess (lambda=  1.000000)
--------------------------------------------------------------------------------

                           -------------------------------
                                     Cell Contents
                           -------------------------------

            xxxxxxxxxxxxxxxxxxxxxxxxxxxxxxxxxxxxxxxxxxxxxxxxxxxxxxxxxxxxxxxxx
            x  Element         Atom        Fractional coordinates of atoms  x
            x                 Number           u          v          w      x
            x---------------------------------------------------------------x
            x  P                 1         0.500000  -0.328801   0.375773   x
            x  P                 2         0.000000   0.098860   0.458446   x
            x  P                 3         0.000000   0.243579   0.293052   x
            x  P                 4         0.500000  -0.473463   0.541101   x
            x  P                 5         0.000000  -0.045826   0.623801   x
            x  P                 6         0.500000  -0.184064   0.210359   x
            x  P                 7         0.500000  -0.618224   0.706542   x
            x  P                 8         0.000000  -0.190580   0.789234   x
            x  P                 9         0.000000   0.388261   0.127702   x
            x  P                10         0.500000  -0.762910   0.871897   x
            x  P                11         0.000000  -0.334574   0.953799   x
            x  P                12         0.500000  -0.039307   0.044923   x
            x  In                1         0.500000   0.134901   0.417255   x
            x  In                2         0.500000  -0.154531   0.748035   x
            x  In                3         0.000000  -0.582155   0.665320   x
            x  In                4         0.500000  -0.009777   0.582602   x
            x  In                5         0.000000  -0.437432   0.499922   x
            x  In                6         0.000000  -0.726874   0.830714   x
            x  In                7         0.000000  -0.292740   0.334560   x
            x  In                8         0.500000  -0.299345   0.913537   x
            x  In                9         0.000000  -0.148032   0.169179   x
            x  In               10         0.500000   0.424272   0.086546   x
            x  In               11         0.000000  -0.003365   0.003846   x
            x  In               12         0.500000   0.279626   0.251855   x
            xxxxxxxxxxxxxxxxxxxxxxxxxxxxxxxxxxxxxxxxxxxxxxxxxxxxxxxxxxxxxxxxx


------------------------------------------------------------------------ <-- SCF
SCF loop      Energy           Fermi           Energy gain       Timer   <-- SCF
                               energy          per atom          (sec)   <-- SCF
------------------------------------------------------------------------ <-- SCF
Initial  -2.35791487E+004  0.00000000E+000                      2000.19  <-- SCF
      1  -2.35791489E+004  3.55041316E+000   8.63342464E-006    2039.10  <-- SCF
      2  -2.35791489E+004  3.55041310E+000   1.65318147E-006    2083.57  <-- SCF
      3  -2.35791489E+004  3.55040707E+000   1.17746676E-008    2112.61  <-- SCF
      4  -2.35791489E+004  3.55038936E+000   1.09036969E-008    2144.25  <-- SCF
      5  -2.35791489E+004  3.55038287E+000   1.18767556E-009    2171.13  <-- SCF
      6  -2.35791489E+004  3.55037673E+000  -1.36632960E-010    2197.51  <-- SCF
------------------------------------------------------------------------ <-- SCF
 
Final energy, E             =  -23579.14880535     eV
Final free energy (E-TS)    =  -23579.14894574     eV
(energies not corrected for finite basis set)
 
NB est. 0K energy (E-0.5TS)      =  -23579.14887554     eV
 

 ******************************** Constrained Forces ********************************
 *                                                                                  *
 *                           Cartesian components (eV/A)                            *
 * -------------------------------------------------------------------------------- *
 *                         x                    y                    z              *
 *                                                                                  *
 * P               1     -0.00000(cons'd)      0.00000(cons'd)      0.00044         *
 * P               2      0.00000(cons'd)      0.00000(cons'd)      0.00022         *
 * P               3      0.00000(cons'd)     -0.00000(cons'd)      0.00033         *
 * P               4     -0.00000(cons'd)      0.00000(cons'd)     -0.00012         *
 * P               5      0.00000(cons'd)      0.00000(cons'd)      0.00009         *
 * P               6      0.00000(cons'd)     -0.00000(cons'd)     -0.00049         *
 * P               7     -0.00000(cons'd)      0.00000(cons'd)      0.00038         *
 * P               8      0.00000(cons'd)     -0.00000(cons'd)     -0.00006         *
 * P               9      0.00000(cons'd)     -0.00000(cons'd)     -0.00077         *
 * P              10      0.00000(cons'd)      0.00000(cons'd)     -0.00142         *
 * P              11      0.00000(cons'd)      0.00000(cons'd)      0.00056         *
 * P              12      0.00000(cons'd)     -0.00000(cons'd)      0.00116         *
 * In              1      0.00000(cons'd)     -0.00000(cons'd)     -0.00033         *
 * In              2      0.00000(cons'd)      0.00000(cons'd)      0.00033         *
 * In              3      0.00000(cons'd)      0.00000(cons'd)     -0.00025         *
 * In              4      0.00000(cons'd)      0.00000(cons'd)     -0.00037         *
 * In              5      0.00000(cons'd)     -0.00000(cons'd)     -0.00037         *
 * In              6      0.00000(cons'd)      0.00000(cons'd)      0.00051         *
 * In              7      0.00000(cons'd)      0.00000(cons'd)     -0.00030         *
 * In              8      0.00000(cons'd)      0.00000(cons'd)      0.00056         *
 * In              9      0.00000(cons'd)      0.00000(cons'd)      0.00039         *
 * In             10      0.00000(cons'd)      0.00000(cons'd)      0.00077         *
 * In             11      0.00000(cons'd)      0.00000(cons'd)     -0.00116         *
 * In             12      0.00000(cons'd)      0.00000(cons'd)     -0.00012         *
 *                                                                                  *
 ************************************************************************************
  
 +------------+-------------+-------------+-----------------+ <-- min LBFGS
 |    Step    |   lambda    |   F.delta'  |    enthalpy     | <-- min LBFGS
 +------------+-------------+-------------+-----------------+ <-- min LBFGS
 |  previous  |    0.000000 |    0.013667 |   -23579.148929 | <-- min LBFGS
 | trial step |    1.000000 |    0.000606 |   -23579.148946 | <-- min LBFGS
 +------------+-------------+-------------+-----------------+ <-- min LBFGS
  
 LBFGS: finished iteration     2 with enthalpy= -2.35791489E+004 eV
  
 +-----------+-----------------+-----------------+------------+-----+ <-- LBFGS
 | Parameter |      value      |    tolerance    |    units   | OK? | <-- LBFGS
 +-----------+-----------------+-----------------+------------+-----+ <-- LBFGS
 |  dE/ion   |   7.014201E-007 |   2.000000E-005 |         eV | Yes | <-- LBFGS
 |  |F|max   |   1.417868E-003 |   1.000000E-003 |       eV/A | No  | <-- LBFGS
 |  |dR|max  |   1.183692E-003 |   1.000000E-003 |          A | No  | <-- LBFGS
 +-----------+-----------------+-----------------+------------+-----+ <-- LBFGS
  

================================================================================
 Starting LBFGS iteration          3 ...
================================================================================
  
 +------------+-------------+-------------+-----------------+ <-- min LBFGS
 |    Step    |   lambda    |   F.delta'  |    enthalpy     | <-- min LBFGS
 +------------+-------------+-------------+-----------------+ <-- min LBFGS
 |  previous  |    0.000000 |    0.001846 |   -23579.148946 | <-- min LBFGS
 +------------+-------------+-------------+-----------------+ <-- min LBFGS
  

--------------------------------------------------------------------------------
 LBFGS: starting iteration         3 with trial guess (lambda=  1.000000)
--------------------------------------------------------------------------------

                           -------------------------------
                                     Cell Contents
                           -------------------------------

            xxxxxxxxxxxxxxxxxxxxxxxxxxxxxxxxxxxxxxxxxxxxxxxxxxxxxxxxxxxxxxxxx
            x  Element         Atom        Fractional coordinates of atoms  x
            x                 Number           u          v          w      x
            x---------------------------------------------------------------x
            x  P                 1         0.500000  -0.328801   0.375772   x
            x  P                 2         0.000000   0.098861   0.458444   x
            x  P                 3         0.000000   0.243579   0.293052   x
            x  P                 4         0.500000  -0.473461   0.541098   x
            x  P                 5         0.000000  -0.045825   0.623800   x
            x  P                 6         0.500000  -0.184063   0.210358   x
            x  P                 7         0.500000  -0.618225   0.706543   x
            x  P                 8         0.000000  -0.190580   0.789234   x
            x  P                 9         0.000000   0.388260   0.127702   x
            x  P                10         0.500000  -0.762908   0.871895   x
            x  P                11         0.000000  -0.334576   0.953801   x
            x  P                12         0.500000  -0.039312   0.044928   x
            x  In                1         0.500000   0.134903   0.417254   x
            x  In                2         0.500000  -0.154532   0.748037   x
            x  In                3         0.000000  -0.582154   0.665319   x
            x  In                4         0.500000  -0.009775   0.582600   x
            x  In                5         0.000000  -0.437430   0.499920   x
            x  In                6         0.000000  -0.726875   0.830714   x
            x  In                7         0.000000  -0.292739   0.334559   x
            x  In                8         0.500000  -0.299346   0.913538   x
            x  In                9         0.000000  -0.148033   0.169180   x
            x  In               10         0.500000   0.424268   0.086551   x
            x  In               11         0.000000  -0.003366   0.003847   x
            x  In               12         0.500000   0.279627   0.251855   x
            xxxxxxxxxxxxxxxxxxxxxxxxxxxxxxxxxxxxxxxxxxxxxxxxxxxxxxxxxxxxxxxxx


------------------------------------------------------------------------ <-- SCF
SCF loop      Energy           Fermi           Energy gain       Timer   <-- SCF
                               energy          per atom          (sec)   <-- SCF
------------------------------------------------------------------------ <-- SCF
Initial  -2.35791489E+004  0.00000000E+000                      2243.40  <-- SCF
      1  -2.35791489E+004  3.55036626E+000   1.86100704E-006    2284.20  <-- SCF
      2  -2.35791489E+004  3.55036626E+000   3.95852753E-008    2318.68  <-- SCF
      3  -2.35791489E+004  3.55035004E+000   9.07706890E-010    2344.99  <-- SCF
      4  -2.35791489E+004  3.55032977E+000   2.32276032E-010    2372.05  <-- SCF
------------------------------------------------------------------------ <-- SCF
 
Final energy, E             =  -23579.14880587     eV
Final free energy (E-TS)    =  -23579.14894608     eV
(energies not corrected for finite basis set)
 
NB est. 0K energy (E-0.5TS)      =  -23579.14887597     eV
 

 ******************************** Constrained Forces ********************************
 *                                                                                  *
 *                           Cartesian components (eV/A)                            *
 * -------------------------------------------------------------------------------- *
 *                         x                    y                    z              *
 *                                                                                  *
 * P               1      0.00000(cons'd)      0.00000(cons'd)      0.00009         *
 * P               2      0.00000(cons'd)      0.00000(cons'd)     -0.00003         *
 * P               3      0.00000(cons'd)      0.00000(cons'd)      0.00005         *
 * P               4      0.00000(cons'd)      0.00000(cons'd)     -0.00016         *
 * P               5      0.00000(cons'd)     -0.00000(cons'd)     -0.00006         *
 * P               6      0.00000(cons'd)     -0.00000(cons'd)     -0.00012         *
 * P               7     -0.00000(cons'd)      0.00000(cons'd)      0.00010         *
 * P               8      0.00000(cons'd)     -0.00000(cons'd)      0.00002         *
 * P               9      0.00000(cons'd)      0.00000(cons'd)      0.00009         *
 * P              10      0.00000(cons'd)      0.00000(cons'd)     -0.00038         *
 * P              11      0.00000(cons'd)      0.00000(cons'd)     -0.00010         *
 * P              12     -0.00000(cons'd)      0.00000(cons'd)      0.00036         *
 * In              1      0.00000(cons'd)      0.00000(cons'd)      0.00054         *
 * In              2      0.00000(cons'd)      0.00000(cons'd)     -0.00031         *
 * In              3      0.00000(cons'd)      0.00000(cons'd)      0.00049         *
 * In              4      0.00000(cons'd)      0.00000(cons'd)      0.00022         *
 * In              5      0.00000(cons'd)      0.00000(cons'd)      0.00031         *
 * In              6      0.00000(cons'd)      0.00000(cons'd)     -0.00061         *
 * In              7      0.00000(cons'd)      0.00000(cons'd)      0.00059         *
 * In              8      0.00000(cons'd)      0.00000(cons'd)     -0.00088         *
 * In              9      0.00000(cons'd)      0.00000(cons'd)     -0.00054         *
 * In             10      0.00000(cons'd)      0.00000(cons'd)     -0.00004         *
 * In             11      0.00000(cons'd)      0.00000(cons'd)      0.00017         *
 * In             12      0.00000(cons'd)      0.00000(cons'd)      0.00022         *
 *                                                                                  *
 ************************************************************************************
  
 +------------+-------------+-------------+-----------------+ <-- min LBFGS
 |    Step    |   lambda    |   F.delta'  |    enthalpy     | <-- min LBFGS
 +------------+-------------+-------------+-----------------+ <-- min LBFGS
 |  previous  |    0.000000 |    0.001846 |   -23579.148946 | <-- min LBFGS
 | trial step |    1.000000 |   -0.000175 |   -23579.148946 | <-- min LBFGS
 +------------+-------------+-------------+-----------------+ <-- min LBFGS
  
 LBFGS: finished iteration     3 with enthalpy= -2.35791489E+004 eV
  
 +-----------+-----------------+-----------------+------------+-----+ <-- LBFGS
 | Parameter |      value      |    tolerance    |    units   | OK? | <-- LBFGS
 +-----------+-----------------+-----------------+------------+-----+ <-- LBFGS
 |  dE/ion   |   1.419101E-008 |   2.000000E-005 |         eV | Yes | <-- LBFGS
 |  |F|max   |   8.836366E-004 |   1.000000E-003 |       eV/A | Yes | <-- LBFGS
 |  |dR|max  |   1.979951E-004 |   1.000000E-003 |          A | Yes | <-- LBFGS
 +-----------+-----------------+-----------------+------------+-----+ <-- LBFGS
  
 Hirshfeld supercell size:           4           4           1
Standard grid dimensions: 180 180 360
Fine grid dimensions:     180 180 360

 LBFGS: Geometry optimization completed successfully.

================================================================================
 LBFGS: Final Configuration:
================================================================================

                           -------------------------------
                                     Cell Contents
                           -------------------------------

            xxxxxxxxxxxxxxxxxxxxxxxxxxxxxxxxxxxxxxxxxxxxxxxxxxxxxxxxxxxxxxxxx
            x  Element         Atom        Fractional coordinates of atoms  x
            x                 Number           u          v          w      x
            x---------------------------------------------------------------x
            x  P                 1         0.500000  -0.328801   0.375772   x
            x  P                 2         0.000000   0.098861   0.458444   x
            x  P                 3         0.000000   0.243579   0.293052   x
            x  P                 4         0.500000  -0.473461   0.541098   x
            x  P                 5         0.000000  -0.045825   0.623800   x
            x  P                 6         0.500000  -0.184063   0.210358   x
            x  P                 7         0.500000  -0.618225   0.706543   x
            x  P                 8         0.000000  -0.190580   0.789234   x
            x  P                 9         0.000000   0.388260   0.127702   x
            x  P                10         0.500000  -0.762908   0.871895   x
            x  P                11         0.000000  -0.334576   0.953801   x
            x  P                12         0.500000  -0.039312   0.044928   x
            x  In                1         0.500000   0.134903   0.417254   x
            x  In                2         0.500000  -0.154532   0.748037   x
            x  In                3         0.000000  -0.582154   0.665319   x
            x  In                4         0.500000  -0.009775   0.582600   x
            x  In                5         0.000000  -0.437430   0.499920   x
            x  In                6         0.000000  -0.726875   0.830714   x
            x  In                7         0.000000  -0.292739   0.334559   x
            x  In                8         0.500000  -0.299346   0.913538   x
            x  In                9         0.000000  -0.148033   0.169180   x
            x  In               10         0.500000   0.424268   0.086551   x
            x  In               11         0.000000  -0.003366   0.003847   x
            x  In               12         0.500000   0.279627   0.251855   x
            xxxxxxxxxxxxxxxxxxxxxxxxxxxxxxxxxxxxxxxxxxxxxxxxxxxxxxxxxxxxxxxxx


 LBFGS: Final Enthalpy     = -2.35791489E+004 eV
 LBFGS: Final <frequency>  =     198.93539 cm-1

 ******************* Unconstrained Forces *******************
 *                                                          *
 *               Cartesian components (eV/A)                *
 * -------------------------------------------------------- *
 *                         x            y            z      *
 *                                                          *
 * P               1      0.00000     -0.00583      0.00009 *
 * P               2     -0.00000     -0.00063     -0.00003 *
 * P               3     -0.00000      0.00099      0.00005 *
 * P               4      0.00000      0.00329     -0.00016 *
 * P               5     -0.00000      0.00021     -0.00006 *
 * P               6      0.00000      0.00950     -0.00012 *
 * P               7      0.00000     -0.00488      0.00010 *
 * P               8     -0.00000      0.00312      0.00002 *
 * P               9     -0.00000      0.03888      0.00009 *
 * P              10      0.00000      0.05522     -0.00038 *
 * P              11     -0.00000     -1.78217     -0.00010 *
 * P              12      0.00000      0.28138      0.00036 *
 * In              1      0.00000      0.00066      0.00054 *
 * In              2      0.00000      0.00253     -0.00031 *
 * In              3     -0.00000      0.00117      0.00049 *
 * In              4      0.00000      0.00086      0.00022 *
 * In              5     -0.00000      0.00071      0.00031 *
 * In              6     -0.00000      0.01321     -0.00061 *
 * In              7     -0.00000      0.00042      0.00059 *
 * In              8      0.00000      0.04463     -0.00088 *
 * In              9     -0.00000     -0.01014     -0.00054 *
 * In             10      0.00000     -0.07973     -0.00004 *
 * In             11     -0.00000      1.42783      0.00017 *
 * In             12      0.00000     -0.00124      0.00022 *
 *                                                          *
 ************************************************************

 ******************************** Constrained Forces ********************************
 *                                                                                  *
 *                           Cartesian components (eV/A)                            *
 * -------------------------------------------------------------------------------- *
 *                         x                    y                    z              *
 *                                                                                  *
 * P               1     -0.00000(cons'd)      0.00000(cons'd)      0.00009         *
 * P               2      0.00000(cons'd)      0.00000(cons'd)     -0.00003         *
 * P               3      0.00000(cons'd)     -0.00000(cons'd)      0.00005         *
 * P               4     -0.00000(cons'd)     -0.00000(cons'd)     -0.00016         *
 * P               5      0.00000(cons'd)      0.00000(cons'd)     -0.00006         *
 * P               6     -0.00000(cons'd)     -0.00000(cons'd)     -0.00012         *
 * P               7     -0.00000(cons'd)      0.00000(cons'd)      0.00010         *
 * P               8      0.00000(cons'd)     -0.00000(cons'd)      0.00002         *
 * P               9      0.00000(cons'd)     -0.00000(cons'd)      0.00009         *
 * P              10     -0.00000(cons'd)     -0.00000(cons'd)     -0.00038         *
 * P              11      0.00000(cons'd)      0.00000(cons'd)     -0.00010         *
 * P              12     -0.00000(cons'd)      0.00000(cons'd)      0.00036         *
 * In              1      0.00000(cons'd)      0.00000(cons'd)      0.00054         *
 * In              2      0.00000(cons'd)      0.00000(cons'd)     -0.00031         *
 * In              3      0.00000(cons'd)      0.00000(cons'd)      0.00049         *
 * In              4      0.00000(cons'd)      0.00000(cons'd)      0.00022         *
 * In              5      0.00000(cons'd)      0.00000(cons'd)      0.00031         *
 * In              6      0.00000(cons'd)      0.00000(cons'd)     -0.00061         *
 * In              7      0.00000(cons'd)      0.00000(cons'd)      0.00059         *
 * In              8      0.00000(cons'd)      0.00000(cons'd)     -0.00088         *
 * In              9      0.00000(cons'd)      0.00000(cons'd)     -0.00054         *
 * In             10      0.00000(cons'd)      0.00000(cons'd)     -0.00004         *
 * In             11      0.00000(cons'd)      0.00000(cons'd)      0.00017         *
 * In             12      0.00000(cons'd)      0.00000(cons'd)      0.00022         *
 *                                                                                  *
 ************************************************************************************

 Pseudo atomic calculation performed for P 3s2 3p3

 Converged in 23 iterations to a total energy of -208.0292 eV

 Pseudo atomic calculation performed for In 4d10 5s2 5p1

 Converged in 42 iterations to a total energy of -1747.4501 eV
Charge spilling parameter for spin component 1 = 0.16%

            Orbital Populations       
     Ion    Atom   Orbital             Charge
  -------------------------------------------
      P     1      S                    1.733
      P     1      Px                   1.310
      P     1      Py                   1.318
      P     1      Pz                   1.316
      P     2      S                    1.733
      P     2      Px                   1.310
      P     2      Py                   1.318
      P     2      Pz                   1.316
      P     3      S                    1.733
      P     3      Px                   1.309
      P     3      Py                   1.318
      P     3      Pz                   1.316
      P     4      S                    1.733
      P     4      Px                   1.309
      P     4      Py                   1.319
      P     4      Pz                   1.316
      P     5      S                    1.733
      P     5      Px                   1.309
      P     5      Py                   1.319
      P     5      Pz                   1.316
      P     6      S                    1.733
      P     6      Px                   1.310
      P     6      Py                   1.318
      P     6      Pz                   1.316
      P     7      S                    1.733
      P     7      Px                   1.309
      P     7      Py                   1.319
      P     7      Pz                   1.316
      P     8      S                    1.733
      P     8      Px                   1.309
      P     8      Py                   1.318
      P     8      Pz                   1.316
      P     9      S                    1.733
      P     9      Px                   1.310
      P     9      Py                   1.318
      P     9      Pz                   1.316
      P    10      S                    1.734
      P    10      Px                   1.308
      P    10      Py                   1.316
      P    10      Pz                   1.316
      P    11      S                    1.736
      P    11      Px                   1.305
      P    11      Py                   1.363
      P    11      Pz                   1.281
      P    12      S                    1.737
      P    12      Px                   1.307
      P    12      Py                   1.315
      P    12      Pz                   1.321
     In     1      Dzz                  1.999
     In     1      Dzy                  1.997
     In     1      Dzx                  1.997
     In     1      Dxx-yy               1.997
     In     1      Dxy                  1.999
     In     1      S                    1.427
     In     1      Px                   0.487
     In     1      Py                   0.480
     In     1      Pz                   0.480
     In     1      S                   -0.541
     In     2      Dzz                  1.999
     In     2      Dzy                  1.997
     In     2      Dzx                  1.997
     In     2      Dxx-yy               1.997
     In     2      Dxy                  1.999
     In     2      S                    1.424
     In     2      Px                   0.486
     In     2      Py                   0.479
     In     2      Pz                   0.479
     In     2      S                   -0.539
     In     3      Dzz                  1.999
     In     3      Dzy                  1.997
     In     3      Dzx                  1.997
     In     3      Dxx-yy               1.997
     In     3      Dxy                  1.999
     In     3      S                    1.424
     In     3      Px                   0.486
     In     3      Py                   0.480
     In     3      Pz                   0.480
     In     3      S                   -0.539
     In     4      Dzz                  1.999
     In     4      Dzy                  1.997
     In     4      Dzx                  1.997
     In     4      Dxx-yy               1.997
     In     4      Dxy                  1.999
     In     4      S                    1.426
     In     4      Px                   0.486
     In     4      Py                   0.480
     In     4      Pz                   0.480
     In     4      S                   -0.541
     In     5      Dzz                  1.999
     In     5      Dzy                  1.997
     In     5      Dzx                  1.997
     In     5      Dxx-yy               1.997
     In     5      Dxy                  1.999
     In     5      S                    1.427
     In     5      Px                   0.487
     In     5      Py                   0.480
     In     5      Pz                   0.480
     In     5      S                   -0.542
     In     6      Dzz                  1.999
     In     6      Dzy                  1.997
     In     6      Dzx                  1.997
     In     6      Dxx-yy               1.997
     In     6      Dxy                  1.999
     In     6      S                    1.422
     In     6      Px                   0.487
     In     6      Py                   0.480
     In     6      Pz                   0.480
     In     6      S                   -0.536
     In     7      Dzz                  1.999
     In     7      Dzy                  1.997
     In     7      Dzx                  1.997
     In     7      Dxx-yy               1.997
     In     7      Dxy                  1.999
     In     7      S                    1.427
     In     7      Px                   0.486
     In     7      Py                   0.480
     In     7      Pz                   0.480
     In     7      S                   -0.541
     In     8      Dzz                  1.999
     In     8      Dzy                  1.997
     In     8      Dzx                  1.997
     In     8      Dxx-yy               1.997
     In     8      Dxy                  1.999
     In     8      S                    1.434
     In     8      Px                   0.477
     In     8      Py                   0.485
     In     8      Pz                   0.481
     In     8      S                   -0.533
     In     9      Dzz                  1.999
     In     9      Dzy                  1.997
     In     9      Dzx                  1.997
     In     9      Dxx-yy               1.997
     In     9      Dxy                  1.999
     In     9      S                    1.424
     In     9      Px                   0.486
     In     9      Py                   0.480
     In     9      Pz                   0.479
     In     9      S                   -0.541
     In    10      Dzz                  1.999
     In    10      Dzy                  1.997
     In    10      Dzx                  1.997
     In    10      Dxx-yy               1.997
     In    10      Dxy                  1.999
     In    10      S                    1.424
     In    10      Px                   0.485
     In    10      Py                   0.479
     In    10      Pz                   0.476
     In    10      S                   -0.524
     In    11      Dzz                  1.998
     In    11      Dzy                  1.996
     In    11      Dzx                  1.997
     In    11      Dxx-yy               1.997
     In    11      Dxy                  1.999
     In    11      S                    1.449
     In    11      Px                   0.462
     In    11      Py                   0.451
     In    11      Pz                   0.504
     In    11      S                   -0.525
     In    12      Dzz                  1.999
     In    12      Dzy                  1.997
     In    12      Dzx                  1.997
     In    12      Dxx-yy               1.997
     In    12      Dxy                  1.999
     In    12      S                    1.424
     In    12      Px                   0.486
     In    12      Py                   0.480
     In    12      Pz                   0.480
     In    12      S                   -0.540
  -------------------------------------------
                           Total:     216.000
  -------------------------------------------

     Atomic Populations (Mulliken)
     -----------------------------
Species          Ion     s       p       d       f      Total   Charge (e)
==========================================================================
  P               1     1.733   3.944   0.000   0.000   5.677    -0.677
  P               2     1.733   3.944   0.000   0.000   5.677    -0.677
  P               3     1.733   3.944   0.000   0.000   5.676    -0.676
  P               4     1.733   3.944   0.000   0.000   5.677    -0.677
  P               5     1.733   3.944   0.000   0.000   5.676    -0.676
  P               6     1.733   3.944   0.000   0.000   5.676    -0.676
  P               7     1.733   3.944   0.000   0.000   5.676    -0.676
  P               8     1.733   3.944   0.000   0.000   5.676    -0.676
  P               9     1.733   3.944   0.000   0.000   5.677    -0.677
  P              10     1.734   3.940   0.000   0.000   5.674    -0.674
  P              11     1.736   3.949   0.000   0.000   5.685    -0.685
  P              12     1.737   3.943   0.000   0.000   5.680    -0.680
  In              1     0.886   1.447   9.989   0.000  12.322     0.678
  In              2     0.885   1.445   9.989   0.000  12.319     0.681
  In              3     0.886   1.446   9.989   0.000  12.321     0.679
  In              4     0.886   1.447   9.989   0.000  12.321     0.679
  In              5     0.886   1.447   9.989   0.000  12.322     0.678
  In              6     0.886   1.447   9.989   0.000  12.322     0.678
  In              7     0.886   1.446   9.989   0.000  12.321     0.679
  In              8     0.901   1.443   9.989   0.000  12.332     0.668
  In              9     0.883   1.444   9.989   0.000  12.316     0.684
  In             10     0.899   1.440   9.989   0.000  12.328     0.672
  In             11     0.924   1.418   9.988   0.000  12.330     0.670
  In             12     0.884   1.446   9.989   0.000  12.319     0.681
==========================================================================

                 Bond                   Population      Length (A)
======================================================================
              P 11 -- In 11                  1.03        2.36404
              P 11 -- In 8                   1.25        2.52695
              P 12 -- In 11                  1.14        2.54342
              P 9  -- In 10                  1.19        2.54484
              P 6  -- In 9                   1.19        2.54538
              P 4  -- In 5                   1.18        2.54538
              P 10 -- In 6                   1.18        2.54543
              P 2  -- In 1                   1.18        2.54562
              P 3  -- In 12                  1.18        2.54576
              P 8  -- In 2                   1.19        2.54578
              P 5  -- In 4                   1.18        2.54583
              P 1  -- In 7                   1.18        2.54610
              P 7  -- In 3                   1.17        2.54630
              P 2  -- In 5                   1.15        2.55143
              P 9  -- In 9                   1.14        2.55147
              P 8  -- In 6                   1.15        2.55151
              P 1  -- In 1                   1.15        2.55154
              P 7  -- In 2                   1.16        2.55180
              P 6  -- In 12                  1.14        2.55186
              P 4  -- In 4                   1.15        2.55195
              P 3  -- In 7                   1.15        2.55206
              P 5  -- In 3                   1.15        2.55232
              P 12 -- In 10                  1.14        2.55442
              P 10 -- In 8                   1.15        2.55484
======================================================================

 Hirshfeld supercell size:           4           4           1
Standard grid dimensions: 180 180 360
Fine grid dimensions:     180 180 360


     Hirshfeld Analysis
     ------------------
Species   Ion     Hirshfeld Charge (e)
======================================
  P        1                -0.24
  P        2                -0.24
  P        3                -0.24
  P        4                -0.24
  P        5                -0.24
  P        6                -0.24
  P        7                -0.24
  P        8                -0.24
  P        9                -0.24
  P       10                -0.24
  P       11                -0.26
  P       12                -0.23
  In       1                 0.24
  In       2                 0.24
  In       3                 0.24
  In       4                 0.24
  In       5                 0.24
  In       6                 0.24
  In       7                 0.24
  In       8                 0.24
  In       9                 0.24
  In      10                 0.24
  In      11                 0.25
  In      12                 0.24
======================================

 
 A BibTeX formatted list of references used in this run has been written to 
 StackingFaultStructs_001_110_7.bib
 
Initialisation time =     23.37 s
Calculation time    =   2500.19 s
Finalisation time   =     62.81 s
Total time          =   2586.38 s
Peak Memory Use     = 9968072 kB
 
Overall parallel efficiency rating: Very good (80%)
 
Data was distributed by:-
k-point (84-way); efficiency rating: Very good (81%)
