 +-------------------------------------------------+
 |                                                 |
 |      CCC   AA    SSS  TTTTT  EEEEE  PPPP        |
 |     C     A  A  S       T    E      P   P       |
 |     C     AAAA   SS     T    EEE    PPPP        |
 |     C     A  A     S    T    E      P           |
 |      CCC  A  A  SSS     T    EEEEE  P           |
 |                                                 |
 +-------------------------------------------------+
 |                                                 |
 | Welcome to Academic Release CASTEP version 22.11|
 | Ab Initio Total Energy Program                  |
 |                                                 |
 | Authors:                                        |
 | M. Segall, M. Probert, C. Pickard, P. Hasnip,   |
 | S. Clark, K. Refson, J. R. Yates, M. Payne      |
 |                                                 |
 | Contributors:                                   |
 | P. Lindan, P. Haynes, J. White, V. Milman,      |
 | N. Govind, M. Gibson, P. Tulip, V. Cocula,      |
 | B. Montanari, D. Quigley, M. Glover,            |
 | L. Bernasconi, A. Perlov, M. Plummer,           |
 | E. McNellis, J. Meyer, J. Gale, D. Jochym       |
 | J. Aarons, B. Walker, R. Gillen, D. Jones       |
 | T. Green, I. J. Bush, C. J. Armstrong,          |
 | E. J. Higgins, E. L. Brown, M. S. McFly,        |
 | J. Wilkins, B-C. Shih, P. J. P. Byrne,          |
 | R. J. Maurer, J. C. Womack, J. Dziedzic,        |
 | A. Bartok-Partay, L. LeBlanc, T. K. Stenczel,   |
 | J. Kermode, S. Sturniolo, B. Shi, B. Durham     |
 | M. Evans, M. J. Smith                           |
 |                                                 |
 | Copyright (c) 2000 - 2021                       |
 |                                                 |
 |     Distributed under license from Cambridge    |
 |     Enterprise for academic use only.           |
 |                                                 |
 | Please cite                                     |
 |                                                 |
 |     "First principles methods using CASTEP"     |
 |                                                 |
 |         Zeitschrift fuer Kristallographie       |
 |           220(5-6) pp. 567-570 (2005)           |
 |                                                 |
 | S. J. Clark, M. D. Segall, C. J. Pickard,       |
 | P. J. Hasnip, M. J. Probert, K. Refson,         |
 | M. C. Payne                                     |
 |                                                 |
 |       in all publications arising from          |
 |              your use of CASTEP                 |
 |                                                 |
 +-------------------------------------------------+
 |                                                 |
 |              http://www.castep.org              |
 |                                                 |
 +-------------------------------------------------+



 Compiled for linux_x86_64_gfortran10 on Wed, 18 Jan 2023 22:58:45 +0000
 from code version b807d1bba+  Castep221_branch  Wed Sep 14 11:18:35 2022 +0100
 Compiler: GNU Fortran 10.2.0; Optimisation: fast
 MATHLIBS: openblas (LAPACK version 3.9.0)
 FFT Lib : fftw3 version fftw-3.3.8-sse2-avx-avx2-avx2_128
 Fundamental constants values: CODATA 2014

 Run started: Tue, 25 Mar 2025 17:14:02 +0000

 Atomic calculation performed for P: 1s2 2s2 2p6 3s2 3p3

 Converged in 47 iterations to an ae energy of -9309.074 eV

   ============================================================                
   | Pseudopotential Report - Date of generation 25-03-2025   |                
   ------------------------------------------------------------                
   | Element: P Ionic charge:  5.00 Level of theory: RSCAN    |                
   | Atomic Solver: Koelling-Harmon                           |                
   |                                                          |                
   |               Reference Electronic Structure             |                
   |         Orbital         Occupation         Energy        |                
   |            3s              2.000           -0.535        |                
   |            3p              3.000           -0.209        |                
   |                                                          |                
   |                 Pseudopotential Definition               |                
   |        Beta     l      e      Rc     scheme   norm       |                
   |          1      0   -0.535   1.807     qc      0         |                
   |          2      0    0.250   1.807     qc      0         |                
   |          3      1   -0.209   1.807     qc      0         |                
   |          4      1    0.250   1.807     qc      0         |                
   |          5      2    0.000   1.807     qc      0         |                
   |          6      2    0.250   1.807     qc      0         |                
   |         loc     3    0.000   1.807     pn      0         |                
   |                                                          |                
   | Augmentation charge Rinner = 1.263                       |                
   | Partial core correction Rc = 1.263                       |                
   ------------------------------------------------------------                
   | "3|1.8|4|4|5|30:31:32"                                   |                
   ------------------------------------------------------------                
   |      Author: Chris J. Pickard, Cambridge University      |                
   ============================================================                
 Warning: otfg_output_psp cannot write out meta-GGA pseudopotentials presently.

 Atomic calculation performed for In:
 1s2 2s2 2p6 3s2 3p6 3d10 4s2 4p6 4d10 5s2 5p1

 Converged in 84 iterations to an ae energy of -160093.327 eV

   ============================================================                
   | Pseudopotential Report - Date of generation 25-03-2025   |                
   ------------------------------------------------------------                
   | Element: In Ionic charge: 13.00 Level of theory: RSCAN   |                
   | Atomic Solver: Koelling-Harmon                           |                
   |                                                          |                
   |               Reference Electronic Structure             |                
   |         Orbital         Occupation         Energy        |                
   |            4d             10.000           -0.711        |                
   |            5s              2.000           -0.313        |                
   |            5p              1.000           -0.095        |                
   |                                                          |                
   |                 Pseudopotential Definition               |                
   |        Beta     l      e      Rc     scheme   norm       |                
   |          1      0   -0.313   2.501     qc      0         |                
   |          2      0    0.250   2.501     qc      0         |                
   |          3      1   -0.095   2.501     qc      0         |                
   |          4      1    0.250   2.501     qc      0         |                
   |          5      2   -0.711   2.207     qc      0         |                
   |          6      2    0.250   2.207     qc      0         |                
   |         loc     3    0.000   2.501     pn      0         |                
   |                                                          |                
   | Augmentation charge Rinner = 1.504                       |                
   | Partial core correction Rc = 1.504                       |                
   ------------------------------------------------------------                
   | "3|2.5|2.5|1.5|7|8|9|50:51:42U2.2U2.2"                   |                
   ------------------------------------------------------------                
   |      Author: Chris J. Pickard, Cambridge University      |                
   ============================================================                
 Warning: otfg_output_psp cannot write out meta-GGA pseudopotentials presently.

 Pseudo atomic calculation performed for P 3s2 3p3

 Converged in 23 iterations to a total energy of -208.0292 eV

 Pseudo atomic calculation performed for In 4d10 5s2 5p1

 Converged in 42 iterations to a total energy of -1747.4501 eV
 Calculation parallelised over 56 processes.
 Data is distributed by k-point(56-way)

 ************************************ Title ************************************
 

 ***************************** General Parameters ******************************
  
 output verbosity                               : normal  (1)
 write checkpoint data to                       : Bulk_Elastic_0.check
 type of calculation                            : geometry optimization
 stress calculation                             : on
 density difference calculation                 : off
 electron localisation func (ELF) calculation   : off
 Hirshfeld analysis                             : on
 polarisation (Berry phase) analysis            : off
 molecular orbital projected DOS                : off
 deltaSCF calculation                           : off
 unlimited duration calculation
 timing information                             : on
 memory usage estimate                          : on
 write extra output files                       : on
 write final potential to formatted file        : off
 write final density to formatted file          : off
 write BibTeX reference list                    : on
 write OTFG pseudopotential files               : on
 write electrostatic potential file             : on
 write bands file                               : on
 checkpoint writing                             : off
  
 output         length unit                     : A
 output           mass unit                     : amu
 output           time unit                     : ps
 output         charge unit                     : e
 output           spin unit                     : hbar/2
 output         energy unit                     : eV
 output          force unit                     : eV/A
 output       velocity unit                     : A/ps
 output       pressure unit                     : GPa
 output     inv_length unit                     : 1/A
 output      frequency unit                     : cm-1
 output force constant unit                     : eV/A**2
 output         volume unit                     : A**3
 output   IR intensity unit                     : (D/A)**2/amu
 output         dipole unit                     : D
 output         efield unit                     : eV/A/e
 output        entropy unit                     : J/mol/K
 output    efield chi2 unit                     : pm/V
  
 wavefunctions paging                           : none
 random number generator seed                   : randomised (171402842)
 data distribution                              : optimal for this architecture
 optimization strategy                          : balance speed and memory

 *********************** Exchange-Correlation Parameters ***********************
  
 using functional                               : RSCAN
 relativistic treatment                         : Koelling-Harmon
 DFT+D: Semi-empirical dispersion correction    : off

 ************************* Pseudopotential Parameters **************************
  
 pseudopotential representation                 : reciprocal space
 <beta|phi> representation                      : reciprocal space
 spin-orbit coupling                            : off

 **************************** Basis Set Parameters *****************************
  
 plane wave basis set cut-off                   :   900.0000   eV
 size of standard grid                          :     2.0000
 size of   fine   gmax                          :    30.7390   1/A
 finite basis set correction                    : none

 **************************** Electronic Parameters ****************************
  
 number of  electrons                           :  72.00    
 net charge of system                           :  0.000    
 treating system as non-spin-polarized
 number of bands                                :         43

 ********************* Electronic Minimization Parameters **********************
  
 Method: Treating system as metallic with density mixing treatment of electrons,
         and number of  SD  steps               :          1
         and number of  CG  steps               :          4
  
 total energy / atom convergence tol.           : 0.1000E-07   eV
 eigen-energy convergence tolerance             : 0.2222E-08   eV
 max force / atom convergence tol.              : ignored
 convergence tolerance window                   :          3   cycles
 max. number of SCF cycles                      :         50
 number of fixed-spin iterations                :         10
 smearing scheme                                : Gaussian
 smearing width                                 : 0.2000       eV
 Fermi energy convergence tolerance             : 0.2721E-13   eV
 periodic dipole correction                     : NONE

 ************************** Density Mixing Parameters **************************
  
 density-mixing scheme                          : Pulay
 max. length of mixing history                  :         15
 charge density mixing amplitude                : 0.5000    
 cut-off energy for mixing                      :  900.0       eV

 *********************** Population Analysis Parameters ************************
  
 Population analysis with cutoff                :  3.000       A
 Population analysis output                     : summary and pdos components

 ********************** Geometry Optimization Parameters ***********************
  
 optimization method                            : LBFGS
 max. no. of LBFGS updates                      : unbounded
 preconditioned LBFGS is activated
 preconditioner type                            : EXP
     stabilization constant                     :     0.1000
     parameter A                                :     3.0000
     nearest neighbor distance                  : automatic
     cut-off distance                           : automatic
     parameter mu                               : automatic
 variable cell method                           : fixed basis quality
 max. number of steps                           :         30
 estimated bulk modulus                         :  500.0       GPa
 estimated <frequency>                          :  1668.       cm-1
 geom line minimiser                            : on
 with line minimiser tolerance                  :     0.4000
 total energy convergence tolerance             : 0.2000E-04   eV/atom
        max ionic |force| tolerance             : 0.1000E-02   eV/A
 max ionic |displacement| tolerance             : 0.1000E-02   A
   max |stress component| tolerance             : 0.1000       GPa
 convergence tolerance window                   :          2   steps
 backup results every                           :          5   steps
 write geom trajectory file                     : on

 *******************************************************************************
  

                           -------------------------------
                                      Unit Cell
                           -------------------------------
        Real Lattice(A)                      Reciprocal Lattice(1/A)
     5.8902190    -0.0000040    -0.0000040        1.066715059   0.000000724   0.000000724
    -0.0000040     5.9008410    -0.0053150        0.000000724   1.064795748   0.000959082
    -0.0000040    -0.0053150     5.9008410        0.000000724   0.000959082   1.064795748

                       Lattice parameters(A)       Cell Angles
                    a =      5.890219          alpha =   90.103215
                    b =      5.900843          beta  =   90.000078
                    c =      5.900843          gamma =   90.000078

                       Current cell volume =           205.096815       A**3
                                   density =             2.843374   AMU/A**3
                                           =             4.721534     g/cm^3

                           -------------------------------
                                     Cell Contents
                           -------------------------------
                         Total number of ions in cell =    8
                      Total number of species in cell =    2
                        Max number of any one species =    4

            xxxxxxxxxxxxxxxxxxxxxxxxxxxxxxxxxxxxxxxxxxxxxxxxxxxxxxxxxxxx
            x  Element    Atom        Fractional coordinates of atoms  x
            x            Number           u          v          w      x
            x----------------------------------------------------------x
            x  P            1         0.250000   0.250000   0.750000   x 
            x  P            2         0.750000   0.250000   0.250000   x 
            x  P            3         0.250000   0.750000   0.250000   x 
            x  P            4         0.750000   0.750000   0.750000   x 
            x  In           1         0.000000   0.000000   0.000000   x 
            x  In           2         0.500000   0.000000   0.500000   x 
            x  In           3         0.000000   0.500000   0.500000   x 
            x  In           4         0.500000   0.500000   0.000000   x 
            xxxxxxxxxxxxxxxxxxxxxxxxxxxxxxxxxxxxxxxxxxxxxxxxxxxxxxxxxxxx


                         No user defined ionic velocities

                           -------------------------------
                                   Details of Species
                           -------------------------------

                               Mass of species in AMU
                                    P   30.9737600
                                    In  114.8180000

                          Electric Quadrupole Moment (Barn)
                                    P    1.0000000 No Isotope Defined
                                    In    0.7700000 Isotope115

                          Files used for pseudopotentials:
                                    P 3|1.8|4|4|5|30:31:32
                                    In 3|2.5|2.5|1.5|7|8|9|50:51:42U2.2U2.2

                           -------------------------------
                              k-Points For BZ Sampling
                           -------------------------------
                       MP grid size for SCF calculation is  6  6  6
                            with an offset of   0.083  0.083  0.083
                       Number of kpoints used =           112

                           -------------------------------
                               Symmetry and Constraints
                           -------------------------------

                      Cell is a supercell containing 4 primitive cells
                      Maximum deviation from symmetry =  0.00000         ANG

                      Number of symmetry operations   =           1
                      Number of ionic constraints     =           3
                      Point group of crystal =     1: C1, 1, 1
                      Space group of crystal =    44: Imm2, I 2 -2

             Set iprint > 1 for details on symmetry rotations/translations

                         Centre of mass is constrained
             Set iprint > 1 for details of linear ionic constraints

                         Number of cell constraints= 6
                         Cell constraints are:  0 0 0 0 0 0

                         External pressure/stress (GPa)
                          0.00000   0.00000   0.00000
                                    0.00000   0.00000
                                              0.00000
 
+---------------- MEMORY AND SCRATCH DISK ESTIMATES PER PROCESS --------------+
|                                                     Memory          Disk    |
| Baseline code, static data and system overhead      708.0 MB         0.0 MB |
| BLAS internal memory storage                          0.0 MB         0.0 MB |
| Model and support data                             1412.3 MB         0.0 MB |
| Electronic energy minimisation requirements         110.1 MB         0.0 MB |
| Force calculation requirements                       31.3 MB         0.0 MB |
| Stress calculation requirements                      34.6 MB         0.0 MB |
|                                               ----------------------------- |
| Approx. total storage required per process         2230.4 MB         0.0 MB |
|                                                                             |
| Requirements will fluctuate during execution and may exceed these estimates |
+-----------------------------------------------------------------------------+
Calculating approximate eigenstates for fixed initial Hamiltonian
Cut-off for approx. calculation is   89.988 eV
Improving approx. states at cut-off of  450.000 eV
Resetting cut-off to  900.000 eV
Calculating total energy with cut-off of  900.000 eV.
------------------------------------------------------------------------ <-- SCF
SCF loop      Energy           Fermi           Energy gain       Timer   <-- SCF
                               energy          per atom          (sec)   <-- SCF
------------------------------------------------------------------------ <-- SCF
Initial  -7.87883047E+003  0.00000000E+000                        35.60  <-- SCF
      1  -7.85062454E+003  2.60137229E+000  -3.52574019E+000      46.26  <-- SCF
      2  -7.85064049E+003  2.60124822E+000   1.99286666E-003      55.26  <-- SCF
      3  -7.85904597E+003  2.89794927E+000   1.05068575E+000      67.26  <-- SCF
      4  -7.86052975E+003  2.97253992E+000   1.85472485E-001      80.55  <-- SCF
      5  -7.85970776E+003  3.33058749E+000  -1.02749335E-001      92.57  <-- SCF
      6  -7.85976683E+003  3.38346760E+000   7.38420843E-003     104.36  <-- SCF
      7  -7.85971249E+003  3.42081333E+000  -6.79309462E-003     116.72  <-- SCF
      8  -7.85992213E+003  3.48632700E+000   2.62049463E-002     128.54  <-- SCF
      9  -7.85993046E+003  3.44946796E+000   1.04161999E-003     140.87  <-- SCF
     10  -7.85993276E+003  3.43998547E+000   2.87096035E-004     153.17  <-- SCF
     11  -7.85993274E+003  3.44261131E+000  -1.50102996E-006     165.57  <-- SCF
     12  -7.85993280E+003  3.44006236E+000   6.98151116E-006     177.97  <-- SCF
     13  -7.85993281E+003  3.44003995E+000   1.13905600E-006     189.21  <-- SCF
     14  -7.85993281E+003  3.43985418E+000   3.19950435E-007     200.22  <-- SCF
     15  -7.85993281E+003  3.43996767E+000  -7.02647881E-009     209.70  <-- SCF
     16  -7.85993281E+003  3.43999293E+000  -2.55181386E-009     219.04  <-- SCF
------------------------------------------------------------------------ <-- SCF
 
Final energy, E             =  -7859.932808411     eV
Final free energy (E-TS)    =  -7859.932811777     eV
(energies not corrected for finite basis set)
 
NB est. 0K energy (E-0.5TS)      =  -7859.932810094     eV
 
 
+---------------- MEMORY AND SCRATCH DISK ESTIMATES PER PROCESS --------------+
|                                                     Memory          Disk    |
| Model and support data                              838.0 MB         0.0 MB |
| Electronic energy minimisation requirements         110.1 MB         0.0 MB |
| Geometry minimisation requirements                  130.3 MB         0.0 MB |
|                                               ----------------------------- |
| Approx. total storage required per process         1078.4 MB         0.0 MB |
|                                                                             |
| Requirements will fluctuate during execution and may exceed these estimates |
+-----------------------------------------------------------------------------+
 

 ************************************** Forces **************************************
 *                                                                                  *
 *                           Cartesian components (eV/A)                            *
 * -------------------------------------------------------------------------------- *
 *                         x                    y                    z              *
 *                                                                                  *
 * P               1     -0.01388             -0.00001             -0.00001         *
 * P               2     -0.01388             -0.00001             -0.00001         *
 * P               3     -0.01388             -0.00001             -0.00001         *
 * P               4     -0.01388             -0.00001             -0.00001         *
 * In              1      0.01388              0.00001              0.00001         *
 * In              2      0.01388              0.00001              0.00001         *
 * In              3      0.01388              0.00001              0.00001         *
 * In              4      0.01388              0.00001              0.00001         *
 *                                                                                  *
 ************************************************************************************
 EXP precond LBFGS => estimated nearest neighbor distance :  2.552       A
 EXP precond LBFGS => estimated cutoff distance :  5.104       A

 ************************************** Forces **************************************
 *                                                                                  *
 *                           Cartesian components (eV/A)                            *
 * -------------------------------------------------------------------------------- *
 *                         x                    y                    z              *
 *                                                                                  *
 * P               1     -0.01388             -0.00001             -0.00001         *
 * P               2     -0.01388             -0.00001             -0.00001         *
 * P               3     -0.01388             -0.00001             -0.00001         *
 * P               4     -0.01388             -0.00001             -0.00001         *
 * In              1      0.01388              0.00001              0.00001         *
 * In              2      0.01388              0.00001              0.00001         *
 * In              3      0.01388              0.00001              0.00001         *
 * In              4      0.01388              0.00001              0.00001         *
 *                                                                                  *
 ************************************************************************************
 doing test perturbation to get energy scale for EXP preconditioner

                           -------------------------------
                                     Cell Contents
                           -------------------------------

            xxxxxxxxxxxxxxxxxxxxxxxxxxxxxxxxxxxxxxxxxxxxxxxxxxxxxxxxxxxxxxxxx
            x  Element         Atom        Fractional coordinates of atoms  x
            x                 Number           u          v          w      x
            x---------------------------------------------------------------x
            x  P                 1         0.251418   0.251414   0.753639   x
            x  P                 2         0.753646   0.251415   0.251415   x
            x  P                 3         0.251418   0.753639   0.251414   x
            x  P                 4         0.753646   0.753640   0.753640   x
            x  In                1         0.000000   0.000000   0.000000   x
            x  In                2         0.502679  -0.000000   0.502674   x
            x  In                3        -0.000000   0.502674   0.502674   x
            x  In                4         0.502679   0.502674  -0.000000   x
            xxxxxxxxxxxxxxxxxxxxxxxxxxxxxxxxxxxxxxxxxxxxxxxxxxxxxxxxxxxxxxxxx


------------------------------------------------------------------------ <-- SCF
SCF loop      Energy           Fermi           Energy gain       Timer   <-- SCF
                               energy          per atom          (sec)   <-- SCF
------------------------------------------------------------------------ <-- SCF
Initial  -7.85973990E+003  0.00000000E+000                       237.36  <-- SCF
      1  -7.85989454E+003  3.44150095E+000   1.93298807E-002     246.97  <-- SCF
      2  -7.85992220E+003  3.44141472E+000   3.45734891E-003     261.46  <-- SCF
      3  -7.85992222E+003  3.44147441E+000   2.36535646E-006     274.10  <-- SCF
      4  -7.85992238E+003  3.44153178E+000   2.07550181E-005     286.97  <-- SCF
      5  -7.85992243E+003  3.44150812E+000   5.08474781E-006     300.22  <-- SCF
      6  -7.85992243E+003  3.44150464E+000   6.54299148E-007     313.05  <-- SCF
      7  -7.85992243E+003  3.44150659E+000   4.64278150E-008     324.54  <-- SCF
      8  -7.85992243E+003  3.44150373E+000   6.03730775E-009     334.31  <-- SCF
      9  -7.85992243E+003  3.44150231E+000   9.00810786E-010     343.88  <-- SCF
------------------------------------------------------------------------ <-- SCF
 
Final energy, E             =  -7859.922427192     eV
Final free energy (E-TS)    =  -7859.922430786     eV
(energies not corrected for finite basis set)
 
NB est. 0K energy (E-0.5TS)      =  -7859.922428989     eV
 

 ************************************** Forces **************************************
 *                                                                                  *
 *                           Cartesian components (eV/A)                            *
 * -------------------------------------------------------------------------------- *
 *                         x                    y                    z              *
 *                                                                                  *
 * P               1      0.01015              0.02317             -0.12946         *
 * P               2     -0.14278              0.02374              0.02374         *
 * P               3      0.01015             -0.12946              0.02317         *
 * P               4     -0.15573             -0.14151             -0.14151         *
 * In              1      0.18440              0.17046              0.17046         *
 * In              2     -0.03866              0.15779             -0.05168         *
 * In              3      0.17115             -0.05251             -0.05251         *
 * In              4     -0.03866             -0.05168              0.15779         *
 *                                                                                  *
 ************************************************************************************
 EXP precond LBFGS => estimated parameter mu :  2.457       eV/A**2
 LBFGS: finished iteration     0 with enthalpy= -7.85993281E+003 eV
  
 +-----------+-----------------+-----------------+------------+-----+ <-- LBFGS
 | Parameter |      value      |    tolerance    |    units   | OK? | <-- LBFGS
 +-----------+-----------------+-----------------+------------+-----+ <-- LBFGS
 |  dE/ion   |   0.000000E+000 |   2.000000E-005 |         eV | No  | <-- LBFGS
 |  |F|max   |   3.035072E-001 |   1.000000E-003 |       eV/A | No  | <-- LBFGS
 |  |dR|max  |   6.551252E-016 |   1.000000E-003 |          A | No  | <-- LBFGS
 +-----------+-----------------+-----------------+------------+-----+ <-- LBFGS
  

================================================================================
 Starting LBFGS iteration          1 ...
================================================================================
  
 +------------+-------------+-------------+-----------------+ <-- min LBFGS
 |    Step    |   lambda    |   F.delta'  |    enthalpy     | <-- min LBFGS
 +------------+-------------+-------------+-----------------+ <-- min LBFGS
 |  previous  |    0.000000 |    0.008498 |    -7859.932812 | <-- min LBFGS
 +------------+-------------+-------------+-----------------+ <-- min LBFGS
  

--------------------------------------------------------------------------------
 LBFGS: starting iteration         1 with trial guess (lambda=  1.000000)
--------------------------------------------------------------------------------

                           -------------------------------
                                     Cell Contents
                           -------------------------------

            xxxxxxxxxxxxxxxxxxxxxxxxxxxxxxxxxxxxxxxxxxxxxxxxxxxxxxxxxxxxxxxxx
            x  Element         Atom        Fractional coordinates of atoms  x
            x                 Number           u          v          w      x
            x---------------------------------------------------------------x
            x  P                 1         0.249881   0.250000   0.750000   x
            x  P                 2         0.749881   0.250000   0.250000   x
            x  P                 3         0.249881   0.750000   0.250000   x
            x  P                 4         0.749881   0.750000   0.750000   x
            x  In                1         0.000119   0.000000   0.000000   x
            x  In                2         0.500119   0.000000   0.500000   x
            x  In                3         0.000119   0.500000   0.500000   x
            x  In                4         0.500119   0.500000   0.000000   x
            xxxxxxxxxxxxxxxxxxxxxxxxxxxxxxxxxxxxxxxxxxxxxxxxxxxxxxxxxxxxxxxxx


------------------------------------------------------------------------ <-- SCF
SCF loop      Energy           Fermi           Energy gain       Timer   <-- SCF
                               energy          per atom          (sec)   <-- SCF
------------------------------------------------------------------------ <-- SCF
Initial  -7.85971699E+003  0.00000000E+000                       355.66  <-- SCF
      1  -7.85990583E+003  3.43996397E+000   2.36054078E-002     365.29  <-- SCF
      2  -7.85993268E+003  3.43985507E+000   3.35620871E-003     379.73  <-- SCF
      3  -7.85993266E+003  3.43995167E+000  -2.70637009E-006     392.42  <-- SCF
      4  -7.85993282E+003  3.44004266E+000   1.96260559E-005     405.31  <-- SCF
      5  -7.85993285E+003  3.44005583E+000   4.71780517E-006     418.63  <-- SCF
      6  -7.85993286E+003  3.44006544E+000   7.26799045E-007     431.53  <-- SCF
      7  -7.85993286E+003  3.44006999E+000   6.20658438E-008     443.05  <-- SCF
      8  -7.85993286E+003  3.44007087E+000   5.86484086E-009     452.65  <-- SCF
      9  -7.85993286E+003  3.44007083E+000   9.41220628E-010     462.16  <-- SCF
------------------------------------------------------------------------ <-- SCF
 
Final energy, E             =  -7859.932855797     eV
Final free energy (E-TS)    =  -7859.932859170     eV
(energies not corrected for finite basis set)
 
NB est. 0K energy (E-0.5TS)      =  -7859.932857483     eV
 

 ************************************** Forces **************************************
 *                                                                                  *
 *                           Cartesian components (eV/A)                            *
 * -------------------------------------------------------------------------------- *
 *                         x                    y                    z              *
 *                                                                                  *
 * P               1     -0.00289              0.00006              0.00003         *
 * P               2     -0.00291              0.00006              0.00006         *
 * P               3     -0.00289              0.00003              0.00006         *
 * P               4     -0.00291              0.00004              0.00004         *
 * In              1      0.00275             -0.00019             -0.00019         *
 * In              2      0.00303             -0.00017              0.00009         *
 * In              3      0.00277              0.00009              0.00008         *
 * In              4      0.00303              0.00009             -0.00017         *
 *                                                                                  *
 ************************************************************************************
  
 +------------+-------------+-------------+-----------------+ <-- min LBFGS
 |    Step    |   lambda    |   F.delta'  |    enthalpy     | <-- min LBFGS
 +------------+-------------+-------------+-----------------+ <-- min LBFGS
 |  previous  |    0.000000 |    0.008498 |    -7859.932812 | <-- min LBFGS
 | trial step |    1.000000 |    0.001774 |    -7859.932859 | <-- min LBFGS
 +------------+-------------+-------------+-----------------+ <-- min LBFGS
  
 LBFGS: finished iteration     1 with enthalpy= -7.85993286E+003 eV
  
 +-----------+-----------------+-----------------+------------+-----+ <-- LBFGS
 | Parameter |      value      |    tolerance    |    units   | OK? | <-- LBFGS
 +-----------+-----------------+-----------------+------------+-----+ <-- LBFGS
 |  dE/ion   |   5.924149E-006 |   2.000000E-005 |         eV | Yes | <-- LBFGS
 |  |F|max   |   3.037995E-003 |   1.000000E-003 |       eV/A | No  | <-- LBFGS
 |  |dR|max  |   6.990354E-004 |   1.000000E-003 |          A | Yes | <-- LBFGS
 +-----------+-----------------+-----------------+------------+-----+ <-- LBFGS
  

================================================================================
 Starting LBFGS iteration          2 ...
================================================================================
  
 +------------+-------------+-------------+-----------------+ <-- min LBFGS
 |    Step    |   lambda    |   F.delta'  |    enthalpy     | <-- min LBFGS
 +------------+-------------+-------------+-----------------+ <-- min LBFGS
 |  previous  |    0.000000 |    0.001776 |    -7859.932859 | <-- min LBFGS
 +------------+-------------+-------------+-----------------+ <-- min LBFGS
  

--------------------------------------------------------------------------------
 LBFGS: starting iteration         2 with trial guess (lambda=  1.000000)
--------------------------------------------------------------------------------

                           -------------------------------
                                     Cell Contents
                           -------------------------------

            xxxxxxxxxxxxxxxxxxxxxxxxxxxxxxxxxxxxxxxxxxxxxxxxxxxxxxxxxxxxxxxxx
            x  Element         Atom        Fractional coordinates of atoms  x
            x                 Number           u          v          w      x
            x---------------------------------------------------------------x
            x  P                 1         0.249850   0.250001   0.750000   x
            x  P                 2         0.749850   0.250001   0.250001   x
            x  P                 3         0.249850   0.750000   0.250001   x
            x  P                 4         0.749850   0.750000   0.750000   x
            x  In                1         0.000147  -0.000003  -0.000003   x
            x  In                2         0.500152  -0.000003   0.500002   x
            x  In                3         0.000148   0.500002   0.500002   x
            x  In                4         0.500153   0.500002  -0.000003   x
            xxxxxxxxxxxxxxxxxxxxxxxxxxxxxxxxxxxxxxxxxxxxxxxxxxxxxxxxxxxxxxxxx


------------------------------------------------------------------------ <-- SCF
SCF loop      Energy           Fermi           Energy gain       Timer   <-- SCF
                               energy          per atom          (sec)   <-- SCF
------------------------------------------------------------------------ <-- SCF
Initial  -7.85993276E+003  0.00000000E+000                       473.74  <-- SCF
      1  -7.85993286E+003  3.44009909E+000   1.23691174E-005     483.89  <-- SCF
      2  -7.85993286E+003  3.44009909E+000   2.99289598E-007     497.97  <-- SCF
      3  -7.85993286E+003  3.44009961E+000   2.76082361E-009     507.48  <-- SCF
      4  -7.85993286E+003  3.44010019E+000   2.02803270E-009     516.95  <-- SCF
------------------------------------------------------------------------ <-- SCF
 
Final energy, E             =  -7859.932858203     eV
Final free energy (E-TS)    =  -7859.932861578     eV
(energies not corrected for finite basis set)
 
NB est. 0K energy (E-0.5TS)      =  -7859.932859891     eV
 

 ************************************** Forces **************************************
 *                                                                                  *
 *                           Cartesian components (eV/A)                            *
 * -------------------------------------------------------------------------------- *
 *                         x                    y                    z              *
 *                                                                                  *
 * P               1      0.00003             -0.00006             -0.00002         *
 * P               2      0.00007             -0.00006             -0.00006         *
 * P               3      0.00004             -0.00002             -0.00006         *
 * P               4      0.00006             -0.00004             -0.00004         *
 * In              1      0.00020              0.00030              0.00030         *
 * In              2     -0.00029              0.00028             -0.00020         *
 * In              3      0.00018             -0.00019             -0.00019         *
 * In              4     -0.00029             -0.00020              0.00028         *
 *                                                                                  *
 ************************************************************************************
  
 +------------+-------------+-------------+-----------------+ <-- min LBFGS
 |    Step    |   lambda    |   F.delta'  |    enthalpy     | <-- min LBFGS
 +------------+-------------+-------------+-----------------+ <-- min LBFGS
 |  previous  |    0.000000 |    0.001776 |    -7859.932859 | <-- min LBFGS
 | trial step |    1.000000 |   -0.000048 |    -7859.932862 | <-- min LBFGS
 +------------+-------------+-------------+-----------------+ <-- min LBFGS
  
 LBFGS: finished iteration     2 with enthalpy= -7.85993286E+003 eV
  
 +-----------+-----------------+-----------------+------------+-----+ <-- LBFGS
 | Parameter |      value      |    tolerance    |    units   | OK? | <-- LBFGS
 +-----------+-----------------+-----------------+------------+-----+ <-- LBFGS
 |  dE/ion   |   3.010785E-007 |   2.000000E-005 |         eV | Yes | <-- LBFGS
 |  |F|max   |   4.735493E-004 |   1.000000E-003 |       eV/A | Yes | <-- LBFGS
 |  |dR|max  |   2.003872E-004 |   1.000000E-003 |          A | Yes | <-- LBFGS
 +-----------+-----------------+-----------------+------------+-----+ <-- LBFGS
  
 LBFGS: Geometry optimization completed successfully.

================================================================================
 LBFGS: Final Configuration:
================================================================================

                           -------------------------------
                                     Cell Contents
                           -------------------------------

            xxxxxxxxxxxxxxxxxxxxxxxxxxxxxxxxxxxxxxxxxxxxxxxxxxxxxxxxxxxxxxxxx
            x  Element         Atom        Fractional coordinates of atoms  x
            x                 Number           u          v          w      x
            x---------------------------------------------------------------x
            x  P                 1         0.249850   0.250001   0.750000   x
            x  P                 2         0.749850   0.250001   0.250001   x
            x  P                 3         0.249850   0.750000   0.250001   x
            x  P                 4         0.749850   0.750000   0.750000   x
            x  In                1         0.000147  -0.000003  -0.000003   x
            x  In                2         0.500152  -0.000003   0.500002   x
            x  In                3         0.000148   0.500002   0.500002   x
            x  In                4         0.500153   0.500002  -0.000003   x
            xxxxxxxxxxxxxxxxxxxxxxxxxxxxxxxxxxxxxxxxxxxxxxxxxxxxxxxxxxxxxxxxx


 LBFGS: Final Enthalpy     = -7.85993286E+003 eV
 LBFGS: Final <frequency>  =     253.71305 cm-1

 ************************************** Forces **************************************
 *                                                                                  *
 *                           Cartesian components (eV/A)                            *
 * -------------------------------------------------------------------------------- *
 *                         x                    y                    z              *
 *                                                                                  *
 * P               1      0.00003             -0.00006             -0.00002         *
 * P               2      0.00007             -0.00006             -0.00006         *
 * P               3      0.00004             -0.00002             -0.00006         *
 * P               4      0.00006             -0.00004             -0.00004         *
 * In              1      0.00020              0.00030              0.00030         *
 * In              2     -0.00029              0.00028             -0.00020         *
 * In              3      0.00018             -0.00019             -0.00019         *
 * In              4     -0.00029             -0.00020              0.00028         *
 *                                                                                  *
 ************************************************************************************

 ***************** Stress Tensor *****************
 *                                               *
 *          Cartesian components (GPa)           *
 * --------------------------------------------- *
 *             x             y             z     *
 *                                               *
 *  x     -0.174292     -0.000214     -0.000214  *
 *  y     -0.000214     -0.094271     -0.083581  *
 *  z     -0.000214     -0.083581     -0.094271  *
 *                                               *
 *  Pressure:    0.1209                          *
 *                                               *
 *************************************************

 Pseudo atomic calculation performed for P 3s2 3p3

 Converged in 23 iterations to a total energy of -208.0292 eV

 Pseudo atomic calculation performed for In 4d10 5s2 5p1

 Converged in 42 iterations to a total energy of -1747.4501 eV
Charge spilling parameter for spin component 1 = 0.15%

            Orbital Populations       
     Ion    Atom   Orbital             Charge
  -------------------------------------------
      P     1      S                    1.735
      P     1      Px                   1.314
      P     1      Py                   1.314
      P     1      Pz                   1.314
      P     2      S                    1.735
      P     2      Px                   1.314
      P     2      Py                   1.314
      P     2      Pz                   1.314
      P     3      S                    1.735
      P     3      Px                   1.314
      P     3      Py                   1.314
      P     3      Pz                   1.314
      P     4      S                    1.735
      P     4      Px                   1.314
      P     4      Py                   1.314
      P     4      Pz                   1.314
     In     1      Dzz                  1.999
     In     1      Dzy                  1.997
     In     1      Dzx                  1.997
     In     1      Dxx-yy               1.999
     In     1      Dxy                  1.997
     In     1      S                    1.436
     In     1      Px                   0.482
     In     1      Py                   0.483
     In     1      Pz                   0.483
     In     1      S                   -0.549
     In     2      Dzz                  1.999
     In     2      Dzy                  1.997
     In     2      Dzx                  1.997
     In     2      Dxx-yy               1.999
     In     2      Dxy                  1.997
     In     2      S                    1.436
     In     2      Px                   0.482
     In     2      Py                   0.483
     In     2      Pz                   0.483
     In     2      S                   -0.549
     In     3      Dzz                  1.999
     In     3      Dzy                  1.997
     In     3      Dzx                  1.997
     In     3      Dxx-yy               1.999
     In     3      Dxy                  1.997
     In     3      S                    1.436
     In     3      Px                   0.482
     In     3      Py                   0.483
     In     3      Pz                   0.483
     In     3      S                   -0.549
     In     4      Dzz                  1.999
     In     4      Dzy                  1.997
     In     4      Dzx                  1.997
     In     4      Dxx-yy               1.999
     In     4      Dxy                  1.997
     In     4      S                    1.436
     In     4      Px                   0.482
     In     4      Py                   0.483
     In     4      Pz                   0.483
     In     4      S                   -0.549
  -------------------------------------------
                           Total:      72.000
  -------------------------------------------

     Atomic Populations (Mulliken)
     -----------------------------
Species          Ion     s       p       d       f      Total   Charge (e)
==========================================================================
  P               1     1.735   3.942   0.000   0.000   5.677    -0.677
  P               2     1.735   3.942   0.000   0.000   5.677    -0.677
  P               3     1.735   3.942   0.000   0.000   5.677    -0.677
  P               4     1.735   3.942   0.000   0.000   5.677    -0.677
  In              1     0.887   1.447   9.989   0.000  12.323     0.677
  In              2     0.887   1.447   9.989   0.000  12.323     0.677
  In              3     0.887   1.447   9.989   0.000  12.323     0.677
  In              4     0.887   1.447   9.989   0.000  12.323     0.677
==========================================================================

                 Bond                   Population      Length (A)
======================================================================
               P 4 -- In 1                   0.56        2.55306
               P 4 -- In 3                   0.56        2.55307
               P 2 -- In 3                   0.56        2.55309
               P 1 -- In 4                   0.56        2.55309
               P 3 -- In 2                   0.56        2.55309
               P 1 -- In 2                   0.56        2.55311
               P 3 -- In 4                   0.56        2.55311
               P 2 -- In 1                   0.56        2.55311
               P 4 -- In 4                   0.56        2.55410
               P 4 -- In 2                   0.56        2.55410
               P 2 -- In 4                   0.56        2.55413
               P 3 -- In 3                   0.56        2.55413
               P 2 -- In 2                   0.56        2.55413
               P 1 -- In 3                   0.56        2.55413
               P 1 -- In 1                   0.56        2.55414
               P 3 -- In 1                   0.56        2.55414
======================================================================


     Hirshfeld Analysis
     ------------------
Species   Ion     Hirshfeld Charge (e)
======================================
  P        1                -0.24
  P        2                -0.24
  P        3                -0.24
  P        4                -0.24
  In       1                 0.24
  In       2                 0.24
  In       3                 0.24
  In       4                 0.24
======================================

 
 A BibTeX formatted list of references used in this run has been written to 
 Bulk_Elastic_0.bib
 
Initialisation time =     12.90 s
Calculation time    =    609.03 s
Finalisation time   =      0.83 s
Total time          =    622.76 s
Peak Memory Use     = 2588416 kB
 
Overall parallel efficiency rating: Excellent (95%)
 
Data was distributed by:-
k-point (56-way); efficiency rating: Excellent (96%)
