 +-------------------------------------------------+
 |                                                 |
 |      CCC   AA    SSS  TTTTT  EEEEE  PPPP        |
 |     C     A  A  S       T    E      P   P       |
 |     C     AAAA   SS     T    EEE    PPPP        |
 |     C     A  A     S    T    E      P           |
 |      CCC  A  A  SSS     T    EEEEE  P           |
 |                                                 |
 +-------------------------------------------------+
 |                                                 |
 | Welcome to Academic Release CASTEP version 24.1 |
 | Ab Initio Total Energy Program                  |
 |                                                 |
 | Authors:                                        |
 | M. Segall, M. Probert, C. Pickard, P. Hasnip,   |
 | S. Clark, K. Refson, J. R. Yates,               |
 | A. Bartok-Partay, M. Payne                      |
 |                                                 |
 | Contributors:                                   |
 | P. Lindan, P. Haynes, J. White, V. Milman,      |
 | N. Govind, M. Gibson, P. Tulip, V. Cocula,      |
 | B. Montanari, D. Quigley, M. Glover,            |
 | L. Bernasconi, A. Perlov, M. Plummer,           |
 | E. McNellis, J. Meyer, J. Gale, D. Jochym       |
 | J. Aarons, B. Walker, R. Gillen, D. Jones       |
 | T. Green, I. J. Bush, C. J. Armstrong,          |
 | E. J. Higgins, E. L. Brown, M. S. McFly,        |
 | J. Wilkins, B-C. Shih, P. J. P. Byrne,          |
 | R. J. Maurer, J. C. Womack, J. Dziedzic,        |
 | L. LeBlanc, T. K. Stenczel, J. Kermode,         |
 | S. Sturniolo, B. Shi, B. Durham, M. Evans,      |
 | M. J. Smith, A. Tamerus, Z. Hawkhead,           |
 | V. Ravindran, T. Hollins, S. A. Joyce,          |
 | R. T. Strong, A. M. Reilly, S. J. Donaldson     |
 |                                                 |
 | Copyright (c) 2000 - 2023                       |
 |                                                 |
 |     Distributed under license from Cambridge    |
 |     Enterprise for academic use only.           |
 |                                                 |
 | Please cite                                     |
 |                                                 |
 |     "First principles methods using CASTEP"     |
 |                                                 |
 |         Zeitschrift fuer Kristallographie       |
 |           220(5-6) pp. 567-570 (2005)           |
 |                                                 |
 | S. J. Clark, M. D. Segall, C. J. Pickard,       |
 | P. J. Hasnip, M. J. Probert, K. Refson,         |
 | M. C. Payne                                     |
 |                                                 |
 |       in all publications arising from          |
 |              your use of CASTEP                 |
 |                                                 |
 +-------------------------------------------------+
 |                                                 |
 |              http://www.castep.org              |
 |                                                 |
 +-------------------------------------------------+



 Compiled for  GNU 11.2.0 on 04-04-2024 18:39:17
 from code version 6355fd106 Castep241_branch Thu Mar 7 17:56:19 2024 +0000
 Compiler: GNU Fortran 11.2.0; Optimisation: FAST
 Comms   : MPI VERSION : CRAY MPICH version 8.1.23.14 (ANL base 3.4a2)
 MATHLIBS: default (LAPACK version 3.10.1)
 FFT Lib : fftw3 version commercial-fftw-3.3.10-sse2-avx-avx2-avx2_128
 Fundamental constants values: CODATA 2018

 Run started: Sun, 27 Apr 2025 02:55:10 +0100

 Atomic calculation performed for P: 1s2 2s2 2p6 3s2 3p3

 Converged in 47 iterations to an ae energy of -9309.074 eV

   ============================================================                
   | Pseudopotential Report - Date of generation 27-04-2025   |                
   ------------------------------------------------------------                
   | Element: P Ionic charge:  5.00 Level of theory: RSCAN    |                
   | Atomic Solver: Koelling-Harmon                           |                
   |                                                          |                
   |               Reference Electronic Structure             |                
   |         Orbital         Occupation         Energy        |                
   |            3s              2.000           -0.535        |                
   |            3p              3.000           -0.209        |                
   |                                                          |                
   |                 Pseudopotential Definition               |                
   |        Beta     l      e      Rc     scheme   norm       |                
   |          1      0   -0.535   1.807     qc      0         |                
   |          2      0    0.250   1.807     qc      0         |                
   |          3      1   -0.209   1.807     qc      0         |                
   |          4      1    0.250   1.807     qc      0         |                
   |          5      2    0.000   1.807     qc      0         |                
   |          6      2    0.250   1.807     qc      0         |                
   |         loc     3    0.000   1.807     pn      0         |                
   |                                                          |                
   | Augmentation charge Rinner = 1.263                       |                
   | Partial core correction Rc = 1.263                       |                
   ------------------------------------------------------------                
   | "3|1.8|4|4|5|30:31:32"                                   |                
   ------------------------------------------------------------                
   |      Author: Chris J. Pickard, Cambridge University      |                
   ============================================================                
 Warning: otfg_output_psp cannot write out meta-GGA pseudopotentials presently.

 Atomic calculation performed for In:
 1s2 2s2 2p6 3s2 3p6 3d10 4s2 4p6 4d10 5s2 5p1

 Converged in 84 iterations to an ae energy of -160093.328 eV

   ============================================================                
   | Pseudopotential Report - Date of generation 27-04-2025   |                
   ------------------------------------------------------------                
   | Element: In Ionic charge: 13.00 Level of theory: RSCAN   |                
   | Atomic Solver: Koelling-Harmon                           |                
   |                                                          |                
   |               Reference Electronic Structure             |                
   |         Orbital         Occupation         Energy        |                
   |            4d             10.000           -0.711        |                
   |            5s              2.000           -0.313        |                
   |            5p              1.000           -0.095        |                
   |                                                          |                
   |                 Pseudopotential Definition               |                
   |        Beta     l      e      Rc     scheme   norm       |                
   |          1      0   -0.313   2.501     qc      0         |                
   |          2      0    0.250   2.501     qc      0         |                
   |          3      1   -0.095   2.501     qc      0         |                
   |          4      1    0.250   2.501     qc      0         |                
   |          5      2   -0.711   2.207     qc      0         |                
   |          6      2    0.250   2.207     qc      0         |                
   |         loc     3    0.000   2.501     pn      0         |                
   |                                                          |                
   | Augmentation charge Rinner = 1.504                       |                
   | Partial core correction Rc = 1.504                       |                
   ------------------------------------------------------------                
   | "3|2.5|2.5|1.5|7|8|9|50:51:42U2.2U2.2"                   |                
   ------------------------------------------------------------                
   |      Author: Chris J. Pickard, Cambridge University      |                
   ============================================================                
 Warning: otfg_output_psp cannot write out meta-GGA pseudopotentials presently.

 Pseudo atomic calculation performed for P 3s2 3p3

 Converged in 23 iterations to a total energy of -208.0292 eV

 Pseudo atomic calculation performed for In 4d10 5s2 5p1

 Converged in 42 iterations to a total energy of -1747.4501 eV
 Calculation parallelised over 108 processes.
 Data is distributed by G-vector(3-way) and k-point(36-way)
 Each process may use up to 16 threads.

 ************************************ Title ************************************
 

 ***************************** General Parameters ******************************
  
 output verbosity                               : normal  (1)
 write checkpoint data to                       : P_Vacancy_Migration_0->3_Singlepoints_1.check
 type of calculation                            : single point energy
 stress calculation                             : off
 density difference calculation                 : off
 electron localisation func (ELF) calculation   : off
 Hirshfeld analysis                             : on
 polarisation (Berry phase) analysis            : off
 molecular orbital projected DOS                : off
 deltaSCF calculation                           : off
 unlimited duration calculation
 timing information                             : on
 memory usage estimate                          : on
 write extra output files                       : on
 write final potential to formatted file        : off
 write final density to formatted file          : off
 write BibTeX reference list                    : on
 write OTFG pseudopotential files               : on
 write electrostatic potential file             : on
 write bands file                               : on
 checkpoint writing                             : off
  
 output         length unit                     : A
 output           mass unit                     : amu
 output           time unit                     : ps
 output         charge unit                     : e
 output           spin unit                     : hbar/2
 output         energy unit                     : eV
 output          force unit                     : eV/A
 output       velocity unit                     : A/ps
 output       pressure unit                     : GPa
 output     inv_length unit                     : 1/A
 output      frequency unit                     : cm-1
 output force constant unit                     : eV/A**2
 output         volume unit                     : A**3
 output   IR intensity unit                     : (D/A)**2/amu
 output         dipole unit                     : D
 output         efield unit                     : eV/A/e
 output        entropy unit                     : J/mol/K
 output    efield chi2 unit                     : pm/V
  
 wavefunctions paging                           : none
 random number generator seed                   :   25510362
 data distribution                              : optimal for this architecture
 optimization strategy                          : balance speed and memory

 *********************** Exchange-Correlation Parameters ***********************
  
 using functional                               : RSCAN
 relativistic treatment                         : Koelling-Harmon
 DFT+D: Semi-empirical dispersion correction    : off

 ************************* Pseudopotential Parameters **************************
  
 pseudopotential representation                 : reciprocal space
 <beta|phi> representation                      : reciprocal space
 spin-orbit coupling                            : off

 **************************** Basis Set Parameters *****************************
  
 plane wave basis set cut-off                   :   900.0000   eV
 size of standard grid                          :     2.0000
 size of   fine   gmax                          :    30.7390   1/A
 finite basis set correction                    : none

 **************************** Electronic Parameters ****************************
  
 number of  electrons                           :  571.0    
 net charge of system                           :  0.000    
 net spin   of system                           :  1.000    
 number of  up  spins                           :  286.0    
 number of down spins                           :  285.0    
 treating system as spin-polarized
 number of bands                                :        343

 ********************* Electronic Minimization Parameters **********************
  
 Method: Treating system as metallic with density mixing treatment of electrons,
         and number of  SD  steps               :          1
         and number of  CG  steps               :          4
  
 total energy / atom convergence tol.           : 0.1000E-07   eV
 eigen-energy convergence tolerance             : 0.2203E-08   eV
 max force / atom convergence tol.              : ignored
 convergence tolerance window                   :          3   cycles
 max. number of SCF cycles                      :        100
 number of fixed-spin iterations                :         10
 smearing scheme                                : Gaussian
 smearing width                                 : 0.2000       eV
 Fermi energy convergence tolerance             : 0.2721E-13   eV
 periodic dipole correction                     : NONE

 ************************** Density Mixing Parameters **************************
  
 density-mixing scheme                          : Pulay
 max. length of mixing history                  :         20
 charge density mixing amplitude                : 0.5000    
   spin density mixing amplitude                :  2.000    
 cut-off energy for mixing                      :  900.0       eV

 *********************** Population Analysis Parameters ************************
  
 Population analysis with cutoff                :  3.000       A
 Population analysis output                     : summary and pdos components

 *******************************************************************************
  

                           -------------------------------
                                      Unit Cell
                           -------------------------------
        Real Lattice(A)                      Reciprocal Lattice(1/A)
    11.8016820    -0.0000080    -0.0000080        0.532397442   0.000000361   0.000000361
    -0.0000080    11.8016820    -0.0000080        0.000000361   0.532397442   0.000000361
    -0.0000080    -0.0000080    11.8016820        0.000000361   0.000000361   0.532397442

                       Lattice parameters(A)       Cell Angles
                    a =     11.801682          alpha =   90.000078
                    b =     11.801682          beta  =   90.000078
                    c =     11.801682          gamma =   90.000078

                       Current cell volume =          1643.734705       A**3
                                   density =             2.819410   AMU/A**3
                                           =             4.681741     g/cm^3

                           -------------------------------
                                     Cell Contents
                           -------------------------------
                         Total number of ions in cell =   63
                      Total number of species in cell =    2
                        Max number of any one species =   32

            xxxxxxxxxxxxxxxxxxxxxxxxxxxxxxxxxxxxxxxxxxxxxxxxxxxxxxxxxxxx
            x  Element    Atom        Fractional coordinates of atoms  x
            x            Number           u          v          w      x
            x----------------------------------------------------------x
            x  P            1         0.145717   0.145717   0.369576   x 
            x  P            2         0.379739   0.127920   0.118519   x 
            x  P            3         0.127920   0.379739   0.118519   x 
            x  P            4         0.124284   0.124284   0.873706   x 
            x  P            5         0.381041   0.123219   0.632967   x 
            x  P            6         0.123219   0.381041   0.632967   x 
            x  P            7         0.377551   0.377551   0.874551   x 
            x  P            8         0.128948   0.621486   0.374504   x 
            x  P            9         0.377112   0.623957   0.130012   x 
            x  P           10         0.127143   0.879048   0.130356   x 
            x  P           11         0.376668   0.876678   0.375461   x 
            x  P           12         0.127181   0.632447   0.874717   x 
            x  P           13         0.377439   0.621683   0.618372   x 
            x  P           14         0.125998   0.879981   0.619570   x 
            x  P           15         0.376326   0.871429   0.875735   x 
            x  P           16         0.621486   0.128948   0.374504   x 
            x  P           17         0.879048   0.127143   0.130356   x 
            x  P           18         0.623957   0.377112   0.130012   x 
            x  P           19         0.876678   0.376668   0.375461   x 
            x  P           20         0.632447   0.127181   0.874717   x 
            x  P           21         0.879981   0.125998   0.619570   x 
            x  P           22         0.621683   0.377439   0.618372   x 
            x  P           23         0.871429   0.376326   0.875735   x 
            x  P           24         0.625499   0.625499   0.375946   x 
            x  P           25         0.877153   0.626675   0.123977   x 
            x  P           26         0.626675   0.877153   0.123977   x 
            x  P           27         0.878569   0.878569   0.375981   x 
            x  P           28         0.625514   0.625514   0.875282   x 
            x  P           29         0.876129   0.626619   0.626601   x 
            x  P           30         0.626619   0.876129   0.626601   x 
            x  P           31         0.877287   0.877287   0.875898   x 
            x  In           1         0.001336   0.001336   0.003005   x 
            x  In           2         0.258694   0.005521   0.247783   x 
            x  In           3         0.005521   0.258694   0.247783   x 
            x  In           4         0.250461   0.250461  -0.004554   x 
            x  In           5         0.012042   0.012042   0.487905   x 
            x  In           6         0.250553  -0.003223   0.752137   x 
            x  In           7        -0.003223   0.250553   0.752137   x 
            x  In           8         0.254575   0.254575   0.520967   x 
            x  In           9         0.000400   0.504558  -0.005754   x 
            x  In          10         0.257728   0.490746   0.254577   x 
            x  In          11         0.001946   0.749740   0.251642   x 
            x  In          12         0.250979   0.751404   0.006970   x 
            x  In          13         0.000577   0.502065   0.500785   x 
            x  In          14         0.253268   0.506533   0.752538   x 
            x  In          15         0.001597   0.755615   0.747497   x 
            x  In          16         0.250634   0.750184   0.499559   x 
            x  In          17         0.504558   0.000400  -0.005754   x 
            x  In          18         0.749740   0.001946   0.251642   x 
            x  In          19         0.490746   0.257728   0.254577   x 
            x  In          20         0.751404   0.250979   0.006970   x 
            x  In          21         0.502065   0.000577   0.500785   x 
            x  In          22         0.755615   0.001597   0.747497   x 
            x  In          23         0.506533   0.253268   0.752538   x 
            x  In          24         0.750184   0.250634   0.499559   x 
            x  In          25         0.501507   0.501507   0.002257   x 
            x  In          26         0.752060   0.503171   0.250757   x 
            x  In          27         0.503171   0.752060   0.250757   x 
            x  In          28         0.751379   0.751379  -0.000747   x 
            x  In          29         0.488065   0.488065   0.480695   x 
            x  In          30         0.747053   0.500649   0.747132   x 
            x  In          31         0.500649   0.747053   0.747132   x 
            x  In          32         0.751667   0.751667   0.501704   x 
            xxxxxxxxxxxxxxxxxxxxxxxxxxxxxxxxxxxxxxxxxxxxxxxxxxxxxxxxxxxx


                         No user defined ionic velocities

                           -------------------------------
                                   Details of Species
                           -------------------------------

                               Mass of species in AMU
                                    P   30.9737600
                                    In  114.8180000

                          Electric Quadrupole Moment (Barn)
                                    P    1.0000000 No Isotope Defined
                                    In    0.7700000 Isotope115

                          Files used for pseudopotentials:
                                    P 3|1.8|4|4|5|30:31:32
                                    In 3|2.5|2.5|1.5|7|8|9|50:51:42U2.2U2.2

                           -------------------------------
                              k-Points For BZ Sampling
                           -------------------------------
                       MP grid size for SCF calculation is  4  4  4
                            with an offset of   0.125  0.125  0.125
                       Number of kpoints used =            36

                           -------------------------------
                               Symmetry and Constraints
                           -------------------------------

                      Maximum deviation from symmetry =  0.00000         ANG

                      Number of symmetry operations   =           1
                      Number of ionic constraints     =           3
                      Point group of crystal =     1: C1, 1, 1
                      Space group of crystal =     8: Cm, C -2y

             Set iprint > 1 for details on symmetry rotations/translations

                         Centre of mass is constrained
             Set iprint > 1 for details of linear ionic constraints

                         Number of cell constraints= 0
                         Cell constraints are:  1 2 3 4 5 6

                         External pressure/stress (GPa)
                          0.00000   0.00000   0.00000
                                    0.00000   0.00000
                                              0.00000
 
+---------------- MEMORY AND SCRATCH DISK ESTIMATES PER PROCESS --------------+
|                                                     Memory          Disk    |
| Baseline code, static data and system overhead      368.0 MB         0.0 MB |
| BLAS internal memory storage                          0.0 MB         0.0 MB |
| Model and support data                             4302.1 MB         0.0 MB |
| Electronic energy minimisation requirements        1320.9 MB         0.0 MB |
| Force calculation requirements                      127.4 MB         0.0 MB |
|                                               ----------------------------- |
| Approx. total storage required per process         5991.0 MB         0.0 MB |
|                                                                             |
| Requirements will fluctuate during execution and may exceed these estimates |
+-----------------------------------------------------------------------------+
Calculating approximate eigenstates for fixed initial Hamiltonian
Cut-off for approx. calculation is   89.988 eV
Improving approx. states at cut-off of  450.000 eV
Resetting cut-off to  900.000 eV
Calculating total energy with cut-off of  900.000 eV.
------------------------------------------------------------------------ <-- SCF
SCF loop      Energy           Fermi           Energy gain       Timer   <-- SCF
                               energy          per atom          (sec)   <-- SCF
------------------------------------------------------------------------ <-- SCF
Initial  -6.28293387E+004  0.00000000E+000                       427.88  <-- SCF
      1  -6.25862391E+004  3.15663782E+000  -3.85872269E+000     869.78  <-- SCF
      2  -6.25864970E+004  3.15626483E+000   4.09385037E-003    1179.40  <-- SCF
      3  -6.26537045E+004  3.22995261E+000   1.06678556E+000    1530.48  <-- SCF
      4  -6.26660164E+004  3.26977068E+000   1.95426814E-001    2019.73  <-- SCF
      5  -6.26734207E+004  3.36524761E+000   1.17528322E-001    2368.23  <-- SCF
      6  -6.26623560E+004  3.54871290E+000  -1.75629653E-001    2703.89  <-- SCF
      7  -6.26611172E+004  3.60254811E+000  -1.96636324E-002    3066.78  <-- SCF
      8  -6.26609614E+004  3.61983938E+000  -2.47326475E-003    3430.84  <-- SCF
      9  -6.26617439E+004  3.62032243E+000   1.24198017E-002    3787.75  <-- SCF
     10  -6.26622389E+004  3.88419452E+000   7.85797028E-003    4135.52  <-- SCF
     11  -6.26622804E+004  3.88887727E+000   6.57747047E-004    4490.88  <-- SCF
     12  -6.26622963E+004  3.89045117E+000   2.53607592E-004    4856.13  <-- SCF
     13  -6.26623023E+004  3.89082366E+000   9.42394495E-005    5217.90  <-- SCF
     14  -6.26623055E+004  3.89156470E+000   5.17447579E-005    5582.47  <-- SCF
     15  -6.26623064E+004  3.89190925E+000   1.37460958E-005    5962.72  <-- SCF
     16  -6.26623076E+004  3.89255489E+000   1.93255964E-005    6325.37  <-- SCF
     17  -6.26623081E+004  3.89292638E+000   7.13857772E-006    6701.87  <-- SCF
     18  -6.26623085E+004  3.89337951E+000   6.90398642E-006    7060.55  <-- SCF
     19  -6.26623086E+004  3.89345406E+000   1.09886114E-006    7421.00  <-- SCF
     20  -6.26623086E+004  3.89346511E+000   1.58358902E-007    7735.02  <-- SCF
     21  -6.26623086E+004  3.89346799E+000   4.12158663E-008    8022.21  <-- SCF
     22  -6.26623086E+004  3.89347059E+000   6.24509608E-009    8276.77  <-- SCF
     23  -6.26623086E+004  3.89347053E+000   3.02070554E-009    8525.62  <-- SCF
------------------------------------------------------------------------ <-- SCF
 
Integrated Spin Density     =   -0.672948E-03 hbar/2
Integrated |Spin Density|   =    0.183393E-02 hbar/2
 
Final energy, E             =  -62662.18506102     eV
Final free energy (E-TS)    =  -62662.30857724     eV
(energies not corrected for finite basis set)
 
NB est. 0K energy (E-0.5TS)      =  -62662.24681913     eV
 

 ************************** Forces **************************
 *                                                          *
 *               Cartesian components (eV/A)                *
 * -------------------------------------------------------- *
 *                         x            y            z      *
 *                                                          *
 * P               1     -0.46147     -0.46147      0.24144 *
 * P               2     -0.03491      0.04856      0.09391 *
 * P               3      0.04857     -0.03491      0.09391 *
 * P               4      0.01452      0.01453      0.01382 *
 * P               5      0.00963      0.07135     -0.10742 *
 * P               6      0.07135      0.00963     -0.10742 *
 * P               7      0.00477      0.00478      0.01098 *
 * P               8     -0.00278      0.02007     -0.01017 *
 * P               9     -0.01675      0.06344     -0.07106 *
 * P              10      0.00974     -0.02235     -0.04275 *
 * P              11      0.01595      0.00769     -0.00646 *
 * P              12     -0.00492     -0.03870      0.00036 *
 * P              13      0.04212      0.05833      0.05181 *
 * P              14      0.00125     -0.01583      0.01450 *
 * P              15      0.02738      0.06724     -0.01298 *
 * P              16      0.02007     -0.00278     -0.01017 *
 * P              17     -0.02235      0.00974     -0.04276 *
 * P              18      0.06344     -0.01675     -0.07105 *
 * P              19      0.00769      0.01595     -0.00646 *
 * P              20     -0.03870     -0.00492      0.00036 *
 * P              21     -0.01582      0.00124      0.01450 *
 * P              22      0.05833      0.04212      0.05181 *
 * P              23      0.06723      0.02737     -0.01298 *
 * P              24     -0.02499     -0.02499      0.02011 *
 * P              25      0.01321      0.02224      0.00998 *
 * P              26      0.02224      0.01321      0.00998 *
 * P              27      0.01909      0.01909      0.01570 *
 * P              28      0.01458      0.01458     -0.01198 *
 * P              29      0.01807      0.00774     -0.00954 *
 * P              30      0.00773      0.01807     -0.00954 *
 * P              31      0.00991      0.00991     -0.00581 *
 * In              1      0.00689      0.00690     -0.00638 *
 * In              2     -0.01745     -0.04912      0.02161 *
 * In              3     -0.04911     -0.01745      0.02161 *
 * In              4      0.02680      0.02680      0.03926 *
 * In              5     -0.01006     -0.01006      0.09347 *
 * In              6     -0.04742     -0.00108      0.01488 *
 * In              7     -0.00109     -0.04742      0.01488 *
 * In              8      0.10535      0.10535     -0.25171 *
 * In              9     -0.00465      0.00185      0.05861 *
 * In             10      0.22556     -0.05196      0.07134 *
 * In             11      0.01259      0.00303     -0.02807 *
 * In             12      0.03528     -0.01493     -0.02559 *
 * In             13     -0.01020     -0.00153     -0.02718 *
 * In             14      0.04674     -0.00577     -0.01723 *
 * In             15      0.01854     -0.00412     -0.01725 *
 * In             16      0.03896     -0.00548     -0.01094 *
 * In             17      0.00185     -0.00465      0.05861 *
 * In             18      0.00303      0.01258     -0.02807 *
 * In             19     -0.05196      0.22557      0.07134 *
 * In             20     -0.01493      0.03528     -0.02559 *
 * In             21     -0.00153     -0.01020     -0.02718 *
 * In             22     -0.00412      0.01854     -0.01725 *
 * In             23     -0.00577      0.04674     -0.01723 *
 * In             24     -0.00548      0.03897     -0.01094 *
 * In             25     -0.00960     -0.00960     -0.01545 *
 * In             26     -0.00154     -0.01053     -0.01852 *
 * In             27     -0.01053     -0.00154     -0.01852 *
 * In             28     -0.00967     -0.00967      0.01416 *
 * In             29     -0.17949     -0.17949      0.06839 *
 * In             30     -0.00904     -0.03431     -0.02457 *
 * In             31     -0.03431     -0.00904     -0.02458 *
 * In             32      0.01217      0.01217     -0.04053 *
 *                                                          *
 ************************************************************

 Pseudo atomic calculation performed for P 3s2 3p3

 Converged in 23 iterations to a total energy of -208.0292 eV

 Pseudo atomic calculation performed for In 4d10 5s2 5p1

 Converged in 42 iterations to a total energy of -1747.4501 eV
Charge spilling parameter for spin component 1 = 0.17%
Charge spilling parameter for spin component 2 = 0.17%

                   Orbital Populations                  
  ---------------------------------------------------------------
     Ion    Atom   Orbital              Up        Down      Spin
  ---------------------------------------------------------------
      P     1      S                    0.874     0.874    -0.000
      P     1      Px                   0.649     0.649    -0.000
      P     1      Py                   0.649     0.649    -0.000
      P     1      Pz                   0.657     0.657    -0.000
      P     2      S                    0.871     0.871    -0.000
      P     2      Px                   0.665     0.665    -0.000
      P     2      Py                   0.648     0.648    -0.000
      P     2      Pz                   0.645     0.645    -0.000
      P     3      S                    0.871     0.871    -0.000
      P     3      Px                   0.648     0.648    -0.000
      P     3      Py                   0.665     0.665    -0.000
      P     3      Pz                   0.645     0.645    -0.000
      P     4      S                    0.868     0.868     0.000
      P     4      Px                   0.656     0.656    -0.000
      P     4      Py                   0.656     0.656    -0.000
      P     4      Pz                   0.657     0.657     0.000
      P     5      S                    0.871     0.871    -0.000
      P     5      Px                   0.661     0.661    -0.000
      P     5      Py                   0.646     0.646    -0.000
      P     5      Pz                   0.655     0.655    -0.000
      P     6      S                    0.871     0.871    -0.000
      P     6      Px                   0.646     0.646    -0.000
      P     6      Py                   0.661     0.661    -0.000
      P     6      Pz                   0.655     0.655    -0.000
      P     7      S                    0.868     0.868    -0.000
      P     7      Px                   0.655     0.655    -0.000
      P     7      Py                   0.655     0.655    -0.000
      P     7      Pz                   0.659     0.659    -0.000
      P     8      S                    0.872     0.872     0.000
      P     8      Px                   0.648     0.648     0.000
      P     8      Py                   0.646     0.646    -0.000
      P     8      Pz                   0.663     0.663    -0.000
      P     9      S                    0.871     0.871    -0.000
      P     9      Px                   0.662     0.662     0.000
      P     9      Py                   0.647     0.647    -0.000
      P     9      Pz                   0.650     0.650    -0.000
      P    10      S                    0.869     0.869     0.000
      P    10      Px                   0.655     0.655     0.000
      P    10      Py                   0.654     0.654    -0.000
      P    10      Pz                   0.658     0.658    -0.000
      P    11      S                    0.868     0.868    -0.000
      P    11      Px                   0.657     0.657    -0.000
      P    11      Py                   0.656     0.656    -0.000
      P    11      Pz                   0.655     0.655     0.000
      P    12      S                    0.868     0.868    -0.000
      P    12      Px                   0.655     0.655     0.000
      P    12      Py                   0.657     0.657    -0.000
      P    12      Pz                   0.656     0.656    -0.000
      P    13      S                    0.873     0.873    -0.000
      P    13      Px                   0.662     0.662    -0.000
      P    13      Py                   0.648     0.648    -0.000
      P    13      Pz                   0.643     0.643    -0.000
      P    14      S                    0.869     0.869     0.000
      P    14      Px                   0.659     0.659    -0.000
      P    14      Py                   0.654     0.654     0.000
      P    14      Pz                   0.652     0.652    -0.000
      P    15      S                    0.872     0.872    -0.000
      P    15      Px                   0.658     0.658    -0.000
      P    15      Py                   0.651     0.651     0.000
      P    15      Pz                   0.650     0.650    -0.000
      P    16      S                    0.872     0.872     0.000
      P    16      Px                   0.646     0.646    -0.000
      P    16      Py                   0.648     0.648     0.000
      P    16      Pz                   0.663     0.663    -0.000
      P    17      S                    0.869     0.869     0.000
      P    17      Px                   0.654     0.654    -0.000
      P    17      Py                   0.655     0.655     0.000
      P    17      Pz                   0.658     0.658    -0.000
      P    18      S                    0.871     0.871    -0.000
      P    18      Px                   0.647     0.647    -0.000
      P    18      Py                   0.662     0.662     0.000
      P    18      Pz                   0.650     0.650    -0.000
      P    19      S                    0.868     0.868    -0.000
      P    19      Px                   0.656     0.656    -0.000
      P    19      Py                   0.657     0.657     0.000
      P    19      Pz                   0.655     0.655    -0.000
      P    20      S                    0.868     0.868    -0.000
      P    20      Px                   0.657     0.657    -0.000
      P    20      Py                   0.655     0.655     0.000
      P    20      Pz                   0.656     0.656    -0.000
      P    21      S                    0.869     0.869     0.000
      P    21      Px                   0.654     0.654    -0.000
      P    21      Py                   0.659     0.659    -0.000
      P    21      Pz                   0.652     0.652    -0.000
      P    22      S                    0.873     0.873    -0.000
      P    22      Px                   0.648     0.648    -0.000
      P    22      Py                   0.662     0.662    -0.000
      P    22      Pz                   0.643     0.643    -0.000
      P    23      S                    0.872     0.872     0.000
      P    23      Px                   0.651     0.651    -0.000
      P    23      Py                   0.658     0.658    -0.000
      P    23      Pz                   0.650     0.650    -0.000
      P    24      S                    0.872     0.872    -0.000
      P    24      Px                   0.646     0.646    -0.000
      P    24      Py                   0.646     0.646    -0.000
      P    24      Pz                   0.665     0.665    -0.000
      P    25      S                    0.868     0.868     0.000
      P    25      Px                   0.656     0.656    -0.000
      P    25      Py                   0.658     0.658    -0.000
      P    25      Pz                   0.653     0.653     0.000
      P    26      S                    0.868     0.868     0.000
      P    26      Px                   0.658     0.658    -0.000
      P    26      Py                   0.656     0.656    -0.000
      P    26      Pz                   0.653     0.653     0.000
      P    27      S                    0.874     0.874     0.000
      P    27      Px                   0.646     0.646     0.000
      P    27      Py                   0.646     0.646     0.000
      P    27      Pz                   0.664     0.664    -0.000
      P    28      S                    0.868     0.868    -0.000
      P    28      Px                   0.657     0.657     0.000
      P    28      Py                   0.657     0.657     0.000
      P    28      Pz                   0.655     0.655    -0.000
      P    29      S                    0.868     0.868    -0.000
      P    29      Px                   0.656     0.656     0.000
      P    29      Py                   0.655     0.655     0.000
      P    29      Pz                   0.658     0.658     0.000
      P    30      S                    0.868     0.868     0.000
      P    30      Px                   0.655     0.655     0.000
      P    30      Py                   0.656     0.656     0.000
      P    30      Pz                   0.658     0.658    -0.000
      P    31      S                    0.867     0.867     0.000
      P    31      Px                   0.658     0.658     0.000
      P    31      Py                   0.658     0.658     0.000
      P    31      Pz                   0.655     0.654     0.000
     In     1      Dzz                  1.000     1.000     0.000
     In     1      Dzy                  0.998     0.998     0.000
     In     1      Dzx                  0.998     0.998     0.000
     In     1      Dxx-yy               1.000     1.000     0.000
     In     1      Dxy                  0.999     0.999    -0.000
     In     1      S                    0.708     0.708     0.000
     In     1      Px                   0.239     0.239    -0.000
     In     1      Py                   0.239     0.239    -0.000
     In     1      Pz                   0.242     0.242    -0.000
     In     1      S                   -0.251    -0.251     0.000
     In     2      Dzz                  1.000     1.000     0.000
     In     2      Dzy                  0.998     0.998    -0.000
     In     2      Dzx                  0.999     0.999    -0.000
     In     2      Dxx-yy               1.000     1.000     0.000
     In     2      Dxy                  0.998     0.998    -0.000
     In     2      S                    0.709     0.709    -0.000
     In     2      Px                   0.237     0.237    -0.000
     In     2      Py                   0.243     0.243    -0.000
     In     2      Pz                   0.241     0.241     0.000
     In     2      S                   -0.251    -0.251    -0.000
     In     3      Dzz                  1.000     1.000     0.000
     In     3      Dzy                  0.999     0.999    -0.000
     In     3      Dzx                  0.998     0.998    -0.000
     In     3      Dxx-yy               1.000     1.000     0.000
     In     3      Dxy                  0.998     0.998    -0.000
     In     3      S                    0.709     0.709    -0.000
     In     3      Px                   0.243     0.243    -0.000
     In     3      Py                   0.237     0.237    -0.000
     In     3      Pz                   0.241     0.241    -0.000
     In     3      S                   -0.251    -0.251    -0.000
     In     4      Dzz                  1.000     1.000     0.000
     In     4      Dzy                  0.999     0.999    -0.000
     In     4      Dzx                  0.999     0.999    -0.000
     In     4      Dxx-yy               1.000     1.000    -0.000
     In     4      Dxy                  0.998     0.998     0.000
     In     4      S                    0.709     0.709    -0.000
     In     4      Px                   0.242     0.242     0.000
     In     4      Py                   0.242     0.242     0.000
     In     4      Pz                   0.236     0.236     0.000
     In     4      S                   -0.253    -0.253    -0.000
     In     5      Dzz                  1.000     1.000     0.000
     In     5      Dzy                  0.999     0.999     0.000
     In     5      Dzx                  0.999     0.999     0.000
     In     5      Dxx-yy               1.000     1.000    -0.000
     In     5      Dxy                  0.999     0.999    -0.000
     In     5      S                    0.704     0.704     0.000
     In     5      Px                   0.239     0.239    -0.000
     In     5      Py                   0.239     0.239    -0.000
     In     5      Pz                   0.235     0.235    -0.000
     In     5      S                   -0.244    -0.244     0.000
     In     6      Dzz                  1.000     1.000     0.000
     In     6      Dzy                  0.999     0.999    -0.000
     In     6      Dzx                  0.998     0.998    -0.000
     In     6      Dxx-yy               1.000     1.000     0.000
     In     6      Dxy                  0.998     0.998    -0.000
     In     6      S                    0.709     0.709     0.000
     In     6      Px                   0.243     0.243    -0.000
     In     6      Py                   0.239     0.239     0.000
     In     6      Pz                   0.239     0.239     0.000
     In     6      S                   -0.254    -0.254    -0.000
     In     7      Dzz                  1.000     1.000    -0.000
     In     7      Dzy                  0.998     0.998    -0.000
     In     7      Dzx                  0.999     0.999    -0.000
     In     7      Dxx-yy               1.000     1.000     0.000
     In     7      Dxy                  0.998     0.998    -0.000
     In     7      S                    0.709     0.709     0.000
     In     7      Px                   0.239     0.239     0.000
     In     7      Py                   0.243     0.243    -0.000
     In     7      Pz                   0.239     0.239     0.000
     In     7      S                   -0.254    -0.254     0.000
     In     8      Dzz                  1.000     1.000     0.000
     In     8      Dzy                  0.999     0.999     0.000
     In     8      Dzx                  0.999     0.999     0.000
     In     8      Dxx-yy               1.000     1.000    -0.000
     In     8      Dxy                  0.998     0.998     0.000
     In     8      S                    0.729     0.729     0.000
     In     8      Px                   0.238     0.238     0.000
     In     8      Py                   0.238     0.238    -0.000
     In     8      Pz                   0.232     0.232     0.000
     In     8      S                   -0.243    -0.243    -0.000
     In     9      Dzz                  1.000     1.000     0.000
     In     9      Dzy                  0.999     0.999    -0.000
     In     9      Dzx                  0.999     0.999     0.000
     In     9      Dxx-yy               1.000     1.000     0.000
     In     9      Dxy                  0.998     0.998    -0.000
     In     9      S                    0.712     0.712     0.000
     In     9      Px                   0.240     0.240    -0.000
     In     9      Py                   0.242     0.242    -0.000
     In     9      Pz                   0.238     0.238     0.000
     In     9      S                   -0.250    -0.250     0.000
     In    10      Dzz                  1.000     1.000     0.000
     In    10      Dzy                  0.999     0.999     0.000
     In    10      Dzx                  0.999     0.999     0.000
     In    10      Dxx-yy               1.000     1.000     0.000
     In    10      Dxy                  0.999     0.999     0.000
     In    10      S                    0.728     0.728     0.000
     In    10      Px                   0.243     0.243    -0.000
     In    10      Py                   0.242     0.242    -0.000
     In    10      Pz                   0.239     0.239    -0.000
     In    10      S                   -0.232    -0.232    -0.000
     In    11      Dzz                  1.000     1.000     0.000
     In    11      Dzy                  0.999     0.999    -0.000
     In    11      Dzx                  0.999     0.999    -0.000
     In    11      Dxx-yy               1.000     1.000    -0.000
     In    11      Dxy                  0.999     0.999    -0.000
     In    11      S                    0.710     0.710     0.000
     In    11      Px                   0.239     0.239    -0.000
     In    11      Py                   0.241     0.241    -0.000
     In    11      Pz                   0.239     0.239    -0.000
     In    11      S                   -0.250    -0.250     0.000
     In    12      Dzz                  1.000     1.000     0.000
     In    12      Dzy                  0.999     0.999    -0.000
     In    12      Dzx                  0.998     0.998    -0.000
     In    12      Dxx-yy               1.000     1.000     0.000
     In    12      Dxy                  0.999     0.999     0.000
     In    12      S                    0.709     0.709     0.000
     In    12      Px                   0.241     0.241    -0.000
     In    12      Py                   0.238     0.238     0.000
     In    12      Pz                   0.240     0.240    -0.000
     In    12      S                   -0.254    -0.254     0.000
     In    13      Dzz                  1.000     1.000     0.000
     In    13      Dzy                  0.998     0.998    -0.000
     In    13      Dzx                  0.998     0.998    -0.000
     In    13      Dxx-yy               1.000     1.000     0.000
     In    13      Dxy                  0.999     0.999    -0.000
     In    13      S                    0.709     0.709    -0.000
     In    13      Px                   0.240     0.240    -0.000
     In    13      Py                   0.239     0.239     0.000
     In    13      Pz                   0.241     0.241     0.000
     In    13      S                   -0.254    -0.254     0.000
     In    14      Dzz                  1.000     1.000     0.000
     In    14      Dzy                  0.999     0.999    -0.000
     In    14      Dzx                  0.998     0.998    -0.000
     In    14      Dxx-yy               1.000     1.000     0.000
     In    14      Dxy                  0.998     0.998    -0.000
     In    14      S                    0.708     0.708     0.000
     In    14      Px                   0.242     0.242     0.000
     In    14      Py                   0.240     0.240     0.000
     In    14      Pz                   0.238     0.238     0.000
     In    14      S                   -0.250    -0.250     0.000
     In    15      Dzz                  1.000     1.000     0.000
     In    15      Dzy                  0.999     0.999    -0.000
     In    15      Dzx                  0.998     0.998     0.000
     In    15      Dxx-yy               1.000     1.000     0.000
     In    15      Dxy                  0.999     0.999     0.000
     In    15      S                    0.708     0.708    -0.000
     In    15      Px                   0.239     0.239    -0.000
     In    15      Py                   0.240     0.240    -0.000
     In    15      Pz                   0.241     0.241    -0.000
     In    15      S                   -0.252    -0.252     0.000
     In    16      Dzz                  1.000     1.000     0.000
     In    16      Dzy                  0.998     0.999    -0.000
     In    16      Dzx                  0.999     0.999     0.000
     In    16      Dxx-yy               1.000     1.000     0.000
     In    16      Dxy                  0.998     0.998    -0.000
     In    16      S                    0.708     0.708    -0.000
     In    16      Px                   0.240     0.240    -0.000
     In    16      Py                   0.242     0.242    -0.000
     In    16      Pz                   0.240     0.240    -0.000
     In    16      S                   -0.247    -0.247    -0.000
     In    17      Dzz                  1.000     1.000     0.000
     In    17      Dzy                  0.999     0.999     0.000
     In    17      Dzx                  0.999     0.999    -0.000
     In    17      Dxx-yy               1.000     1.000     0.000
     In    17      Dxy                  0.998     0.998    -0.000
     In    17      S                    0.712     0.712     0.000
     In    17      Px                   0.242     0.242    -0.000
     In    17      Py                   0.240     0.240    -0.000
     In    17      Pz                   0.238     0.238     0.000
     In    17      S                   -0.250    -0.250     0.000
     In    18      Dzz                  1.000     1.000     0.000
     In    18      Dzy                  0.999     0.999    -0.000
     In    18      Dzx                  0.999     0.999     0.000
     In    18      Dxx-yy               1.000     1.000    -0.000
     In    18      Dxy                  0.999     0.999    -0.000
     In    18      S                    0.710     0.710     0.000
     In    18      Px                   0.241     0.241    -0.000
     In    18      Py                   0.239     0.239    -0.000
     In    18      Pz                   0.239     0.239    -0.000
     In    18      S                   -0.250    -0.250     0.000
     In    19      Dzz                  1.000     1.000     0.000
     In    19      Dzy                  0.999     0.999     0.000
     In    19      Dzx                  0.999     0.999     0.000
     In    19      Dxx-yy               1.000     1.000     0.000
     In    19      Dxy                  0.999     0.999     0.000
     In    19      S                    0.728     0.728     0.000
     In    19      Px                   0.242     0.242    -0.000
     In    19      Py                   0.243     0.243    -0.000
     In    19      Pz                   0.239     0.239    -0.000
     In    19      S                   -0.232    -0.232    -0.000
     In    20      Dzz                  1.000     1.000     0.000
     In    20      Dzy                  0.998     0.998    -0.000
     In    20      Dzx                  0.999     0.999    -0.000
     In    20      Dxx-yy               1.000     1.000     0.000
     In    20      Dxy                  0.999     0.999     0.000
     In    20      S                    0.709     0.709     0.000
     In    20      Px                   0.238     0.238     0.000
     In    20      Py                   0.241     0.241    -0.000
     In    20      Pz                   0.240     0.240    -0.000
     In    20      S                   -0.254    -0.254     0.000
     In    21      Dzz                  1.000     1.000     0.000
     In    21      Dzy                  0.998     0.998    -0.000
     In    21      Dzx                  0.998     0.998    -0.000
     In    21      Dxx-yy               1.000     1.000     0.000
     In    21      Dxy                  0.999     0.999    -0.000
     In    21      S                    0.709     0.709    -0.000
     In    21      Px                   0.239     0.239    -0.000
     In    21      Py                   0.240     0.240    -0.000
     In    21      Pz                   0.241     0.241     0.000
     In    21      S                   -0.254    -0.254     0.000
     In    22      Dzz                  1.000     1.000     0.000
     In    22      Dzy                  0.998     0.998     0.000
     In    22      Dzx                  0.999     0.999    -0.000
     In    22      Dxx-yy               1.000     1.000     0.000
     In    22      Dxy                  0.999     0.999    -0.000
     In    22      S                    0.708     0.708    -0.000
     In    22      Px                   0.240     0.240    -0.000
     In    22      Py                   0.239     0.239    -0.000
     In    22      Pz                   0.241     0.241    -0.000
     In    22      S                   -0.252    -0.252     0.000
     In    23      Dzz                  1.000     1.000     0.000
     In    23      Dzy                  0.998     0.998    -0.000
     In    23      Dzx                  0.999     0.999    -0.000
     In    23      Dxx-yy               1.000     1.000    -0.000
     In    23      Dxy                  0.998     0.998    -0.000
     In    23      S                    0.708     0.708     0.000
     In    23      Px                   0.240     0.240     0.000
     In    23      Py                   0.242     0.242     0.000
     In    23      Pz                   0.238     0.238     0.000
     In    23      S                   -0.250    -0.250    -0.000
     In    24      Dzz                  1.000     1.000     0.000
     In    24      Dzy                  0.999     0.999     0.000
     In    24      Dzx                  0.998     0.999    -0.000
     In    24      Dxx-yy               1.000     1.000     0.000
     In    24      Dxy                  0.998     0.998    -0.000
     In    24      S                    0.708     0.708    -0.000
     In    24      Px                   0.242     0.242     0.000
     In    24      Py                   0.240     0.240    -0.000
     In    24      Pz                   0.240     0.240    -0.000
     In    24      S                   -0.247    -0.247    -0.000
     In    25      Dzz                  1.000     1.000    -0.000
     In    25      Dzy                  0.998     0.998     0.000
     In    25      Dzx                  0.998     0.998     0.000
     In    25      Dxx-yy               1.000     1.000     0.000
     In    25      Dxy                  0.999     0.999     0.000
     In    25      S                    0.707     0.707     0.000
     In    25      Px                   0.240     0.240     0.000
     In    25      Py                   0.240     0.240     0.000
     In    25      Pz                   0.240     0.240     0.000
     In    25      S                   -0.249    -0.249    -0.000
     In    26      Dzz                  1.000     1.000     0.000
     In    26      Dzy                  0.999     0.999     0.000
     In    26      Dzx                  0.998     0.998    -0.000
     In    26      Dxx-yy               1.000     1.000    -0.000
     In    26      Dxy                  0.998     0.998    -0.000
     In    26      S                    0.707     0.707    -0.000
     In    26      Px                   0.240     0.240    -0.000
     In    26      Py                   0.241     0.241    -0.000
     In    26      Pz                   0.240     0.240    -0.000
     In    26      S                   -0.247    -0.247     0.000
     In    27      Dzz                  1.000     1.000     0.000
     In    27      Dzy                  0.998     0.998    -0.000
     In    27      Dzx                  0.999     0.999     0.000
     In    27      Dxx-yy               1.000     1.000    -0.000
     In    27      Dxy                  0.998     0.998    -0.000
     In    27      S                    0.707     0.707     0.000
     In    27      Px                   0.241     0.241     0.000
     In    27      Py                   0.240     0.240    -0.000
     In    27      Pz                   0.240     0.240    -0.000
     In    27      S                   -0.247    -0.247     0.000
     In    28      Dzz                  1.000     1.000    -0.000
     In    28      Dzy                  0.999     0.999    -0.000
     In    28      Dzx                  0.999     0.999    -0.000
     In    28      Dxx-yy               1.000     1.000    -0.000
     In    28      Dxy                  0.998     0.998    -0.000
     In    28      S                    0.707     0.707     0.000
     In    28      Px                   0.240     0.240    -0.000
     In    28      Py                   0.240     0.240    -0.000
     In    28      Pz                   0.240     0.240    -0.000
     In    28      S                   -0.259    -0.259    -0.000
     In    29      Dzz                  1.000     1.000     0.000
     In    29      Dzy                  0.999     0.999    -0.000
     In    29      Dzx                  0.999     0.999    -0.000
     In    29      Dxx-yy               1.000     1.000     0.000
     In    29      Dxy                  0.999     0.999    -0.000
     In    29      S                    0.724     0.724    -0.000
     In    29      Px                   0.248     0.248    -0.000
     In    29      Py                   0.248     0.248    -0.000
     In    29      Pz                   0.239     0.239     0.000
     In    29      S                   -0.226    -0.226    -0.000
     In    30      Dzz                  1.000     1.000     0.000
     In    30      Dzy                  0.999     0.999    -0.000
     In    30      Dzx                  0.999     0.999    -0.000
     In    30      Dxx-yy               1.000     1.000     0.000
     In    30      Dxy                  0.999     0.999     0.000
     In    30      S                    0.711     0.711     0.000
     In    30      Px                   0.238     0.238     0.000
     In    30      Py                   0.241     0.241    -0.000
     In    30      Pz                   0.240     0.240     0.000
     In    30      S                   -0.250    -0.250     0.000
     In    31      Dzz                  1.000     1.000     0.000
     In    31      Dzy                  0.999     0.999    -0.000
     In    31      Dzx                  0.999     0.999    -0.000
     In    31      Dxx-yy               1.000     1.000     0.000
     In    31      Dxy                  0.999     0.999    -0.000
     In    31      S                    0.711     0.711     0.000
     In    31      Px                   0.241     0.241    -0.000
     In    31      Py                   0.238     0.238     0.000
     In    31      Pz                   0.240     0.240     0.000
     In    31      S                   -0.250    -0.250     0.000
     In    32      Dzz                  1.000     1.000     0.000
     In    32      Dzy                  0.999     0.999    -0.000
     In    32      Dzx                  0.999     0.999    -0.000
     In    32      Dxx-yy               1.000     1.000     0.000
     In    32      Dxy                  0.999     0.999    -0.000
     In    32      S                    0.710     0.710    -0.000
     In    32      Px                   0.240     0.240    -0.000
     In    32      Py                   0.240     0.240    -0.000
     In    32      Pz                   0.237     0.237    -0.000
     In    32      S                   -0.250    -0.249    -0.000
  ---------------------------------------------------------------
                           Total:     285.499   285.500    -0.001
  ---------------------------------------------------------------

     Atomic Populations (Mulliken)
     -----------------------------
Species          Ion Spin      s       p       d       f      Total   Charge(e)   Spin(hbar/2)
==============================================================================================
  P               1   up:     0.874   1.954   0.000   0.000   2.828    -0.656       -0.000
                  1   dn:     0.874   1.955   0.000   0.000   2.828
  P               2   up:     0.871   1.958   0.000   0.000   2.830    -0.659       -0.000
                  2   dn:     0.871   1.958   0.000   0.000   2.830
  P               3   up:     0.871   1.958   0.000   0.000   2.830    -0.659       -0.000
                  3   dn:     0.871   1.958   0.000   0.000   2.830
  P               4   up:     0.868   1.968   0.000   0.000   2.836    -0.672        0.000
                  4   dn:     0.868   1.968   0.000   0.000   2.836
  P               5   up:     0.871   1.962   0.000   0.000   2.833    -0.665       -0.000
                  5   dn:     0.871   1.962   0.000   0.000   2.833
  P               6   up:     0.871   1.962   0.000   0.000   2.833    -0.665       -0.000
                  6   dn:     0.871   1.962   0.000   0.000   2.833
  P               7   up:     0.868   1.969   0.000   0.000   2.836    -0.673       -0.000
                  7   dn:     0.868   1.969   0.000   0.000   2.837
  P               8   up:     0.872   1.956   0.000   0.000   2.829    -0.657       -0.000
                  8   dn:     0.872   1.956   0.000   0.000   2.829
  P               9   up:     0.871   1.959   0.000   0.000   2.830    -0.660       -0.000
                  9   dn:     0.871   1.959   0.000   0.000   2.830
  P              10   up:     0.869   1.967   0.000   0.000   2.836    -0.672       -0.000
                 10   dn:     0.869   1.967   0.000   0.000   2.836
  P              11   up:     0.868   1.968   0.000   0.000   2.836    -0.673       -0.000
                 11   dn:     0.868   1.968   0.000   0.000   2.836
  P              12   up:     0.868   1.968   0.000   0.000   2.836    -0.671        0.000
                 12   dn:     0.868   1.968   0.000   0.000   2.836
  P              13   up:     0.873   1.953   0.000   0.000   2.826    -0.653       -0.000
                 13   dn:     0.873   1.953   0.000   0.000   2.826
  P              14   up:     0.869   1.965   0.000   0.000   2.834    -0.669       -0.000
                 14   dn:     0.869   1.965   0.000   0.000   2.834
  P              15   up:     0.872   1.960   0.000   0.000   2.832    -0.663       -0.000
                 15   dn:     0.872   1.960   0.000   0.000   2.832
  P              16   up:     0.872   1.956   0.000   0.000   2.829    -0.657       -0.000
                 16   dn:     0.872   1.956   0.000   0.000   2.829
  P              17   up:     0.869   1.967   0.000   0.000   2.836    -0.672       -0.000
                 17   dn:     0.869   1.967   0.000   0.000   2.836
  P              18   up:     0.871   1.959   0.000   0.000   2.830    -0.660       -0.000
                 18   dn:     0.871   1.959   0.000   0.000   2.830
  P              19   up:     0.868   1.968   0.000   0.000   2.836    -0.673       -0.000
                 19   dn:     0.868   1.968   0.000   0.000   2.836
  P              20   up:     0.868   1.968   0.000   0.000   2.836    -0.671        0.000
                 20   dn:     0.868   1.968   0.000   0.000   2.836
  P              21   up:     0.869   1.965   0.000   0.000   2.834    -0.669        0.000
                 21   dn:     0.869   1.965   0.000   0.000   2.834
  P              22   up:     0.873   1.953   0.000   0.000   2.826    -0.653       -0.000
                 22   dn:     0.873   1.953   0.000   0.000   2.826
  P              23   up:     0.872   1.959   0.000   0.000   2.832    -0.663       -0.000
                 23   dn:     0.872   1.960   0.000   0.000   2.832
  P              24   up:     0.872   1.956   0.000   0.000   2.828    -0.656       -0.000
                 24   dn:     0.872   1.956   0.000   0.000   2.828
  P              25   up:     0.868   1.968   0.000   0.000   2.836    -0.671       -0.000
                 25   dn:     0.868   1.968   0.000   0.000   2.836
  P              26   up:     0.868   1.968   0.000   0.000   2.836    -0.671        0.000
                 26   dn:     0.868   1.968   0.000   0.000   2.836
  P              27   up:     0.874   1.956   0.000   0.000   2.830    -0.659        0.000
                 27   dn:     0.874   1.956   0.000   0.000   2.830
  P              28   up:     0.868   1.969   0.000   0.000   2.836    -0.673        0.000
                 28   dn:     0.868   1.969   0.000   0.000   2.836
  P              29   up:     0.868   1.968   0.000   0.000   2.836    -0.673        0.000
                 29   dn:     0.868   1.968   0.000   0.000   2.836
  P              30   up:     0.868   1.968   0.000   0.000   2.836    -0.673        0.000
                 30   dn:     0.868   1.968   0.000   0.000   2.836
  P              31   up:     0.867   1.970   0.000   0.000   2.837    -0.674        0.000
                 31   dn:     0.867   1.970   0.000   0.000   2.837
  In              1   up:     0.456   0.720   4.995   0.000   6.171     0.657        0.000
                  1   dn:     0.456   0.720   4.995   0.000   6.171
  In              2   up:     0.457   0.721   4.995   0.000   6.173     0.655       -0.000
                  2   dn:     0.457   0.721   4.995   0.000   6.173
  In              3   up:     0.457   0.721   4.995   0.000   6.173     0.655       -0.000
                  3   dn:     0.457   0.721   4.995   0.000   6.173
  In              4   up:     0.456   0.720   4.995   0.000   6.171     0.658       -0.000
                  4   dn:     0.456   0.720   4.995   0.000   6.171
  In              5   up:     0.460   0.713   4.995   0.000   6.169     0.663        0.000
                  5   dn:     0.460   0.713   4.995   0.000   6.169
  In              6   up:     0.455   0.721   4.995   0.000   6.171     0.659       -0.000
                  6   dn:     0.455   0.721   4.995   0.000   6.171
  In              7   up:     0.455   0.721   4.995   0.000   6.171     0.659        0.000
                  7   dn:     0.455   0.721   4.995   0.000   6.171
  In              8   up:     0.486   0.708   4.995   0.000   6.189     0.622        0.000
                  8   dn:     0.486   0.708   4.995   0.000   6.189
  In              9   up:     0.462   0.720   4.995   0.000   6.177     0.646        0.000
                  9   dn:     0.462   0.720   4.995   0.000   6.177
  In             10   up:     0.496   0.725   4.996   0.000   6.216     0.567       -0.000
                 10   dn:     0.496   0.725   4.996   0.000   6.217
  In             11   up:     0.460   0.719   4.995   0.000   6.174     0.652       -0.000
                 11   dn:     0.460   0.719   4.995   0.000   6.174
  In             12   up:     0.455   0.719   4.995   0.000   6.169     0.662        0.000
                 12   dn:     0.455   0.719   4.995   0.000   6.169
  In             13   up:     0.456   0.720   4.995   0.000   6.171     0.658       -0.000
                 13   dn:     0.456   0.720   4.995   0.000   6.171
  In             14   up:     0.458   0.720   4.995   0.000   6.172     0.655        0.000
                 14   dn:     0.457   0.720   4.995   0.000   6.172
  In             15   up:     0.456   0.719   4.995   0.000   6.170     0.659       -0.000
                 15   dn:     0.456   0.719   4.995   0.000   6.170
  In             16   up:     0.461   0.722   4.995   0.000   6.177     0.645       -0.000
                 16   dn:     0.461   0.722   4.995   0.000   6.177
  In             17   up:     0.462   0.720   4.995   0.000   6.177     0.646        0.000
                 17   dn:     0.462   0.720   4.995   0.000   6.177
  In             18   up:     0.460   0.719   4.995   0.000   6.174     0.652       -0.000
                 18   dn:     0.460   0.719   4.995   0.000   6.174
  In             19   up:     0.496   0.725   4.996   0.000   6.216     0.567       -0.000
                 19   dn:     0.496   0.725   4.996   0.000   6.217
  In             20   up:     0.455   0.719   4.995   0.000   6.169     0.662        0.000
                 20   dn:     0.455   0.719   4.995   0.000   6.169
  In             21   up:     0.456   0.720   4.995   0.000   6.171     0.658        0.000
                 21   dn:     0.456   0.720   4.995   0.000   6.171
  In             22   up:     0.456   0.719   4.995   0.000   6.170     0.659       -0.000
                 22   dn:     0.456   0.719   4.995   0.000   6.170
  In             23   up:     0.458   0.720   4.995   0.000   6.172     0.655        0.000
                 23   dn:     0.457   0.720   4.995   0.000   6.172
  In             24   up:     0.461   0.722   4.995   0.000   6.177     0.645       -0.000
                 24   dn:     0.461   0.722   4.995   0.000   6.177
  In             25   up:     0.458   0.720   4.995   0.000   6.173     0.655        0.000
                 25   dn:     0.458   0.720   4.995   0.000   6.173
  In             26   up:     0.460   0.722   4.995   0.000   6.176     0.648       -0.000
                 26   dn:     0.460   0.722   4.995   0.000   6.176
  In             27   up:     0.460   0.722   4.995   0.000   6.176     0.648        0.000
                 27   dn:     0.460   0.722   4.995   0.000   6.176
  In             28   up:     0.448   0.720   4.995   0.000   6.163     0.674       -0.000
                 28   dn:     0.448   0.720   4.995   0.000   6.163
  In             29   up:     0.498   0.734   4.996   0.000   6.228     0.543       -0.000
                 29   dn:     0.498   0.734   4.996   0.000   6.229
  In             30   up:     0.462   0.719   4.995   0.000   6.176     0.648        0.000
                 30   dn:     0.462   0.719   4.995   0.000   6.176
  In             31   up:     0.462   0.719   4.995   0.000   6.176     0.648        0.000
                 31   dn:     0.462   0.719   4.995   0.000   6.176
  In             32   up:     0.460   0.718   4.995   0.000   6.173     0.654       -0.000
                 32   dn:     0.460   0.718   4.995   0.000   6.173
==============================================================================================

                 Bond                   Population        Spin       Length (A)
================================================================================
              P 6  -- In 8                   0.70         0.00          2.52545
              P 5  -- In 8                   0.70         0.00          2.52545
              P 2  -- In 2                   0.66         0.00          2.54059
              P 3  -- In 3                   0.66         0.00          2.54059
              P 1  -- In 8                   0.70         0.00          2.54815
              P 24 -- In 27                  0.66         0.00          2.54911
              P 24 -- In 26                  0.66         0.00          2.54911
              P 4  -- In 4                   0.66        -0.00          2.54933
              P 22 -- In 23                  0.67         0.00          2.54978
              P 13 -- In 14                  0.67         0.00          2.54978
              P 20 -- In 23                  0.66        -0.00          2.54983
              P 12 -- In 14                  0.66        -0.00          2.54983
              P 16 -- In 21                  0.66         0.00          2.55002
              P 8  -- In 13                  0.66         0.00          2.55002
              P 13 -- In 16                  0.65        -0.00          2.55060
              P 22 -- In 24                  0.65         0.00          2.55060
              P 20 -- In 17                  0.65         0.00          2.55081
              P 12 -- In 9                   0.65         0.00          2.55081
              P 29 -- In 32                  0.66         0.00          2.55111
              P 30 -- In 32                  0.66         0.00          2.55111
              P 14 -- In 6                   0.66         0.00          2.55116
              P 21 -- In 7                   0.66         0.00          2.55116
              P 31 -- In 22                  0.65        -0.00          2.55156
              P 31 -- In 15                  0.65        -0.00          2.55156
              P 11 -- In 21                  0.66        -0.00          2.55258
              P 19 -- In 13                  0.66        -0.00          2.55258
              P 21 -- In 24                  0.65         0.00          2.55266
              P 14 -- In 16                  0.65         0.00          2.55266
              P 28 -- In 31                  0.66        -0.00          2.55270
              P 28 -- In 30                  0.66        -0.00          2.55270
              P 18 -- In 25                  0.65        -0.00          2.55281
              P 9  -- In 25                  0.65        -0.00          2.55281
              P 15 -- In 6                   0.65         0.00          2.55330
              P 23 -- In 7                   0.65         0.00          2.55330
              P 19 -- In 3                   0.67        -0.00          2.55364
              P 11 -- In 2                   0.67        -0.00          2.55364
              P 30 -- In 21                  0.65        -0.00          2.55393
              P 29 -- In 13                  0.65        -0.00          2.55393
              P 10 -- In 12                  0.66        -0.00          2.55453
              P 17 -- In 20                  0.66        -0.00          2.55453
              P 3  -- In 4                   0.65        -0.00          2.55517
              P 2  -- In 4                   0.65        -0.00          2.55517
              P 28 -- In 25                  0.65         0.00          2.55523
              P 9  -- In 27                  0.65        -0.00          2.55528
              P 18 -- In 26                  0.65        -0.00          2.55528
              P 7  -- In 4                   0.66         0.00          2.55634
              P 31 -- In 28                  0.66         0.00          2.55643
              P 26 -- In 28                  0.65        -0.00          2.55653
              P 25 -- In 28                  0.65         0.00          2.55653
              P 25 -- In 9                   0.66         0.00          2.55670
              P 26 -- In 17                  0.66         0.00          2.55670
              P 31 -- In 1                   0.65        -0.00          2.55671
              P 4  -- In 1                   0.64         0.00          2.55721
              P 6  -- In 14                  0.62        -0.00          2.55741
              P 5  -- In 23                  0.62        -0.00          2.55741
              P 12 -- In 12                  0.66         0.00          2.55766
              P 20 -- In 20                  0.66         0.00          2.55766
              P 7  -- In 23                  0.66        -0.00          2.55773
              P 7  -- In 14                  0.66         0.00          2.55773
              P 26 -- In 27                  0.65        -0.00          2.55786
              P 25 -- In 26                  0.65        -0.00          2.55786
              P 4  -- In 6                   0.66         0.00          2.55803
              P 4  -- In 7                   0.66        -0.00          2.55803
              P 29 -- In 15                  0.65        -0.00          2.55849
              P 30 -- In 22                  0.65        -0.00          2.55849
              P 10 -- In 1                   0.65         0.00          2.55854
              P 17 -- In 1                   0.65         0.00          2.55854
              P 16 -- In 24                  0.65        -0.00          2.55879
              P 8  -- In 16                  0.65        -0.00          2.55879
              P 25 -- In 11                  0.66         0.00          2.55900
              P 26 -- In 18                  0.66         0.00          2.55900
              P 7  -- In 25                  0.65        -0.00          2.55960
              P 28 -- In 28                  0.65         0.00          2.55998
              P 29 -- In 30                  0.65         0.00          2.56008
              P 30 -- In 31                  0.65         0.00          2.56008
              P 19 -- In 26                  0.65        -0.00          2.56082
              P 11 -- In 27                  0.65        -0.00          2.56082
              P 17 -- In 3                   0.65        -0.00          2.56100
              P 10 -- In 2                   0.65        -0.00          2.56100
              P 17 -- In 18                  0.65         0.00          2.56140
              P 10 -- In 11                  0.65        -0.00          2.56140
              P 23 -- In 9                   0.63         0.00          2.56185
              P 15 -- In 17                  0.63        -0.00          2.56185
              P 12 -- In 15                  0.64         0.00          2.56198
              P 20 -- In 22                  0.64         0.00          2.56198
              P 6  -- In 13                  0.63         0.00          2.56289
              P 5  -- In 21                  0.63         0.00          2.56289
              P 6  -- In 7                   0.60        -0.00          2.56442
              P 5  -- In 6                   0.60        -0.00          2.56442
              P 1  -- In 3                   0.63        -0.00          2.56540
              P 1  -- In 2                   0.63        -0.00          2.56540
              P 27 -- In 18                  0.63         0.00          2.56613
              P 27 -- In 11                  0.63         0.00          2.56613
              P 2  -- In 17                  0.61         0.00          2.56629
              P 3  -- In 9                   0.61         0.00          2.56629
              P 11 -- In 16                  0.65        -0.00          2.56631
              P 19 -- In 24                  0.65        -0.00          2.56631
              P 18 -- In 20                  0.64        -0.00          2.56646
              P 9  -- In 12                  0.64         0.00          2.56646
              P 21 -- In 22                  0.65        -0.00          2.56691
              P 14 -- In 15                  0.65        -0.00          2.56691
              P 15 -- In 12                  0.63         0.00          2.56780
              P 23 -- In 20                  0.63         0.00          2.56780
              P 23 -- In 30                  0.61         0.00          2.57115
              P 15 -- In 31                  0.61         0.00          2.57115
              P 13 -- In 31                  0.63         0.00          2.57150
              P 22 -- In 30                  0.63         0.00          2.57150
              P 9  -- In 10                  0.63         0.00          2.57249
              P 18 -- In 19                  0.63         0.00          2.57249
              P 24 -- In 32                  0.64        -0.00          2.57621
              P 8  -- In 11                  0.62        -0.00          2.57682
              P 16 -- In 18                  0.62        -0.00          2.57682
              P 2  -- In 19                  0.63         0.00          2.57710
              P 3  -- In 10                  0.63         0.00          2.57710
              P 21 -- In 5                   0.64        -0.00          2.57920
              P 14 -- In 5                   0.64        -0.00          2.57920
              P 27 -- In 32                  0.62        -0.00          2.58600
              P 16 -- In 19                  0.64         0.00          2.58723
              P 8  -- In 10                  0.64         0.00          2.58723
              P 27 -- In 5                   0.62         0.00          2.58985
              P 24 -- In 29                  0.61        -0.00          2.60571
              P 22 -- In 29                  0.60         0.00          2.61366
              P 13 -- In 29                  0.60         0.00          2.61366
              P 1  -- In 5                   0.58         0.00          2.63206
================================================================================

 Hirshfeld supercell size:           2           2           2
Standard grid dimensions: 240 240 240
Fine grid dimensions:     240 240 240


     Hirshfeld Analysis
     ------------------
Species   Ion     Hirshfeld Charge (e)  Spin (hbar/2)
===================================================
  P        1                -0.23        0.00
  P        2                -0.24       -0.00
  P        3                -0.24       -0.00
  P        4                -0.24        0.00
  P        5                -0.23        0.00
  P        6                -0.23        0.00
  P        7                -0.24        0.00
  P        8                -0.24       -0.00
  P        9                -0.24       -0.00
  P       10                -0.24       -0.00
  P       11                -0.24       -0.00
  P       12                -0.24        0.00
  P       13                -0.24       -0.00
  P       14                -0.24        0.00
  P       15                -0.23       -0.00
  P       16                -0.24       -0.00
  P       17                -0.24       -0.00
  P       18                -0.24       -0.00
  P       19                -0.24       -0.00
  P       20                -0.24        0.00
  P       21                -0.24        0.00
  P       22                -0.24       -0.00
  P       23                -0.23       -0.00
  P       24                -0.24       -0.00
  P       25                -0.24       -0.00
  P       26                -0.24       -0.00
  P       27                -0.24       -0.00
  P       28                -0.24       -0.00
  P       29                -0.24       -0.00
  P       30                -0.24       -0.00
  P       31                -0.24       -0.00
  In       1                 0.24       -0.00
  In       2                 0.23        0.00
  In       3                 0.23        0.00
  In       4                 0.23        0.00
  In       5                 0.24       -0.00
  In       6                 0.23        0.00
  In       7                 0.23        0.00
  In       8                 0.23        0.00
  In       9                 0.24       -0.00
  In      10                 0.18       -0.00
  In      11                 0.24       -0.00
  In      12                 0.24       -0.00
  In      13                 0.23        0.00
  In      14                 0.23        0.00
  In      15                 0.24       -0.00
  In      16                 0.23       -0.00
  In      17                 0.24       -0.00
  In      18                 0.24       -0.00
  In      19                 0.18       -0.00
  In      20                 0.24       -0.00
  In      21                 0.23        0.00
  In      22                 0.24       -0.00
  In      23                 0.23        0.00
  In      24                 0.23       -0.00
  In      25                 0.23        0.00
  In      26                 0.23       -0.00
  In      27                 0.23       -0.00
  In      28                 0.24       -0.00
  In      29                 0.16       -0.00
  In      30                 0.24       -0.00
  In      31                 0.24       -0.00
  In      32                 0.24       -0.00
===================================================

 
 A BibTeX formatted list of references used in this run has been written to 
 P_Vacancy_Migration_0->3_Singlepoints_1.bib
 
Initialisation time =     30.43 s
Calculation time    =   8780.55 s
Finalisation time   =    165.02 s
Total time          =   8975.99 s
Peak Memory Use     = 9682392 kB
 
Overall parallel efficiency rating: Terrible (33%)
 
Data was distributed by:-
G-vector (3-way); efficiency rating: Poor (36%)
k-point (36-way); efficiency rating: Very good (80%)
