 +-------------------------------------------------+
 |                                                 |
 |      CCC   AA    SSS  TTTTT  EEEEE  PPPP        |
 |     C     A  A  S       T    E      P   P       |
 |     C     AAAA   SS     T    EEE    PPPP        |
 |     C     A  A     S    T    E      P           |
 |      CCC  A  A  SSS     T    EEEEE  P           |
 |                                                 |
 +-------------------------------------------------+
 |                                                 |
 | Welcome to Academic Release CASTEP version 22.11|
 | Ab Initio Total Energy Program                  |
 |                                                 |
 | Authors:                                        |
 | M. Segall, M. Probert, C. Pickard, P. Hasnip,   |
 | S. Clark, K. Refson, J. R. Yates, M. Payne      |
 |                                                 |
 | Contributors:                                   |
 | P. Lindan, P. Haynes, J. White, V. Milman,      |
 | N. Govind, M. Gibson, P. Tulip, V. Cocula,      |
 | B. Montanari, D. Quigley, M. Glover,            |
 | L. Bernasconi, A. Perlov, M. Plummer,           |
 | E. McNellis, J. Meyer, J. Gale, D. Jochym       |
 | J. Aarons, B. Walker, R. Gillen, D. Jones       |
 | T. Green, I. J. Bush, C. J. Armstrong,          |
 | E. J. Higgins, E. L. Brown, M. S. McFly,        |
 | J. Wilkins, B-C. Shih, P. J. P. Byrne,          |
 | R. J. Maurer, J. C. Womack, J. Dziedzic,        |
 | A. Bartok-Partay, L. LeBlanc, T. K. Stenczel,   |
 | J. Kermode, S. Sturniolo, B. Shi, B. Durham     |
 | M. Evans, M. J. Smith                           |
 |                                                 |
 | Copyright (c) 2000 - 2021                       |
 |                                                 |
 |     Distributed under license from Cambridge    |
 |     Enterprise for academic use only.           |
 |                                                 |
 | Please cite                                     |
 |                                                 |
 |     "First principles methods using CASTEP"     |
 |                                                 |
 |         Zeitschrift fuer Kristallographie       |
 |           220(5-6) pp. 567-570 (2005)           |
 |                                                 |
 | S. J. Clark, M. D. Segall, C. J. Pickard,       |
 | P. J. Hasnip, M. J. Probert, K. Refson,         |
 | M. C. Payne                                     |
 |                                                 |
 |       in all publications arising from          |
 |              your use of CASTEP                 |
 |                                                 |
 +-------------------------------------------------+
 |                                                 |
 |              http://www.castep.org              |
 |                                                 |
 +-------------------------------------------------+



 Compiled for linux_x86_64_gfortran10-XT on Thu, 16 Mar 2023 13:12:36 +0000
 from code version Version unavailable
 Compiler: GNU Fortran 11.2.0; Optimisation: fast
 MATHLIBS: LibSci (LAPACK version 3.10.1)
 FFT Lib : fftw3 version commercial-fftw-3.3.10-sse2-avx-avx2-avx2_128
 Fundamental constants values: CODATA 2014

 Run started: Mon, 25 Mar 2024 19:34:36 +0000

 Atomic calculation performed for P: 1s2 2s2 2p6 3s2 3p3

 Converged in 47 iterations to an ae energy of -9309.074 eV

   ============================================================                
   | Pseudopotential Report - Date of generation 25-03-2024   |                
   ------------------------------------------------------------                
   | Element: P Ionic charge:  5.00 Level of theory: RSCAN    |                
   | Atomic Solver: Koelling-Harmon                           |                
   |                                                          |                
   |               Reference Electronic Structure             |                
   |         Orbital         Occupation         Energy        |                
   |            3s              2.000           -0.535        |                
   |            3p              3.000           -0.209        |                
   |                                                          |                
   |                 Pseudopotential Definition               |                
   |        Beta     l      e      Rc     scheme   norm       |                
   |          1      0   -0.535   1.807     qc      0         |                
   |          2      0    0.250   1.807     qc      0         |                
   |          3      1   -0.209   1.807     qc      0         |                
   |          4      1    0.250   1.807     qc      0         |                
   |          5      2    0.000   1.807     qc      0         |                
   |          6      2    0.250   1.807     qc      0         |                
   |         loc     3    0.000   1.807     pn      0         |                
   |                                                          |                
   | Augmentation charge Rinner = 1.263                       |                
   | Partial core correction Rc = 1.263                       |                
   ------------------------------------------------------------                
   | "3|1.8|4|4|5|30:31:32"                                   |                
   ------------------------------------------------------------                
   |      Author: Chris J. Pickard, Cambridge University      |                
   ============================================================                
 Warning: otfg_output_psp cannot write out meta-GGA pseudopotentials presently.

 Atomic calculation performed for In:
 1s2 2s2 2p6 3s2 3p6 3d10 4s2 4p6 4d10 5s2 5p1

 Converged in 84 iterations to an ae energy of -160093.327 eV

   ============================================================                
   | Pseudopotential Report - Date of generation 25-03-2024   |                
   ------------------------------------------------------------                
   | Element: In Ionic charge: 13.00 Level of theory: RSCAN   |                
   | Atomic Solver: Koelling-Harmon                           |                
   |                                                          |                
   |               Reference Electronic Structure             |                
   |         Orbital         Occupation         Energy        |                
   |            4d             10.000           -0.711        |                
   |            5s              2.000           -0.313        |                
   |            5p              1.000           -0.095        |                
   |                                                          |                
   |                 Pseudopotential Definition               |                
   |        Beta     l      e      Rc     scheme   norm       |                
   |          1      0   -0.313   2.501     qc      0         |                
   |          2      0    0.250   2.501     qc      0         |                
   |          3      1   -0.095   2.501     qc      0         |                
   |          4      1    0.250   2.501     qc      0         |                
   |          5      2   -0.711   2.207     qc      0         |                
   |          6      2    0.250   2.207     qc      0         |                
   |         loc     3    0.000   2.501     pn      0         |                
   |                                                          |                
   | Augmentation charge Rinner = 1.504                       |                
   | Partial core correction Rc = 1.504                       |                
   ------------------------------------------------------------                
   | "3|2.5|2.5|1.5|7|8|9|50:51:42U2.2U2.2"                   |                
   ------------------------------------------------------------                
   |      Author: Chris J. Pickard, Cambridge University      |                
   ============================================================                
 Warning: otfg_output_psp cannot write out meta-GGA pseudopotentials presently.

 Pseudo atomic calculation performed for P 3s2 3p3

 Converged in 23 iterations to a total energy of -208.0292 eV

 Pseudo atomic calculation performed for In 4d10 5s2 5p1

 Converged in 42 iterations to a total energy of -1747.4500 eV
 Calculation parallelised over 240 processes.
 Data is distributed by G-vector(6-way) and k-point(40-way)
 Each process may use up to 2 threads.

 ************************************ Title ************************************
 

 ***************************** General Parameters ******************************
  
 output verbosity                               : normal  (1)
 write checkpoint data to                       : StackingFaultStructs_(0_0_1)_(1_0_0)_8.check
 type of calculation                            : geometry optimization
 stress calculation                             : off
 density difference calculation                 : off
 electron localisation func (ELF) calculation   : off
 Hirshfeld analysis                             : on
 polarisation (Berry phase) analysis            : off
 molecular orbital projected DOS                : off
 deltaSCF calculation                           : off
 unlimited duration calculation
 timing information                             : on
 memory usage estimate                          : on
 write extra output files                       : on
 write final potential to formatted file        : off
 write final density to formatted file          : off
 write BibTeX reference list                    : on
 write OTFG pseudopotential files               : on
 write electrostatic potential file             : on
 write bands file                               : on
 checkpoint writing                             : off
  
 output         length unit                     : A
 output           mass unit                     : amu
 output           time unit                     : ps
 output         charge unit                     : e
 output           spin unit                     : hbar/2
 output         energy unit                     : eV
 output          force unit                     : eV/A
 output       velocity unit                     : A/ps
 output       pressure unit                     : GPa
 output     inv_length unit                     : 1/A
 output      frequency unit                     : cm-1
 output force constant unit                     : eV/A**2
 output         volume unit                     : A**3
 output   IR intensity unit                     : (D/A)**2/amu
 output         dipole unit                     : D
 output         efield unit                     : eV/A/e
 output        entropy unit                     : J/mol/K
 output    efield chi2 unit                     : pm/V
  
 wavefunctions paging                           : none
 random number generator seed                   : randomised (193437030)
 data distribution                              : optimal for this architecture
 optimization strategy                          : balance speed and memory

 *********************** Exchange-Correlation Parameters ***********************
  
 using functional                               : RSCAN
 relativistic treatment                         : Koelling-Harmon
 DFT+D: Semi-empirical dispersion correction    : off

 ************************* Pseudopotential Parameters **************************
  
 pseudopotential representation                 : reciprocal space
 <beta|phi> representation                      : reciprocal space
 spin-orbit coupling                            : off

 **************************** Basis Set Parameters *****************************
  
 plane wave basis set cut-off                   :   900.0000   eV
 size of standard grid                          :     2.0000
 size of   fine   gmax                          :    30.7390   1/A
 finite basis set correction                    : none

 **************************** Electronic Parameters ****************************
  
 number of  electrons                           :  216.0    
 net charge of system                           :  0.000    
 treating system as non-spin-polarized
 number of bands                                :        130

 ********************* Electronic Minimization Parameters **********************
  
 Method: Treating system as metallic with density mixing treatment of electrons,
         and number of  SD  steps               :          1
         and number of  CG  steps               :          4
  
 total energy / atom convergence tol.           : 0.1000E-07   eV
 eigen-energy convergence tolerance             : 0.2222E-08   eV
 max force / atom convergence tol.              : ignored
 convergence tolerance window                   :          3   cycles
 max. number of SCF cycles                      :         50
 number of fixed-spin iterations                :         10
 smearing scheme                                : Gaussian
 smearing width                                 : 0.2000       eV
 Fermi energy convergence tolerance             : 0.2721E-13   eV
 periodic dipole correction                     : NONE

 ************************** Density Mixing Parameters **************************
  
 density-mixing scheme                          : Pulay
 max. length of mixing history                  :         15
 charge density mixing amplitude                : 0.5000    
 cut-off energy for mixing                      :  900.0       eV

 *********************** Population Analysis Parameters ************************
  
 Population analysis with cutoff                :  3.000       A
 Population analysis output                     : summary and pdos components

 ********************** Geometry Optimization Parameters ***********************
  
 optimization method                            : LBFGS
 max. no. of LBFGS updates                      : unbounded
 preconditioned LBFGS is activated
 preconditioner type                            : EXP
     stabilization constant                     :     0.1000
     parameter A                                :     3.0000
     nearest neighbor distance                  : automatic
     cut-off distance                           : automatic
     parameter mu                               : automatic
 variable cell method                           : fixed basis quality
 max. number of steps                           :         30
 estimated bulk modulus                         :  500.0       GPa
 estimated <frequency>                          :  1668.       cm-1
 geom line minimiser                            : on
 with line minimiser tolerance                  :     0.4000
 total energy convergence tolerance             : 0.2000E-04   eV/atom
        max ionic |force| tolerance             : 0.1000E-02   eV/A
 max ionic |displacement| tolerance             : 0.1000E-02   A
   max |stress component| tolerance             : 0.1000       GPa
 convergence tolerance window                   :          2   steps
 backup results every                           :          5   steps
 write geom trajectory file                     : on

 *******************************************************************************
  

                           -------------------------------
                                      Unit Cell
                           -------------------------------
        Real Lattice(A)                      Reciprocal Lattice(1/A)
     5.9012740     0.0000000     0.0000000        1.064716756   0.000000000   0.000000000
     0.0000000     5.9012740     0.0000000        0.000000000   1.064716756  -0.327605123
     0.0000000     5.4473290    17.7038210        0.000000000   0.000000000   0.354905605

                       Lattice parameters(A)       Cell Angles
                    a =      5.901274          alpha =   72.897273
                    b =      5.901274          beta  =   90.000000
                    c =     18.522923          gamma =   90.000000

                       Current cell volume =           616.536183       A**3
                                   density =             2.837629   AMU/A**3
                                           =             4.711994     g/cm^3

                           -------------------------------
                                     Cell Contents
                           -------------------------------
                         Total number of ions in cell =   24
                      Total number of species in cell =    2
                        Max number of any one species =   12

            xxxxxxxxxxxxxxxxxxxxxxxxxxxxxxxxxxxxxxxxxxxxxxxxxxxxxxxxxxxx
            x  Element    Atom        Fractional coordinates of atoms  x
            x            Number           u          v          w      x
            x----------------------------------------------------------x
            x  P            1         0.250000  -0.092592   0.912808   x 
            x  P            2         0.250000  -0.440324   0.747851   x 
            x  P            3         0.750000   0.059676   0.747851   x 
            x  P            4         0.750000  -0.592592   0.912808   x 
            x  P            5         0.750000   0.017835   0.251512   x 
            x  P            6         0.750000   0.364948   0.417140   x 
            x  P            7         0.750000  -0.287767   0.582581   x 
            x  P            8         0.250000   0.517835   0.251512   x 
            x  P            9         0.250000   0.171109   0.085465   x 
            x  P           10         0.750000   0.671109   0.085465   x 
            x  P           11         0.250000  -0.135052   0.417140   x 
            x  P           12         0.250000   0.212233   0.582581   x 
            x  In           1         0.000000  -0.267119   0.831046   x 
            x  In           2         0.500000  -0.114206   0.665389   x 
            x  In           3         0.500000  -0.767119   0.831046   x 
            x  In           4         0.500000  -0.155869   0.168859   x 
            x  In           5         0.500000   0.497229   0.003002   x 
            x  In           6         0.000000  -0.002771   0.003002   x 
            x  In           7         0.000000   0.344131   0.168859   x 
            x  In           8         0.000000  -0.614206   0.665389   x 
            x  In           9         0.500000  -0.461454   0.499908   x 
            x  In          10         0.500000   0.191287   0.334439   x 
            x  In          11         0.000000  -0.308713   0.334439   x 
            x  In          12         0.000000   0.038546   0.499908   x 
            xxxxxxxxxxxxxxxxxxxxxxxxxxxxxxxxxxxxxxxxxxxxxxxxxxxxxxxxxxxx


                         No user defined ionic velocities

                           -------------------------------
                                   Details of Species
                           -------------------------------

                               Mass of species in AMU
                                    P   30.9737600
                                    In  114.8180000

                          Electric Quadrupole Moment (Barn)
                                    P    1.0000000 No Isotope Defined
                                    In    0.7700000 Isotope115

                          Files used for pseudopotentials:
                                    P 3|1.8|4|4|5|30:31:32
                                    In 3|2.5|2.5|1.5|7|8|9|50:51:42U2.2U2.2

                           -------------------------------
                              k-Points For BZ Sampling
                           -------------------------------
                       MP grid size for SCF calculation is  6  6  2
                            with an offset of   0.083  0.083  0.250
                       Number of kpoints used =            40

                           -------------------------------
                               Symmetry and Constraints
                           -------------------------------

                      Cell is a supercell containing 2 primitive cells
                      Maximum deviation from symmetry =  0.00000         ANG

                      Number of symmetry operations   =           1
                      Number of ionic constraints     =          48
                      Point group of crystal =     1: C1, 1, 1
                      Space group of crystal =     1: P1, P 1

             Set iprint > 1 for details on symmetry rotations/translations

                         Centre of mass is NOT constrained
             Set iprint > 1 for details of linear ionic constraints

                         Number of cell constraints= 6
                         Cell constraints are:  0 0 0 0 0 0

                         External pressure/stress (GPa)
                          0.00000   0.00000   0.00000
                                    0.00000   0.00000
                                              0.00000
 
+---------------- MEMORY AND SCRATCH DISK ESTIMATES PER PROCESS --------------+
|                                                     Memory          Disk    |
| Baseline code, static data and system overhead      488.0 MB         0.0 MB |
| BLAS internal memory storage                          0.0 MB         0.0 MB |
| Model and support data                              871.5 MB         0.0 MB |
| Electronic energy minimisation requirements          88.2 MB         0.0 MB |
| Force calculation requirements                       17.0 MB         0.0 MB |
|                                               ----------------------------- |
| Approx. total storage required per process         1447.8 MB         0.0 MB |
|                                                                             |
| Requirements will fluctuate during execution and may exceed these estimates |
+-----------------------------------------------------------------------------+
Calculating approximate eigenstates for fixed initial Hamiltonian
Cut-off for approx. calculation is  131.752 eV
Improving approx. states at cut-off of  450.000 eV
Resetting cut-off to  900.000 eV
Calculating total energy with cut-off of  900.000 eV.
------------------------------------------------------------------------ <-- SCF
SCF loop      Energy           Fermi           Energy gain       Timer   <-- SCF
                               energy          per atom          (sec)   <-- SCF
------------------------------------------------------------------------ <-- SCF
Initial  -2.36357184E+004  0.00000000E+000                        41.12  <-- SCF
      1  -2.35513815E+004  2.59269767E+000  -3.51403745E+000      52.13  <-- SCF
      2  -2.35513953E+004  2.59262959E+000   5.74492137E-004      61.86  <-- SCF
      3  -2.35763722E+004  2.89527970E+000   1.04070386E+000      72.45  <-- SCF
      4  -2.35805077E+004  2.96554481E+000   1.72311595E-001      85.24  <-- SCF
      5  -2.35786133E+004  3.32756658E+000  -7.89315346E-002      95.84  <-- SCF
      6  -2.35785474E+004  3.38290125E+000  -2.74812680E-003     106.37  <-- SCF
      7  -2.35784561E+004  3.43089258E+000  -3.80077577E-003     117.63  <-- SCF
      8  -2.35790566E+004  3.47330757E+000   2.50181365E-002     128.31  <-- SCF
      9  -2.35790547E+004  3.43108467E+000  -7.83495854E-005     139.29  <-- SCF
     10  -2.35790530E+004  3.44043522E+000  -6.98230383E-005     150.57  <-- SCF
     11  -2.35790544E+004  3.43738325E+000   5.71349383E-005     161.49  <-- SCF
     12  -2.35790546E+004  3.43583466E+000   1.03717677E-005     172.85  <-- SCF
     13  -2.35790547E+004  3.43731988E+000   3.15190942E-006     184.26  <-- SCF
     14  -2.35790547E+004  3.43712817E+000   1.05005522E-007     194.29  <-- SCF
     15  -2.35790547E+004  3.43722746E+000  -1.15902903E-007     203.24  <-- SCF
     16  -2.35790547E+004  3.43734565E+000   1.11563389E-007     211.58  <-- SCF
     17  -2.35790547E+004  3.43733724E+000   4.71383708E-010     219.41  <-- SCF
     18  -2.35790547E+004  3.43733810E+000   3.21796398E-009     227.24  <-- SCF
------------------------------------------------------------------------ <-- SCF
 
Final energy, E             =  -23579.05468885     eV
Final free energy (E-TS)    =  -23579.05471934     eV
(energies not corrected for finite basis set)
 
NB est. 0K energy (E-0.5TS)      =  -23579.05470410     eV
 
 
+---------------- MEMORY AND SCRATCH DISK ESTIMATES PER PROCESS --------------+
|                                                     Memory          Disk    |
| Model and support data                              574.7 MB         0.0 MB |
| Electronic energy minimisation requirements          88.2 MB         0.0 MB |
| Geometry minimisation requirements                  102.9 MB         0.0 MB |
|                                               ----------------------------- |
| Approx. total storage required per process          765.8 MB         0.0 MB |
|                                                                             |
| Requirements will fluctuate during execution and may exceed these estimates |
+-----------------------------------------------------------------------------+
 

 ******************************** Constrained Forces ********************************
 *                                                                                  *
 *                           Cartesian components (eV/A)                            *
 * -------------------------------------------------------------------------------- *
 *                         x                    y                    z              *
 *                                                                                  *
 * P               1      0.00000(cons'd)     -0.00000(cons'd)      0.03300         *
 * P               2      0.00000(cons'd)     -0.00000(cons'd)      0.00957         *
 * P               3     -0.00000(cons'd)      0.00000(cons'd)      0.00957         *
 * P               4      0.00000(cons'd)     -0.00000(cons'd)      0.03300         *
 * P               5     -0.00000(cons'd)      0.00000(cons'd)     -0.02943         *
 * P               6      0.00000(cons'd)      0.00000(cons'd)     -0.04447         *
 * P               7      0.00000(cons'd)      0.00000(cons'd)     -0.03455         *
 * P               8     -0.00000(cons'd)      0.00000(cons'd)     -0.02943         *
 * P               9      0.00000(cons'd)      0.00000(cons'd)      0.03361         *
 * P              10      0.00000(cons'd)      0.00000(cons'd)      0.03361         *
 * P              11     -0.00000(cons'd)      0.00000(cons'd)     -0.04447         *
 * P              12     -0.00000(cons'd)      0.00000(cons'd)     -0.03455         *
 * In              1      0.00000(cons'd)      0.00000(cons'd)     -0.03546         *
 * In              2      0.00000(cons'd)      0.00000(cons'd)      0.01741         *
 * In              3      0.00000(cons'd)      0.00000(cons'd)     -0.03546         *
 * In              4      0.00000(cons'd)      0.00000(cons'd)     -0.00358         *
 * In              5      0.00000(cons'd)      0.00000(cons'd)     -0.01142         *
 * In              6      0.00000(cons'd)      0.00000(cons'd)     -0.01142         *
 * In              7      0.00000(cons'd)      0.00000(cons'd)     -0.00358         *
 * In              8     -0.00000(cons'd)      0.00000(cons'd)      0.01741         *
 * In              9      0.00000(cons'd)      0.00000(cons'd)      0.03979         *
 * In             10      0.00000(cons'd)      0.00000(cons'd)      0.02554         *
 * In             11      0.00000(cons'd)      0.00000(cons'd)      0.02554         *
 * In             12      0.00000(cons'd)     -0.00000(cons'd)      0.03979         *
 *                                                                                  *
 ************************************************************************************
 EXP precond LBFGS => estimated nearest neighbor distance :  2.549       A
 EXP precond LBFGS => estimated cutoff distance :  5.098       A

 ************************************** Forces **************************************
 *                                                                                  *
 *                           Cartesian components (eV/A)                            *
 * -------------------------------------------------------------------------------- *
 *                         x                    y                    z              *
 *                                                                                  *
 * P               1      0.87898(cons'd)     -1.45234(cons'd)      0.03300         *
 * P               2     -0.08878(cons'd)     -0.04533(cons'd)      0.00957         *
 * P               3     -0.08878(cons'd)     -0.04533(cons'd)      0.00957         *
 * P               4      0.87898(cons'd)     -1.45234(cons'd)      0.03300         *
 * P               5     -0.01188(cons'd)      0.03106(cons'd)     -0.02943         *
 * P               6     -0.00408(cons'd)      0.00538(cons'd)     -0.04447         *
 * P               7     -0.01304(cons'd)     -0.00356(cons'd)     -0.03455         *
 * P               8     -0.01188(cons'd)      0.03106(cons'd)     -0.02943         *
 * P               9     -0.07298(cons'd)      0.24623(cons'd)      0.03361         *
 * P              10     -0.07298(cons'd)      0.24623(cons'd)      0.03361         *
 * P              11     -0.00408(cons'd)      0.00538(cons'd)     -0.04447         *
 * P              12     -0.01304(cons'd)     -0.00356(cons'd)     -0.03455         *
 * In              1      0.09014(cons'd)      0.10689(cons'd)     -0.03546         *
 * In              2      0.01164(cons'd)      0.02102(cons'd)      0.01741         *
 * In              3      0.09014(cons'd)      0.10689(cons'd)     -0.03546         *
 * In              4      0.08249(cons'd)     -0.00720(cons'd)     -0.00358         *
 * In              5     -0.88815(cons'd)      1.09537(cons'd)     -0.01142         *
 * In              6     -0.88815(cons'd)      1.09537(cons'd)     -0.01142         *
 * In              7      0.08249(cons'd)     -0.00720(cons'd)     -0.00358         *
 * In              8      0.01164(cons'd)      0.02102(cons'd)      0.01741         *
 * In              9      0.00392(cons'd)      0.00271(cons'd)      0.03979         *
 * In             10      0.01174(cons'd)     -0.00023(cons'd)      0.02554         *
 * In             11      0.01174(cons'd)     -0.00023(cons'd)      0.02554         *
 * In             12      0.00392(cons'd)      0.00271(cons'd)      0.03979         *
 *                                                                                  *
 ************************************************************************************
 doing test perturbation to get energy scale for EXP preconditioner

                           -------------------------------
                                     Cell Contents
                           -------------------------------

            xxxxxxxxxxxxxxxxxxxxxxxxxxxxxxxxxxxxxxxxxxxxxxxxxxxxxxxxxxxxxxxxx
            x  Element         Atom        Fractional coordinates of atoms  x
            x                 Number           u          v          w      x
            x---------------------------------------------------------------x
            x  P                 1         0.251413   0.910259   0.914022   x
            x  P                 2         0.251413   0.561899   0.748906   x
            x  P                 3         0.753634   0.060773   0.748906   x
            x  P                 4         0.753634   0.409484   0.914022   x
            x  P                 5         0.753634   0.018189   0.251904   x
            x  P                 6         0.753634   0.366430   0.417777   x
            x  P                 7         0.753634   0.714636   0.583441   x
            x  P                 8         0.251413   0.519543   0.251904   x
            x  P                 9         0.251413   0.171701   0.085600   x
            x  P                10         0.753634   0.673055   0.085600   x
            x  P                11         0.251413   0.867556   0.417777   x
            x  P                12         0.251413   0.213509   0.583441   x
            x  In                1         0.000000   0.735464   0.832185   x
            x  In                2         0.502671   0.888541   0.666351   x
            x  In                3         0.502671   0.234500   0.832185   x
            x  In                4         0.502671   0.846556   0.169124   x
            x  In                5         0.502671   0.498638   0.003007   x
            x  In                6         0.000000   0.999896   0.003007   x
            x  In                7         0.000000   0.345299   0.169124   x
            x  In                8         0.000000   0.387578   0.666351   x
            x  In                9         0.502671   0.540523   0.500660   x
            x  In               10         0.502671   0.192223   0.334956   x
            x  In               11         0.000000   0.693480   0.334956   x
            x  In               12         0.000000   0.039266   0.500660   x
            xxxxxxxxxxxxxxxxxxxxxxxxxxxxxxxxxxxxxxxxxxxxxxxxxxxxxxxxxxxxxxxxx


------------------------------------------------------------------------ <-- SCF
SCF loop      Energy           Fermi           Energy gain       Timer   <-- SCF
                               energy          per atom          (sec)   <-- SCF
------------------------------------------------------------------------ <-- SCF
Initial  -2.35780804E+004  0.00000000E+000                       243.05  <-- SCF
      1  -2.35789066E+004  3.43475021E+000   3.44243246E-002     253.36  <-- SCF
      2  -2.35790201E+004  3.43463205E+000   4.72852010E-003     266.37  <-- SCF
      3  -2.35790211E+004  3.43434459E+000   4.20588910E-005     277.57  <-- SCF
      4  -2.35790219E+004  3.43392777E+000   3.41336694E-005     288.96  <-- SCF
      5  -2.35790220E+004  3.43376826E+000   4.56037481E-006     300.90  <-- SCF
      6  -2.35790221E+004  3.43367022E+000   7.35630690E-007     312.32  <-- SCF
      7  -2.35790221E+004  3.43361765E+000  -5.47534670E-008     322.45  <-- SCF
      8  -2.35790221E+004  3.43356530E+000  -7.97940347E-008     332.06  <-- SCF
      9  -2.35790221E+004  3.43353467E+000  -1.84052330E-008     340.99  <-- SCF
     10  -2.35790221E+004  3.43352531E+000   2.79453071E-010     349.25  <-- SCF
     11  -2.35790221E+004  3.43352405E+000   4.36967670E-010     357.07  <-- SCF
------------------------------------------------------------------------ <-- SCF
 
Final energy, E             =  -23579.02202153     eV
Final free energy (E-TS)    =  -23579.02205049     eV
(energies not corrected for finite basis set)
 
NB est. 0K energy (E-0.5TS)      =  -23579.02203601     eV
 

 ************************************** Forces **************************************
 *                                                                                  *
 *                           Cartesian components (eV/A)                            *
 * -------------------------------------------------------------------------------- *
 *                         x                    y                    z              *
 *                                                                                  *
 * P               1      0.96552(cons'd)     -1.55356(cons'd)     -0.11665         *
 * P               2     -0.06278(cons'd)     -0.05533(cons'd)      0.01558         *
 * P               3     -0.22562(cons'd)      0.01814(cons'd)      0.01489         *
 * P               4      0.89033(cons'd)     -1.57168(cons'd)     -0.09499         *
 * P               5     -0.14800(cons'd)      0.11306(cons'd)     -0.02763         *
 * P               6     -0.13011(cons'd)      0.00723(cons'd)     -0.04271         *
 * P               7     -0.16504(cons'd)     -0.04890(cons'd)     -0.01106         *
 * P               8      0.01585(cons'd)      0.02270(cons'd)     -0.02371         *
 * P               9     -0.04825(cons'd)      0.33740(cons'd)      0.05222         *
 * P              10     -0.21277(cons'd)      0.24121(cons'd)      0.04754         *
 * P              11      0.01765(cons'd)     -0.06624(cons'd)     -0.04449         *
 * P              12     -0.00751(cons'd)      0.03459(cons'd)     -0.05339         *
 * In              1      0.27422(cons'd)      0.08145(cons'd)     -0.03934         *
 * In              2     -0.04529(cons'd)     -0.02581(cons'd)      0.01255         *
 * In              3      0.05701(cons'd)      0.12920(cons'd)     -0.07992         *
 * In              4      0.03091(cons'd)     -0.08504(cons'd)     -0.00845         *
 * In              5     -1.03817(cons'd)      1.17486(cons'd)      0.18909         *
 * In              6     -0.88289(cons'd)      1.15422(cons'd)      0.09606         *
 * In              7      0.24421(cons'd)      0.01319(cons'd)     -0.00823         *
 * In              8      0.17528(cons'd)      0.02407(cons'd)      0.01248         *
 * In              9     -0.04692(cons'd)     -0.00958(cons'd)      0.03481         *
 * In             10     -0.01744(cons'd)      0.04606(cons'd)     -0.00451         *
 * In             11      0.19742(cons'd)     -0.05034(cons'd)      0.04817         *
 * In             12      0.16237(cons'd)      0.06908(cons'd)      0.03168         *
 *                                                                                  *
 ************************************************************************************
 EXP precond LBFGS => estimated parameter mu :  2.044       eV/A**2
 LBFGS: finished iteration     0 with enthalpy= -2.35790547E+004 eV
  
 +-----------+-----------------+-----------------+------------+-----+ <-- LBFGS
 | Parameter |      value      |    tolerance    |    units   | OK? | <-- LBFGS
 +-----------+-----------------+-----------------+------------+-----+ <-- LBFGS
 |  dE/ion   |   0.000000E+000 |   2.000000E-005 |         eV | No  | <-- LBFGS
 |  |F|max   |   1.832860E+000 |   1.000000E-003 |       eV/A | No  | <-- LBFGS
 |  |dR|max  |   1.145804E-015 |   1.000000E-003 |          A | No  | <-- LBFGS
 +-----------+-----------------+-----------------+------------+-----+ <-- LBFGS
  

================================================================================
 Starting LBFGS iteration          1 ...
================================================================================
  
 +------------+-------------+-------------+-----------------+ <-- min LBFGS
 |    Step    |   lambda    |   F.delta'  |    enthalpy     | <-- min LBFGS
 +------------+-------------+-------------+-----------------+ <-- min LBFGS
 |  previous  |    0.000000 |    0.055732 |   -23579.054719 | <-- min LBFGS
 +------------+-------------+-------------+-----------------+ <-- min LBFGS
  

--------------------------------------------------------------------------------
 LBFGS: starting iteration         1 with trial guess (lambda=  1.000000)
--------------------------------------------------------------------------------

                           -------------------------------
                                     Cell Contents
                           -------------------------------

            xxxxxxxxxxxxxxxxxxxxxxxxxxxxxxxxxxxxxxxxxxxxxxxxxxxxxxxxxxxxxxxxx
            x  Element         Atom        Fractional coordinates of atoms  x
            x                 Number           u          v          w      x
            x---------------------------------------------------------------x
            x  P                 1         0.250000  -0.092793   0.913025   x
            x  P                 2         0.250000  -0.440363   0.747893   x
            x  P                 3         0.750000   0.059637   0.747893   x
            x  P                 4         0.750000  -0.592793   0.913025   x
            x  P                 5         0.750000   0.017989   0.251345   x
            x  P                 6         0.750000   0.365186   0.416882   x
            x  P                 7         0.750000  -0.287607   0.582407   x
            x  P                 8         0.250000   0.517989   0.251345   x
            x  P                 9         0.250000   0.170886   0.085706   x
            x  P                10         0.750000   0.670886   0.085706   x
            x  P                11         0.250000  -0.134814   0.416882   x
            x  P                12         0.250000   0.212393   0.582407   x
            x  In                1         0.000000  -0.267041   0.830961   x
            x  In                2         0.500000  -0.114243   0.665430   x
            x  In                3         0.500000  -0.767041   0.830961   x
            x  In                4         0.500000  -0.155879   0.168869   x
            x  In                5         0.500000   0.497127   0.003112   x
            x  In                6         0.000000  -0.002873   0.003112   x
            x  In                7         0.000000   0.344121   0.168869   x
            x  In                8        -0.000000  -0.614243   0.665430   x
            x  In                9         0.500000  -0.461495   0.499953   x
            x  In               10         0.500000   0.191309   0.334415   x
            x  In               11         0.000000  -0.308691   0.334415   x
            x  In               12         0.000000   0.038505   0.499953   x
            xxxxxxxxxxxxxxxxxxxxxxxxxxxxxxxxxxxxxxxxxxxxxxxxxxxxxxxxxxxxxxxxx


------------------------------------------------------------------------ <-- SCF
SCF loop      Energy           Fermi           Energy gain       Timer   <-- SCF
                               energy          per atom          (sec)   <-- SCF
------------------------------------------------------------------------ <-- SCF
Initial  -2.35781105E+004  0.00000000E+000                       366.72  <-- SCF
      1  -2.35789391E+004  3.43560541E+000   3.45241491E-002     377.02  <-- SCF
      2  -2.35790532E+004  3.43550151E+000   4.75370709E-003     390.09  <-- SCF
      3  -2.35790543E+004  3.43589029E+000   4.69720744E-005     401.26  <-- SCF
      4  -2.35790552E+004  3.43640002E+000   3.79587406E-005     412.57  <-- SCF
      5  -2.35790553E+004  3.43649914E+000   4.64830611E-006     425.03  <-- SCF
      6  -2.35790554E+004  3.43654792E+000   7.91438809E-007     436.29  <-- SCF
      7  -2.35790554E+004  3.43657907E+000   9.09071924E-008     446.21  <-- SCF
      8  -2.35790554E+004  3.43659772E+000   4.15841121E-009     454.78  <-- SCF
      9  -2.35790554E+004  3.43660542E+000  -9.23690362E-010     462.60  <-- SCF
------------------------------------------------------------------------ <-- SCF
 
Final energy, E             =  -23579.05533128     eV
Final free energy (E-TS)    =  -23579.05536074     eV
(energies not corrected for finite basis set)
 
NB est. 0K energy (E-0.5TS)      =  -23579.05534601     eV
 

 ******************************** Constrained Forces ********************************
 *                                                                                  *
 *                           Cartesian components (eV/A)                            *
 * -------------------------------------------------------------------------------- *
 *                         x                    y                    z              *
 *                                                                                  *
 * P               1      0.00000(cons'd)     -0.00000(cons'd)     -0.00905         *
 * P               2      0.00000(cons'd)     -0.00000(cons'd)     -0.00350         *
 * P               3     -0.00000(cons'd)     -0.00000(cons'd)     -0.00350         *
 * P               4      0.00000(cons'd)      0.00000(cons'd)     -0.00904         *
 * P               5      0.00000(cons'd)      0.00000(cons'd)      0.00033         *
 * P               6     -0.00000(cons'd)      0.00000(cons'd)      0.00583         *
 * P               7      0.00000(cons'd)     -0.00000(cons'd)      0.00526         *
 * P               8      0.00000(cons'd)      0.00000(cons'd)      0.00033         *
 * P               9      0.00000(cons'd)      0.00000(cons'd)     -0.00314         *
 * P              10      0.00000(cons'd)      0.00000(cons'd)     -0.00315         *
 * P              11      0.00000(cons'd)      0.00000(cons'd)      0.00581         *
 * P              12      0.00000(cons'd)     -0.00000(cons'd)      0.00526         *
 * In              1     -0.00000(cons'd)      0.00000(cons'd)      0.00944         *
 * In              2      0.00000(cons'd)      0.00000(cons'd)     -0.00263         *
 * In              3      0.00000(cons'd)      0.00000(cons'd)      0.00946         *
 * In              4      0.00000(cons'd)      0.00000(cons'd)      0.00306         *
 * In              5      0.00000(cons'd)      0.00000(cons'd)      0.00941         *
 * In              6      0.00000(cons'd)      0.00000(cons'd)      0.00942         *
 * In              7      0.00000(cons'd)      0.00000(cons'd)      0.00306         *
 * In              8     -0.00000(cons'd)      0.00000(cons'd)     -0.00265         *
 * In              9     -0.00000(cons'd)      0.00000(cons'd)     -0.00821         *
 * In             10      0.00000(cons'd)      0.00000(cons'd)     -0.00680         *
 * In             11      0.00000(cons'd)      0.00000(cons'd)     -0.00679         *
 * In             12      0.00000(cons'd)      0.00000(cons'd)     -0.00821         *
 *                                                                                  *
 ************************************************************************************
  
 +------------+-------------+-------------+-----------------+ <-- min LBFGS
 |    Step    |   lambda    |   F.delta'  |    enthalpy     | <-- min LBFGS
 +------------+-------------+-------------+-----------------+ <-- min LBFGS
 |  previous  |    0.000000 |    0.055732 |   -23579.054719 | <-- min LBFGS
 | trial step |    1.000000 |   -0.007208 |   -23579.055361 | <-- min LBFGS
 +------------+-------------+-------------+-----------------+ <-- min LBFGS
  
 LBFGS: finished iteration     1 with enthalpy= -2.35790554E+004 eV
  
 +-----------+-----------------+-----------------+------------+-----+ <-- LBFGS
 | Parameter |      value      |    tolerance    |    units   | OK? | <-- LBFGS
 +-----------+-----------------+-----------------+------------+-----+ <-- LBFGS
 |  dE/ion   |   2.672471E-005 |   2.000000E-005 |         eV | No  | <-- LBFGS
 |  |F|max   |   9.457401E-003 |   1.000000E-003 |       eV/A | No  | <-- LBFGS
 |  |dR|max  |   4.573475E-003 |   1.000000E-003 |          A | No  | <-- LBFGS
 +-----------+-----------------+-----------------+------------+-----+ <-- LBFGS
  

================================================================================
 Starting LBFGS iteration          2 ...
================================================================================
  
 +------------+-------------+-------------+-----------------+ <-- min LBFGS
 |    Step    |   lambda    |   F.delta'  |    enthalpy     | <-- min LBFGS
 +------------+-------------+-------------+-----------------+ <-- min LBFGS
 |  previous  |    0.000000 |    0.010482 |   -23579.055361 | <-- min LBFGS
 +------------+-------------+-------------+-----------------+ <-- min LBFGS
  

--------------------------------------------------------------------------------
 LBFGS: starting iteration         2 with trial guess (lambda=  1.000000)
--------------------------------------------------------------------------------

                           -------------------------------
                                     Cell Contents
                           -------------------------------

            xxxxxxxxxxxxxxxxxxxxxxxxxxxxxxxxxxxxxxxxxxxxxxxxxxxxxxxxxxxxxxxxx
            x  Element         Atom        Fractional coordinates of atoms  x
            x                 Number           u          v          w      x
            x---------------------------------------------------------------x
            x  P                 1         0.250000  -0.092792   0.913024   x
            x  P                 2         0.250000  -0.440357   0.747887   x
            x  P                 3         0.750000   0.059643   0.747887   x
            x  P                 4         0.750000  -0.592792   0.913024   x
            x  P                 5         0.750000   0.017999   0.251335   x
            x  P                 6         0.750000   0.365198   0.416869   x
            x  P                 7         0.750000  -0.287602   0.582403   x
            x  P                 8         0.250000   0.517999   0.251335   x
            x  P                 9         0.250000   0.170869   0.085725   x
            x  P                10         0.750000   0.670869   0.085725   x
            x  P                11         0.250000  -0.134802   0.416869   x
            x  P                12         0.250000   0.212398   0.582403   x
            x  In                1        -0.000000  -0.267080   0.831004   x
            x  In                2         0.500000  -0.114228   0.665414   x
            x  In                3         0.500000  -0.767080   0.831004   x
            x  In                4         0.500000  -0.155897   0.168888   x
            x  In                5         0.500000   0.497074   0.003170   x
            x  In                6         0.000000  -0.002926   0.003170   x
            x  In                7         0.000000   0.344103   0.168888   x
            x  In                8        -0.000000  -0.614228   0.665414   x
            x  In                9         0.500000  -0.461453   0.499907   x
            x  In               10         0.500000   0.191347   0.334374   x
            x  In               11         0.000000  -0.308653   0.334374   x
            x  In               12         0.000000   0.038547   0.499907   x
            xxxxxxxxxxxxxxxxxxxxxxxxxxxxxxxxxxxxxxxxxxxxxxxxxxxxxxxxxxxxxxxxx


------------------------------------------------------------------------ <-- SCF
SCF loop      Energy           Fermi           Energy gain       Timer   <-- SCF
                               energy          per atom          (sec)   <-- SCF
------------------------------------------------------------------------ <-- SCF
Initial  -2.35790554E+004  0.00000000E+000                       472.21  <-- SCF
      1  -2.35790553E+004  3.43679066E+000  -3.94219845E-006     482.76  <-- SCF
      2  -2.35790554E+004  3.43679065E+000   4.38454005E-006     496.05  <-- SCF
      3  -2.35790554E+004  3.43682088E+000   1.80376130E-008     506.09  <-- SCF
      4  -2.35790554E+004  3.43686004E+000  -2.52675589E-008     515.14  <-- SCF
      5  -2.35790554E+004  3.43688278E+000  -2.13148705E-008     523.99  <-- SCF
      6  -2.35790554E+004  3.43690156E+000  -9.97085462E-009     532.70  <-- SCF
      7  -2.35790554E+004  3.43691498E+000  -2.49651618E-009     541.07  <-- SCF
      8  -2.35790554E+004  3.43691713E+000   7.57926225E-011     548.85  <-- SCF
------------------------------------------------------------------------ <-- SCF
 
Final energy, E             =  -23579.05535921     eV
Final free energy (E-TS)    =  -23579.05538895     eV
(energies not corrected for finite basis set)
 
NB est. 0K energy (E-0.5TS)      =  -23579.05537408     eV
 

 ******************************** Constrained Forces ********************************
 *                                                                                  *
 *                           Cartesian components (eV/A)                            *
 * -------------------------------------------------------------------------------- *
 *                         x                    y                    z              *
 *                                                                                  *
 * P               1      0.00000(cons'd)      0.00000(cons'd)      0.00095         *
 * P               2     -0.00000(cons'd)      0.00000(cons'd)     -0.00055         *
 * P               3     -0.00000(cons'd)     -0.00000(cons'd)     -0.00055         *
 * P               4      0.00000(cons'd)     -0.00000(cons'd)      0.00093         *
 * P               5      0.00000(cons'd)      0.00000(cons'd)      0.00035         *
 * P               6      0.00000(cons'd)      0.00000(cons'd)      0.00026         *
 * P               7      0.00000(cons'd)      0.00000(cons'd)     -0.00001         *
 * P               8      0.00000(cons'd)      0.00000(cons'd)      0.00036         *
 * P               9     -0.00000(cons'd)      0.00000(cons'd)      0.00001         *
 * P              10     -0.00000(cons'd)      0.00000(cons'd)      0.00002         *
 * P              11      0.00000(cons'd)      0.00000(cons'd)      0.00028         *
 * P              12      0.00000(cons'd)     -0.00000(cons'd)     -0.00000         *
 * In              1     -0.00000(cons'd)      0.00000(cons'd)      0.00054         *
 * In              2     -0.00000(cons'd)     -0.00000(cons'd)      0.00003         *
 * In              3      0.00000(cons'd)      0.00000(cons'd)      0.00053         *
 * In              4     -0.00000(cons'd)      0.00000(cons'd)      0.00015         *
 * In              5      0.00000(cons'd)      0.00000(cons'd)     -0.00108         *
 * In              6      0.00000(cons'd)      0.00000(cons'd)     -0.00109         *
 * In              7      0.00000(cons'd)      0.00000(cons'd)      0.00015         *
 * In              8     -0.00000(cons'd)      0.00000(cons'd)      0.00004         *
 * In              9      0.00000(cons'd)      0.00000(cons'd)     -0.00033         *
 * In             10      0.00000(cons'd)      0.00000(cons'd)     -0.00032         *
 * In             11     -0.00000(cons'd)      0.00000(cons'd)     -0.00032         *
 * In             12      0.00000(cons'd)      0.00000(cons'd)     -0.00033         *
 *                                                                                  *
 ************************************************************************************
  
 +------------+-------------+-------------+-----------------+ <-- min LBFGS
 |    Step    |   lambda    |   F.delta'  |    enthalpy     | <-- min LBFGS
 +------------+-------------+-------------+-----------------+ <-- min LBFGS
 |  previous  |    0.000000 |    0.010482 |   -23579.055361 | <-- min LBFGS
 | trial step |    1.000000 |   -0.000092 |   -23579.055389 | <-- min LBFGS
 +------------+-------------+-------------+-----------------+ <-- min LBFGS
  
 LBFGS: finished iteration     2 with enthalpy= -2.35790554E+004 eV
  
 +-----------+-----------------+-----------------+------------+-----+ <-- LBFGS
 | Parameter |      value      |    tolerance    |    units   | OK? | <-- LBFGS
 +-----------+-----------------+-----------------+------------+-----+ <-- LBFGS
 |  dE/ion   |   1.175537E-006 |   2.000000E-005 |         eV | Yes | <-- LBFGS
 |  |F|max   |   1.092216E-003 |   1.000000E-003 |       eV/A | No  | <-- LBFGS
 |  |dR|max  |   1.027134E-003 |   1.000000E-003 |          A | No  | <-- LBFGS
 +-----------+-----------------+-----------------+------------+-----+ <-- LBFGS
  

================================================================================
 Starting LBFGS iteration          3 ...
================================================================================
  
 +------------+-------------+-------------+-----------------+ <-- min LBFGS
 |    Step    |   lambda    |   F.delta'  |    enthalpy     | <-- min LBFGS
 +------------+-------------+-------------+-----------------+ <-- min LBFGS
 |  previous  |    0.000000 |    0.001081 |   -23579.055389 | <-- min LBFGS
 +------------+-------------+-------------+-----------------+ <-- min LBFGS
  

--------------------------------------------------------------------------------
 LBFGS: starting iteration         3 with trial guess (lambda=  1.000000)
--------------------------------------------------------------------------------

                           -------------------------------
                                     Cell Contents
                           -------------------------------

            xxxxxxxxxxxxxxxxxxxxxxxxxxxxxxxxxxxxxxxxxxxxxxxxxxxxxxxxxxxxxxxxx
            x  Element         Atom        Fractional coordinates of atoms  x
            x                 Number           u          v          w      x
            x---------------------------------------------------------------x
            x  P                 1         0.250000  -0.092797   0.913030   x
            x  P                 2         0.250000  -0.440355   0.747885   x
            x  P                 3         0.750000   0.059645   0.747885   x
            x  P                 4         0.750000  -0.592797   0.913030   x
            x  P                 5         0.750000   0.017997   0.251337   x
            x  P                 6         0.750000   0.365198   0.416869   x
            x  P                 7         0.750000  -0.287601   0.582401   x
            x  P                 8         0.250000   0.517997   0.251337   x
            x  P                 9         0.250000   0.170870   0.085724   x
            x  P                10         0.750000   0.670870   0.085724   x
            x  P                11         0.250000  -0.134802   0.416869   x
            x  P                12         0.250000   0.212399   0.582401   x
            x  In                1        -0.000000  -0.267084   0.831008   x
            x  In                2         0.500000  -0.114228   0.665413   x
            x  In                3         0.500000  -0.767084   0.831008   x
            x  In                4         0.500000  -0.155898   0.168889   x
            x  In                5         0.500000   0.497077   0.003166   x
            x  In                6         0.000000  -0.002923   0.003166   x
            x  In                7         0.000000   0.344102   0.168889   x
            x  In                8        -0.000000  -0.614227   0.665413   x
            x  In                9         0.500000  -0.461450   0.499904   x
            x  In               10         0.500000   0.191348   0.334373   x
            x  In               11        -0.000000  -0.308652   0.334373   x
            x  In               12         0.000000   0.038550   0.499904   x
            xxxxxxxxxxxxxxxxxxxxxxxxxxxxxxxxxxxxxxxxxxxxxxxxxxxxxxxxxxxxxxxxx


------------------------------------------------------------------------ <-- SCF
SCF loop      Energy           Fermi           Energy gain       Timer   <-- SCF
                               energy          per atom          (sec)   <-- SCF
------------------------------------------------------------------------ <-- SCF
Initial  -2.35790553E+004  0.00000000E+000                       558.48  <-- SCF
      1  -2.35790554E+004  3.43690001E+000   2.65390123E-006     569.04  <-- SCF
      2  -2.35790554E+004  3.43690001E+000   2.04169599E-008     577.95  <-- SCF
      3  -2.35790554E+004  3.43689668E+000   8.05489962E-010     585.68  <-- SCF
      4  -2.35790554E+004  3.43689322E+000   2.24799887E-010     593.44  <-- SCF
------------------------------------------------------------------------ <-- SCF
 
Final energy, E             =  -23579.05535937     eV
Final free energy (E-TS)    =  -23579.05538909     eV
(energies not corrected for finite basis set)
 
NB est. 0K energy (E-0.5TS)      =  -23579.05537423     eV
 

 ******************************** Constrained Forces ********************************
 *                                                                                  *
 *                           Cartesian components (eV/A)                            *
 * -------------------------------------------------------------------------------- *
 *                         x                    y                    z              *
 *                                                                                  *
 * P               1      0.00000(cons'd)     -0.00000(cons'd)     -0.00006         *
 * P               2      0.00000(cons'd)     -0.00000(cons'd)      0.00005         *
 * P               3     -0.00000(cons'd)      0.00000(cons'd)      0.00005         *
 * P               4      0.00000(cons'd)      0.00000(cons'd)     -0.00006         *
 * P               5     -0.00000(cons'd)      0.00000(cons'd)     -0.00006         *
 * P               6     -0.00000(cons'd)      0.00000(cons'd)     -0.00028         *
 * P               7      0.00000(cons'd)     -0.00000(cons'd)     -0.00025         *
 * P               8     -0.00000(cons'd)      0.00000(cons'd)     -0.00006         *
 * P               9     -0.00000(cons'd)      0.00000(cons'd)     -0.00003         *
 * P              10      0.00000(cons'd)      0.00000(cons'd)     -0.00003         *
 * P              11      0.00000(cons'd)      0.00000(cons'd)     -0.00028         *
 * P              12     -0.00000(cons'd)      0.00000(cons'd)     -0.00025         *
 * In              1      0.00000(cons'd)      0.00000(cons'd)     -0.00054         *
 * In              2      0.00000(cons'd)     -0.00000(cons'd)      0.00004         *
 * In              3      0.00000(cons'd)      0.00000(cons'd)     -0.00054         *
 * In              4     -0.00000(cons'd)      0.00000(cons'd)     -0.00048         *
 * In              5      0.00000(cons'd)      0.00000(cons'd)      0.00092         *
 * In              6      0.00000(cons'd)      0.00000(cons'd)      0.00093         *
 * In              7     -0.00000(cons'd)      0.00000(cons'd)     -0.00048         *
 * In              8      0.00000(cons'd)      0.00000(cons'd)      0.00003         *
 * In              9     -0.00000(cons'd)      0.00000(cons'd)      0.00038         *
 * In             10     -0.00000(cons'd)      0.00000(cons'd)      0.00029         *
 * In             11      0.00000(cons'd)      0.00000(cons'd)      0.00030         *
 * In             12     -0.00000(cons'd)      0.00000(cons'd)      0.00038         *
 *                                                                                  *
 ************************************************************************************
  
 +------------+-------------+-------------+-----------------+ <-- min LBFGS
 |    Step    |   lambda    |   F.delta'  |    enthalpy     | <-- min LBFGS
 +------------+-------------+-------------+-----------------+ <-- min LBFGS
 |  previous  |    0.000000 |    0.001081 |   -23579.055389 | <-- min LBFGS
 | trial step |    1.000000 |   -0.000609 |   -23579.055389 | <-- min LBFGS
 +------------+-------------+-------------+-----------------+ <-- min LBFGS
  
 LBFGS: finished iteration     3 with enthalpy= -2.35790554E+004 eV
  
 +-----------+-----------------+-----------------+------------+-----+ <-- LBFGS
 | Parameter |      value      |    tolerance    |    units   | OK? | <-- LBFGS
 +-----------+-----------------+-----------------+------------+-----+ <-- LBFGS
 |  dE/ion   |   5.857687E-009 |   2.000000E-005 |         eV | Yes | <-- LBFGS
 |  |F|max   |   9.277848E-004 |   1.000000E-003 |       eV/A | Yes | <-- LBFGS
 |  |dR|max  |   9.421203E-005 |   1.000000E-003 |          A | Yes | <-- LBFGS
 +-----------+-----------------+-----------------+------------+-----+ <-- LBFGS
  
 LBFGS: Geometry optimization completed successfully.

================================================================================
 LBFGS: Final Configuration:
================================================================================

                           -------------------------------
                                     Cell Contents
                           -------------------------------

            xxxxxxxxxxxxxxxxxxxxxxxxxxxxxxxxxxxxxxxxxxxxxxxxxxxxxxxxxxxxxxxxx
            x  Element         Atom        Fractional coordinates of atoms  x
            x                 Number           u          v          w      x
            x---------------------------------------------------------------x
            x  P                 1         0.250000  -0.092797   0.913030   x
            x  P                 2         0.250000  -0.440355   0.747885   x
            x  P                 3         0.750000   0.059645   0.747885   x
            x  P                 4         0.750000  -0.592797   0.913030   x
            x  P                 5         0.750000   0.017997   0.251337   x
            x  P                 6         0.750000   0.365198   0.416869   x
            x  P                 7         0.750000  -0.287601   0.582401   x
            x  P                 8         0.250000   0.517997   0.251337   x
            x  P                 9         0.250000   0.170870   0.085724   x
            x  P                10         0.750000   0.670870   0.085724   x
            x  P                11         0.250000  -0.134802   0.416869   x
            x  P                12         0.250000   0.212399   0.582401   x
            x  In                1        -0.000000  -0.267084   0.831008   x
            x  In                2         0.500000  -0.114228   0.665413   x
            x  In                3         0.500000  -0.767084   0.831008   x
            x  In                4         0.500000  -0.155898   0.168889   x
            x  In                5         0.500000   0.497077   0.003166   x
            x  In                6         0.000000  -0.002923   0.003166   x
            x  In                7         0.000000   0.344102   0.168889   x
            x  In                8        -0.000000  -0.614227   0.665413   x
            x  In                9         0.500000  -0.461450   0.499904   x
            x  In               10         0.500000   0.191348   0.334373   x
            x  In               11        -0.000000  -0.308652   0.334373   x
            x  In               12         0.000000   0.038550   0.499904   x
            xxxxxxxxxxxxxxxxxxxxxxxxxxxxxxxxxxxxxxxxxxxxxxxxxxxxxxxxxxxxxxxxx


 LBFGS: Final Enthalpy     = -2.35790554E+004 eV
 LBFGS: Final <frequency>  =     239.91654 cm-1

 ******************* Unconstrained Forces *******************
 *                                                          *
 *               Cartesian components (eV/A)                *
 * -------------------------------------------------------- *
 *                         x            y            z      *
 *                                                          *
 * P               1      0.88395     -1.45538     -0.00006 *
 * P               2     -0.08876     -0.04534      0.00005 *
 * P               3     -0.08876     -0.04534      0.00005 *
 * P               4      0.88395     -1.45538     -0.00006 *
 * P               5     -0.01167      0.03098     -0.00006 *
 * P               6     -0.00419      0.00541     -0.00028 *
 * P               7     -0.01317     -0.00369     -0.00025 *
 * P               8     -0.01167      0.03098     -0.00006 *
 * P               9     -0.07299      0.24601     -0.00003 *
 * P              10     -0.07299      0.24601     -0.00003 *
 * P              11     -0.00418      0.00541     -0.00028 *
 * P              12     -0.01317     -0.00369     -0.00025 *
 * In              1      0.09026      0.10774     -0.00054 *
 * In              2      0.01163      0.02105      0.00004 *
 * In              3      0.09026      0.10774     -0.00054 *
 * In              4      0.08226     -0.00717     -0.00048 *
 * In              5     -0.89299      1.09785      0.00092 *
 * In              6     -0.89299      1.09785      0.00093 *
 * In              7      0.08226     -0.00717     -0.00048 *
 * In              8      0.01163      0.02105      0.00003 *
 * In              9      0.00391      0.00273      0.00038 *
 * In             10      0.01175     -0.00019      0.00029 *
 * In             11      0.01175     -0.00019      0.00030 *
 * In             12      0.00391      0.00273      0.00038 *
 *                                                          *
 ************************************************************

 ******************************** Constrained Forces ********************************
 *                                                                                  *
 *                           Cartesian components (eV/A)                            *
 * -------------------------------------------------------------------------------- *
 *                         x                    y                    z              *
 *                                                                                  *
 * P               1      0.00000(cons'd)     -0.00000(cons'd)     -0.00006         *
 * P               2      0.00000(cons'd)     -0.00000(cons'd)      0.00005         *
 * P               3     -0.00000(cons'd)      0.00000(cons'd)      0.00005         *
 * P               4      0.00000(cons'd)      0.00000(cons'd)     -0.00006         *
 * P               5     -0.00000(cons'd)      0.00000(cons'd)     -0.00006         *
 * P               6     -0.00000(cons'd)      0.00000(cons'd)     -0.00028         *
 * P               7      0.00000(cons'd)     -0.00000(cons'd)     -0.00025         *
 * P               8     -0.00000(cons'd)      0.00000(cons'd)     -0.00006         *
 * P               9     -0.00000(cons'd)      0.00000(cons'd)     -0.00003         *
 * P              10      0.00000(cons'd)      0.00000(cons'd)     -0.00003         *
 * P              11      0.00000(cons'd)      0.00000(cons'd)     -0.00028         *
 * P              12     -0.00000(cons'd)      0.00000(cons'd)     -0.00025         *
 * In              1      0.00000(cons'd)      0.00000(cons'd)     -0.00054         *
 * In              2      0.00000(cons'd)     -0.00000(cons'd)      0.00004         *
 * In              3      0.00000(cons'd)      0.00000(cons'd)     -0.00054         *
 * In              4     -0.00000(cons'd)      0.00000(cons'd)     -0.00048         *
 * In              5      0.00000(cons'd)      0.00000(cons'd)      0.00092         *
 * In              6      0.00000(cons'd)      0.00000(cons'd)      0.00093         *
 * In              7     -0.00000(cons'd)      0.00000(cons'd)     -0.00048         *
 * In              8      0.00000(cons'd)      0.00000(cons'd)      0.00003         *
 * In              9     -0.00000(cons'd)      0.00000(cons'd)      0.00038         *
 * In             10     -0.00000(cons'd)      0.00000(cons'd)      0.00029         *
 * In             11      0.00000(cons'd)      0.00000(cons'd)      0.00030         *
 * In             12     -0.00000(cons'd)      0.00000(cons'd)      0.00038         *
 *                                                                                  *
 ************************************************************************************

 Pseudo atomic calculation performed for P 3s2 3p3

 Converged in 23 iterations to a total energy of -208.0292 eV

 Pseudo atomic calculation performed for In 4d10 5s2 5p1

 Converged in 42 iterations to a total energy of -1747.4500 eV
Charge spilling parameter for spin component 1 = 0.16%

            Orbital Populations       
     Ion    Atom   Orbital             Charge
  -------------------------------------------
      P     1      S                    1.738
      P     1      Px                   1.314
      P     1      Py                   1.323
      P     1      Pz                   1.303
      P     2      S                    1.734
      P     2      Px                   1.313
      P     2      Py                   1.313
      P     2      Pz                   1.315
      P     3      S                    1.734
      P     3      Px                   1.313
      P     3      Py                   1.313
      P     3      Pz                   1.315
      P     4      S                    1.738
      P     4      Px                   1.314
      P     4      Py                   1.323
      P     4      Pz                   1.303
      P     5      S                    1.733
      P     5      Px                   1.314
      P     5      Py                   1.314
      P     5      Pz                   1.316
      P     6      S                    1.733
      P     6      Px                   1.314
      P     6      Py                   1.314
      P     6      Pz                   1.316
      P     7      S                    1.733
      P     7      Px                   1.314
      P     7      Py                   1.314
      P     7      Pz                   1.316
      P     8      S                    1.733
      P     8      Px                   1.314
      P     8      Py                   1.314
      P     8      Pz                   1.316
      P     9      S                    1.736
      P     9      Px                   1.312
      P     9      Py                   1.311
      P     9      Pz                   1.316
      P    10      S                    1.736
      P    10      Px                   1.312
      P    10      Py                   1.311
      P    10      Pz                   1.316
      P    11      S                    1.733
      P    11      Px                   1.314
      P    11      Py                   1.314
      P    11      Pz                   1.316
      P    12      S                    1.733
      P    12      Px                   1.314
      P    12      Py                   1.314
      P    12      Pz                   1.316
     In     1      Dzz                  1.999
     In     1      Dzy                  1.997
     In     1      Dzx                  1.997
     In     1      Dxx-yy               1.999
     In     1      Dxy                  1.997
     In     1      S                    1.433
     In     1      Px                   0.485
     In     1      Py                   0.482
     In     1      Pz                   0.482
     In     1      S                   -0.541
     In     2      Dzz                  1.999
     In     2      Dzy                  1.997
     In     2      Dzx                  1.997
     In     2      Dxx-yy               1.999
     In     2      Dxy                  1.997
     In     2      S                    1.433
     In     2      Px                   0.485
     In     2      Py                   0.485
     In     2      Pz                   0.481
     In     2      S                   -0.550
     In     3      Dzz                  1.999
     In     3      Dzy                  1.997
     In     3      Dzx                  1.997
     In     3      Dxx-yy               1.999
     In     3      Dxy                  1.997
     In     3      S                    1.433
     In     3      Px                   0.485
     In     3      Py                   0.482
     In     3      Pz                   0.482
     In     3      S                   -0.541
     In     4      Dzz                  1.999
     In     4      Dzy                  1.997
     In     4      Dzx                  1.997
     In     4      Dxx-yy               1.999
     In     4      Dxy                  1.997
     In     4      S                    1.434
     In     4      Px                   0.485
     In     4      Py                   0.484
     In     4      Pz                   0.479
     In     4      S                   -0.541
     In     5      Dzz                  1.999
     In     5      Dzy                  1.997
     In     5      Dzx                  1.996
     In     5      Dxx-yy               1.999
     In     5      Dxy                  1.997
     In     5      S                    1.435
     In     5      Px                   0.472
     In     5      Py                   0.467
     In     5      Pz                   0.491
     In     5      S                   -0.532
     In     6      Dzz                  1.999
     In     6      Dzy                  1.997
     In     6      Dzx                  1.996
     In     6      Dxx-yy               1.999
     In     6      Dxy                  1.997
     In     6      S                    1.435
     In     6      Px                   0.472
     In     6      Py                   0.467
     In     6      Pz                   0.491
     In     6      S                   -0.532
     In     7      Dzz                  1.999
     In     7      Dzy                  1.997
     In     7      Dzx                  1.997
     In     7      Dxx-yy               1.999
     In     7      Dxy                  1.997
     In     7      S                    1.434
     In     7      Px                   0.485
     In     7      Py                   0.484
     In     7      Pz                   0.479
     In     7      S                   -0.541
     In     8      Dzz                  1.999
     In     8      Dzy                  1.997
     In     8      Dzx                  1.997
     In     8      Dxx-yy               1.999
     In     8      Dxy                  1.997
     In     8      S                    1.433
     In     8      Px                   0.485
     In     8      Py                   0.485
     In     8      Pz                   0.481
     In     8      S                   -0.550
     In     9      Dzz                  1.999
     In     9      Dzy                  1.997
     In     9      Dzx                  1.997
     In     9      Dxx-yy               1.999
     In     9      Dxy                  1.997
     In     9      S                    1.432
     In     9      Px                   0.484
     In     9      Py                   0.484
     In     9      Pz                   0.481
     In     9      S                   -0.552
     In    10      Dzz                  1.999
     In    10      Dzy                  1.997
     In    10      Dzx                  1.997
     In    10      Dxx-yy               1.999
     In    10      Dxy                  1.997
     In    10      S                    1.433
     In    10      Px                   0.484
     In    10      Py                   0.484
     In    10      Pz                   0.481
     In    10      S                   -0.554
     In    11      Dzz                  1.999
     In    11      Dzy                  1.997
     In    11      Dzx                  1.997
     In    11      Dxx-yy               1.999
     In    11      Dxy                  1.997
     In    11      S                    1.433
     In    11      Px                   0.484
     In    11      Py                   0.484
     In    11      Pz                   0.481
     In    11      S                   -0.554
     In    12      Dzz                  1.999
     In    12      Dzy                  1.997
     In    12      Dzx                  1.997
     In    12      Dxx-yy               1.999
     In    12      Dxy                  1.997
     In    12      S                    1.432
     In    12      Px                   0.484
     In    12      Py                   0.484
     In    12      Pz                   0.481
     In    12      S                   -0.552
  -------------------------------------------
                           Total:     216.000
  -------------------------------------------

     Atomic Populations (Mulliken)
     -----------------------------
Species          Ion     s       p       d       f      Total   Charge (e)
==========================================================================
  P               1     1.738   3.940   0.000   0.000   5.678    -0.678
  P               2     1.734   3.942   0.000   0.000   5.676    -0.676
  P               3     1.734   3.942   0.000   0.000   5.676    -0.676
  P               4     1.738   3.940   0.000   0.000   5.678    -0.678
  P               5     1.733   3.944   0.000   0.000   5.677    -0.677
  P               6     1.733   3.944   0.000   0.000   5.677    -0.677
  P               7     1.733   3.944   0.000   0.000   5.677    -0.677
  P               8     1.733   3.944   0.000   0.000   5.677    -0.677
  P               9     1.736   3.939   0.000   0.000   5.675    -0.675
  P              10     1.736   3.939   0.000   0.000   5.675    -0.675
  P              11     1.733   3.944   0.000   0.000   5.677    -0.677
  P              12     1.733   3.944   0.000   0.000   5.677    -0.677
  In              1     0.892   1.449   9.989   0.000  12.330     0.670
  In              2     0.882   1.450   9.989   0.000  12.322     0.678
  In              3     0.892   1.449   9.989   0.000  12.330     0.670
  In              4     0.893   1.448   9.989   0.000  12.329     0.671
  In              5     0.903   1.430   9.989   0.000  12.322     0.678
  In              6     0.903   1.430   9.989   0.000  12.322     0.678
  In              7     0.893   1.448   9.989   0.000  12.329     0.671
  In              8     0.882   1.450   9.989   0.000  12.322     0.678
  In              9     0.881   1.449   9.989   0.000  12.319     0.681
  In             10     0.879   1.449   9.989   0.000  12.317     0.683
  In             11     0.879   1.449   9.989   0.000  12.317     0.683
  In             12     0.881   1.449   9.989   0.000  12.319     0.681
==========================================================================

                 Bond                   Population      Length (A)
======================================================================
              P 1  -- In 6                   0.77        2.40130
              P 4  -- In 5                   0.77        2.40130
              P 4  -- In 3                   0.60        2.54199
              P 1  -- In 1                   0.60        2.54199
              P 1  -- In 3                   0.62        2.54199
              P 4  -- In 1                   0.62        2.54199
              P 8  -- In 7                   0.58        2.54630
              P 5  -- In 4                   0.58        2.54630
              P 8  -- In 4                   0.60        2.54630
              P 5  -- In 7                   0.60        2.54630
              P 3  -- In 2                   0.59        2.54655
              P 2  -- In 8                   0.59        2.54655
              P 2  -- In 2                   0.58        2.54655
              P 3  -- In 8                   0.58        2.54655
              P 11 -- In 11                  0.59        2.54680
              P 6  -- In 10                  0.59        2.54680
              P 6  -- In 11                  0.59        2.54680
              P 11 -- In 10                  0.59        2.54680
              P 7  -- In 9                   0.59        2.54681
              P 12 -- In 12                  0.59        2.54681
              P 12 -- In 9                   0.59        2.54681
              P 7  -- In 12                  0.59        2.54681
              P 10 -- In 5                   0.55        2.54743
              P 9  -- In 6                   0.55        2.54743
              P 9  -- In 5                   0.61        2.54743
              P 10 -- In 6                   0.61        2.54743
              P 7  -- In 8                   0.58        2.55205
              P 12 -- In 8                   0.57        2.55205
              P 7  -- In 2                   0.57        2.55205
              P 12 -- In 2                   0.58        2.55205
              P 6  -- In 12                  0.58        2.55228
              P 11 -- In 12                  0.58        2.55228
              P 6  -- In 9                   0.58        2.55228
              P 11 -- In 9                   0.58        2.55228
              P 5  -- In 10                  0.58        2.55229
              P 8  -- In 10                  0.58        2.55229
              P 5  -- In 11                  0.58        2.55229
              P 8  -- In 11                  0.58        2.55229
              P 3  -- In 1                   0.56        2.55318
              P 2  -- In 1                   0.60        2.55318
              P 3  -- In 3                   0.60        2.55318
              P 2  -- In 3                   0.56        2.55318
              P 9  -- In 7                   0.57        2.55361
              P 9  -- In 4                   0.57        2.55361
              P 10 -- In 7                   0.57        2.55361
              P 10 -- In 4                   0.57        2.55361
              P 1  -- In 5                   0.31        2.90604
              P 4  -- In 6                   0.31        2.90604
======================================================================


     Hirshfeld Analysis
     ------------------
Species   Ion     Hirshfeld Charge (e)
======================================
  P        1                -0.25
  P        2                -0.24
  P        3                -0.24
  P        4                -0.25
  P        5                -0.24
  P        6                -0.24
  P        7                -0.24
  P        8                -0.24
  P        9                -0.23
  P       10                -0.23
  P       11                -0.24
  P       12                -0.24
  In       1                 0.24
  In       2                 0.24
  In       3                 0.24
  In       4                 0.24
  In       5                 0.25
  In       6                 0.25
  In       7                 0.24
  In       8                 0.24
  In       9                 0.24
  In      10                 0.24
  In      11                 0.24
  In      12                 0.24
======================================

 
 A BibTeX formatted list of references used in this run has been written to 
 StackingFaultStructs_(0_0_1)_(1_0_0)_8.bib
 
Initialisation time =     19.72 s
Calculation time    =    590.01 s
Finalisation time   =      0.99 s
Total time          =    610.71 s
Peak Memory Use     = 2295980 kB
 
Overall parallel efficiency rating: Mediocre (55%)
 
Data was distributed by:-
G-vector (6-way); efficiency rating: Mediocre (58%)
k-point (40-way); efficiency rating: Very good (87%)
