 +-------------------------------------------------+
 |                                                 |
 |      CCC   AA    SSS  TTTTT  EEEEE  PPPP        |
 |     C     A  A  S       T    E      P   P       |
 |     C     AAAA   SS     T    EEE    PPPP        |
 |     C     A  A     S    T    E      P           |
 |      CCC  A  A  SSS     T    EEEEE  P           |
 |                                                 |
 +-------------------------------------------------+
 |                                                 |
 | Welcome to Academic Release CASTEP version 24.1 |
 | Ab Initio Total Energy Program                  |
 |                                                 |
 | Authors:                                        |
 | M. Segall, M. Probert, C. Pickard, P. Hasnip,   |
 | S. Clark, K. Refson, J. R. Yates,               |
 | A. Bartok-Partay, M. Payne                      |
 |                                                 |
 | Contributors:                                   |
 | P. Lindan, P. Haynes, J. White, V. Milman,      |
 | N. Govind, M. Gibson, P. Tulip, V. Cocula,      |
 | B. Montanari, D. Quigley, M. Glover,            |
 | L. Bernasconi, A. Perlov, M. Plummer,           |
 | E. McNellis, J. Meyer, J. Gale, D. Jochym       |
 | J. Aarons, B. Walker, R. Gillen, D. Jones       |
 | T. Green, I. J. Bush, C. J. Armstrong,          |
 | E. J. Higgins, E. L. Brown, M. S. McFly,        |
 | J. Wilkins, B-C. Shih, P. J. P. Byrne,          |
 | R. J. Maurer, J. C. Womack, J. Dziedzic,        |
 | L. LeBlanc, T. K. Stenczel, J. Kermode,         |
 | S. Sturniolo, B. Shi, B. Durham, M. Evans,      |
 | M. J. Smith, A. Tamerus, Z. Hawkhead,           |
 | V. Ravindran, T. Hollins, S. A. Joyce,          |
 | R. T. Strong, A. M. Reilly, S. J. Donaldson     |
 |                                                 |
 | Copyright (c) 2000 - 2023                       |
 |                                                 |
 |     Distributed under license from Cambridge    |
 |     Enterprise for academic use only.           |
 |                                                 |
 | Please cite                                     |
 |                                                 |
 |     "First principles methods using CASTEP"     |
 |                                                 |
 |         Zeitschrift fuer Kristallographie       |
 |           220(5-6) pp. 567-570 (2005)           |
 |                                                 |
 | S. J. Clark, M. D. Segall, C. J. Pickard,       |
 | P. J. Hasnip, M. J. Probert, K. Refson,         |
 | M. C. Payne                                     |
 |                                                 |
 |       in all publications arising from          |
 |              your use of CASTEP                 |
 |                                                 |
 +-------------------------------------------------+
 |                                                 |
 |              http://www.castep.org              |
 |                                                 |
 +-------------------------------------------------+



 Compiled for  GNU 11.2.0 on 04-04-2024 18:39:17
 from code version 6355fd106 Castep241_branch Thu Mar 7 17:56:19 2024 +0000
 Compiler: GNU Fortran 11.2.0; Optimisation: FAST
 Comms   : MPI VERSION : CRAY MPICH version 8.1.23.14 (ANL base 3.4a2)
 MATHLIBS: default (LAPACK version 3.10.1)
 FFT Lib : fftw3 version commercial-fftw-3.3.10-sse2-avx-avx2-avx2_128
 Fundamental constants values: CODATA 2018

 Run started: Fri, 17 Jan 2025 05:27:50 +0000

 Atomic calculation performed for P: 1s2 2s2 2p6 3s2 3p3

 Converged in 47 iterations to an ae energy of -9309.074 eV

   ============================================================                
   | Pseudopotential Report - Date of generation 17-01-2025   |                
   ------------------------------------------------------------                
   | Element: P Ionic charge:  5.00 Level of theory: RSCAN    |                
   | Atomic Solver: Koelling-Harmon                           |                
   |                                                          |                
   |               Reference Electronic Structure             |                
   |         Orbital         Occupation         Energy        |                
   |            3s              2.000           -0.535        |                
   |            3p              3.000           -0.209        |                
   |                                                          |                
   |                 Pseudopotential Definition               |                
   |        Beta     l      e      Rc     scheme   norm       |                
   |          1      0   -0.535   1.807     qc      0         |                
   |          2      0    0.250   1.807     qc      0         |                
   |          3      1   -0.209   1.807     qc      0         |                
   |          4      1    0.250   1.807     qc      0         |                
   |          5      2    0.000   1.807     qc      0         |                
   |          6      2    0.250   1.807     qc      0         |                
   |         loc     3    0.000   1.807     pn      0         |                
   |                                                          |                
   | Augmentation charge Rinner = 1.263                       |                
   | Partial core correction Rc = 1.263                       |                
   ------------------------------------------------------------                
   | "3|1.8|4|4|5|30:31:32"                                   |                
   ------------------------------------------------------------                
   |      Author: Chris J. Pickard, Cambridge University      |                
   ============================================================                
 Warning: otfg_output_psp cannot write out meta-GGA pseudopotentials presently.

 Atomic calculation performed for In:
 1s2 2s2 2p6 3s2 3p6 3d10 4s2 4p6 4d10 5s2 5p1

 Converged in 84 iterations to an ae energy of -160093.328 eV

   ============================================================                
   | Pseudopotential Report - Date of generation 17-01-2025   |                
   ------------------------------------------------------------                
   | Element: In Ionic charge: 13.00 Level of theory: RSCAN   |                
   | Atomic Solver: Koelling-Harmon                           |                
   |                                                          |                
   |               Reference Electronic Structure             |                
   |         Orbital         Occupation         Energy        |                
   |            4d             10.000           -0.711        |                
   |            5s              2.000           -0.313        |                
   |            5p              1.000           -0.095        |                
   |                                                          |                
   |                 Pseudopotential Definition               |                
   |        Beta     l      e      Rc     scheme   norm       |                
   |          1      0   -0.313   2.501     qc      0         |                
   |          2      0    0.250   2.501     qc      0         |                
   |          3      1   -0.095   2.501     qc      0         |                
   |          4      1    0.250   2.501     qc      0         |                
   |          5      2   -0.711   2.207     qc      0         |                
   |          6      2    0.250   2.207     qc      0         |                
   |         loc     3    0.000   2.501     pn      0         |                
   |                                                          |                
   | Augmentation charge Rinner = 1.504                       |                
   | Partial core correction Rc = 1.504                       |                
   ------------------------------------------------------------                
   | "3|2.5|2.5|1.5|7|8|9|50:51:42U2.2U2.2"                   |                
   ------------------------------------------------------------                
   |      Author: Chris J. Pickard, Cambridge University      |                
   ============================================================                
 Warning: otfg_output_psp cannot write out meta-GGA pseudopotentials presently.

 Pseudo atomic calculation performed for P 3s2 3p3

 Converged in 23 iterations to a total energy of -208.0292 eV

 Pseudo atomic calculation performed for In 4d10 5s2 5p1

 Converged in 42 iterations to a total energy of -1747.4501 eV
 Calculation parallelised over 80 processes.
 Data is distributed by G-vector(4-way) and k-point(20-way)
 Each process may use up to 16 threads.

 ************************************ Title ************************************
 

 ***************************** General Parameters ******************************
  
 output verbosity                               : normal  (1)
 write checkpoint data to                       : DFT_Quads_0.check
 type of calculation                            : geometry optimization
 stress calculation                             : off
 density difference calculation                 : off
 electron localisation func (ELF) calculation   : off
 Hirshfeld analysis                             : on
 polarisation (Berry phase) analysis            : off
 molecular orbital projected DOS                : off
 deltaSCF calculation                           : off
 unlimited duration calculation
 timing information                             : on
 memory usage estimate                          : on
 write extra output files                       : on
 write final potential to formatted file        : off
 write final density to formatted file          : off
 write BibTeX reference list                    : on
 write OTFG pseudopotential files               : on
 write electrostatic potential file             : on
 write bands file                               : on
 checkpoint writing                             : off
  
 output         length unit                     : A
 output           mass unit                     : amu
 output           time unit                     : ps
 output         charge unit                     : e
 output           spin unit                     : hbar/2
 output         energy unit                     : eV
 output          force unit                     : eV/A
 output       velocity unit                     : A/ps
 output       pressure unit                     : GPa
 output     inv_length unit                     : 1/A
 output      frequency unit                     : cm-1
 output force constant unit                     : eV/A**2
 output         volume unit                     : A**3
 output   IR intensity unit                     : (D/A)**2/amu
 output         dipole unit                     : D
 output         efield unit                     : eV/A/e
 output        entropy unit                     : J/mol/K
 output    efield chi2 unit                     : pm/V
  
 wavefunctions paging                           : none
 random number generator seed                   :   52750839
 data distribution                              : optimal for this architecture
 optimization strategy                          : balance speed and memory

 *********************** Exchange-Correlation Parameters ***********************
  
 using functional                               : RSCAN
 relativistic treatment                         : Koelling-Harmon
 DFT+D: Semi-empirical dispersion correction    : off

 ************************* Pseudopotential Parameters **************************
  
 pseudopotential representation                 : reciprocal space
 <beta|phi> representation                      : reciprocal space
 spin-orbit coupling                            : off

 **************************** Basis Set Parameters *****************************
  
 plane wave basis set cut-off                   :   900.0000   eV
 size of standard grid                          :     2.0000
 size of   fine   gmax                          :    30.7390   1/A
 finite basis set correction                    : none

 **************************** Electronic Parameters ****************************
  
 number of  electrons                           :  864.0    
 net charge of system                           :  0.000    
 treating system as non-spin-polarized
 number of bands                                :        518

 ********************* Electronic Minimization Parameters **********************
  
 Method: Treating system as metallic with density mixing treatment of electrons,
         and number of  SD  steps               :          1
         and number of  CG  steps               :          4
  
 total energy / atom convergence tol.           : 0.1000E-07   eV
 eigen-energy convergence tolerance             : 0.2222E-08   eV
 max force / atom convergence tol.              : ignored
 convergence tolerance window                   :          3   cycles
 max. number of SCF cycles                      :         50
 number of fixed-spin iterations                :         10
 smearing scheme                                : Gaussian
 smearing width                                 : 0.2000       eV
 Fermi energy convergence tolerance             : 0.2721E-13   eV
 periodic dipole correction                     : NONE

 ************************** Density Mixing Parameters **************************
  
 density-mixing scheme                          : Pulay
 max. length of mixing history                  :         15
 charge density mixing amplitude                : 0.5000    
 cut-off energy for mixing                      :  900.0       eV

 *********************** Population Analysis Parameters ************************
  
 Population analysis with cutoff                :  3.000       A
 Population analysis output                     : summary and pdos components

 ********************** Geometry Optimization Parameters ***********************
  
 optimization method                            : LBFGS
 max. no. of LBFGS updates                      : unbounded
 preconditioned LBFGS is activated
 preconditioner type                            : EXP
     stabilization constant                     :     0.1000
     parameter A                                :     3.0000
     nearest neighbor distance                  : automatic
     cut-off distance                           : automatic
     parameter mu                               : automatic
 variable cell method                           : fixed basis quality
 max. number of steps                           :         30
 estimated bulk modulus                         :  500.0       GPa
 estimated <frequency>                          :  1668.       cm-1
 geom line minimiser                            : on
 with line minimiser tolerance                  :     0.4000
 total energy convergence tolerance             : 0.2000E-04   eV/atom
        max ionic |force| tolerance             : 0.1000E-02   eV/A
 max ionic |displacement| tolerance             : 0.1000E-02   A
   max |stress component| tolerance             : 0.1000       GPa
 convergence tolerance window                   :          2   steps
 backup results every                           :          5   steps
 write geom trajectory file                     : on

 *******************************************************************************
  

                           -------------------------------
                                      Unit Cell
                           -------------------------------
        Real Lattice(A)                      Reciprocal Lattice(1/A)
    14.4540870    20.4411670     0.0000000        0.217349782   0.153689496   0.000000000
    14.4540870   -20.4411670     0.0000000        0.217349782  -0.153689496   0.000000000
     0.0000000     0.0000000     4.1725360        0.000000000   0.000000000   1.505843283

                       Lattice parameters(A)       Cell Angles
                    a =     25.035214          alpha =   90.000000
                    b =     25.035214          beta  =   90.000000
                    c =      4.172536          gamma =  109.471224

                       Current cell volume =          2465.621673       A**3
                                   density =             2.838231   AMU/A**3
                                           =             4.712994     g/cm^3

                           -------------------------------
                                     Cell Contents
                           -------------------------------
                         Total number of ions in cell =   96
                      Total number of species in cell =    2
                        Max number of any one species =   48

            xxxxxxxxxxxxxxxxxxxxxxxxxxxxxxxxxxxxxxxxxxxxxxxxxxxxxxxxxxxx
            x  Element    Atom        Fractional coordinates of atoms  x
            x            Number           u          v          w      x
            x----------------------------------------------------------x
            x  P            1         0.344264   0.360896   0.768284   x 
            x  P            2         0.205702   0.217259   0.493425   x 
            x  P            3         0.361692   0.206441   0.649737   x 
            x  P            4         0.481023   0.331832   0.176785   x 
            x  P            5         0.404668   0.084651   0.101199   x 
            x  P            6         0.528276   0.211332   0.616234   x 
            x  P            7         0.571899   0.089142   0.073714   x 
            x  P            8         0.448631   0.973026   0.437984   x 
            x  P            9         0.616033   0.977377   0.413027   x 
            x  P           10         0.739594   0.092361   0.055213   x 
            x  P           11         0.658030   0.855350   0.875948   x 
            x  P           12         0.782731   0.978423   0.424523   x 
            x  P           13         0.590351   0.613764   0.761636   x 
            x  P           14         0.467610   0.487951   0.261704   x 
            x  P           15         0.602559   0.457258   0.674394   x 
            x  P           16         0.725792   0.585406   0.137125   x 
            x  P           17         0.651003   0.337603   0.114565   x 
            x  P           18         0.773612   0.464197   0.592733   x 
            x  P           19         0.819819   0.341437   0.069393   x 
            x  P           20         0.696201   0.215385   0.577598   x 
            x  P           21         0.864404   0.218039   0.559130   x 
            x  P           22         0.988859   0.343562   0.045704   x 
            x  P           23         0.906007   0.092869   0.067555   x 
            x  P           24         0.043211   0.221599   0.473333   x 
            x  P           25         0.820942   0.849601   0.971589   x 
            x  P           26         0.705499   0.736366   0.292325   x 
            x  P           27         0.850150   0.715240   0.552069   x 
            x  P           28         0.979014   0.841871   0.014640   x 
            x  P           29         0.896089   0.591048   0.057814   x 
            x  P           30         0.031051   0.718706   0.448734   x 
            x  P           31         0.076368   0.595047   0.946380   x 
            x  P           32         0.942777   0.467261   0.550418   x 
            x  P           33         0.122864   0.471426   0.436181   x 
            x  P           34         0.245346   0.598061   0.908305   x 
            x  P           35         0.169965   0.347530   0.927773   x 
            x  P           36         0.292835   0.476837   0.365104   x 
            x  P           37         0.078036   0.091081   0.011458   x 
            x  P           38         0.944537   0.973489   0.475648   x 
            x  P           39         0.115582   0.970484   0.427673   x 
            x  P           40         0.238229   0.083601   0.084701   x 
            x  P           41         0.156069   0.844425   0.940780   x 
            x  P           42         0.281116   0.969823   0.452890   x 
            x  P           43         0.323885   0.846805   0.929912   x 
            x  P           44         0.199787   0.720833   0.431937   x 
            x  P           45         0.368230   0.724383   0.394612   x 
            x  P           46         0.491544   0.850862   0.897795   x 
            x  P           47         0.415463   0.603735   0.840322   x 
            x  P           48         0.536642   0.729236   0.343915   x 
            x  In           1         0.274208   0.414594   0.862875   x 
            x  In           2         0.149850   0.284760   0.447930   x 
            x  In           3         0.294501   0.263634   0.707675   x 
            x  In           4         0.409649   0.386236   0.238364   x 
            x  In           5         0.341970   0.144650   0.124052   x 
            x  In           6         0.463358   0.270764   0.656085   x 
            x  In           7         0.508456   0.149138   0.102205   x 
            x  In           8         0.383967   0.022623   0.586973   x 
            x  In           9         0.551369   0.026974   0.562016   x 
            x  In          10         0.676115   0.153195   0.070087   x 
            x  In          11         0.595332   0.915349   0.898801   x 
            x  In          12         0.718884   0.030177   0.547110   x 
            x  In          13         0.518977   0.668168   0.823215   x 
            x  In          14         0.397441   0.542742   0.325606   x 
            x  In          15         0.532390   0.512049   0.738295   x 
            x  In          16         0.655736   0.639104   0.231716   x 
            x  In          17         0.584537   0.396265   0.159678   x 
            x  In          18         0.707165   0.523163   0.634896   x 
            x  In          19         0.754654   0.401939   0.091695   x 
            x  In          20         0.631770   0.275617   0.605387   x 
            x  In          21         0.800213   0.279167   0.568063   x 
            x  In          22         0.923632   0.404953   0.053620   x 
            x  In          23         0.843931   0.155575   0.059220   x 
            x  In          24         0.968949   0.281294   0.551265   x 
            x  In          25         0.761771   0.916399   0.915299   x 
            x  In          26         0.638308   0.793559   0.350263   x 
            x  In          27         0.794298   0.782741   0.506575   x 
            x  In          28         0.921964   0.908919   0.988542   x 
            x  In          29         0.830035   0.652470   0.072227   x 
            x  In          30         0.956789   0.778401   0.526667   x 
            x  In          31         0.011141   0.656438   0.954296   x 
            x  In          32         0.877136   0.528574   0.563819   x 
            x  In          33         0.057223   0.532739   0.449582   x 
            x  In          34         0.180181   0.658563   0.930607   x 
            x  In          35         0.103911   0.408952   0.942186   x 
            x  In          36         0.226388   0.535803   0.407267   x 
            x  In          37         0.020986   0.158129   0.985360   x 
            x  In          38         0.884418   0.029516   0.572326   x 
            x  In          39         0.055463   0.026511   0.524352   x 
            x  In          40         0.179058   0.150399   0.028410   x 
            x  In          41         0.093993   0.907131   0.932445   x 
            x  In          42         0.217269   0.021577   0.575477   x 
            x  In          43         0.260406   0.907639   0.944787   x 
            x  In          44         0.135596   0.781961   0.440870   x 
            x  In          45         0.303799   0.784615   0.422402   x 
            x  In          46         0.428101   0.910859   0.926286   x 
            x  In          47         0.348997   0.662397   0.885435   x 
            x  In          48         0.471724   0.788668   0.383766   x 
            xxxxxxxxxxxxxxxxxxxxxxxxxxxxxxxxxxxxxxxxxxxxxxxxxxxxxxxxxxxx


                         No user defined ionic velocities

                           -------------------------------
                                   Details of Species
                           -------------------------------

                               Mass of species in AMU
                                    P   30.9737600
                                    In  114.8180000

                          Electric Quadrupole Moment (Barn)
                                    P    1.0000000 No Isotope Defined
                                    In    0.7700000 Isotope115

                          Files used for pseudopotentials:
                                    P 3|1.8|4|4|5|30:31:32
                                    In 3|2.5|2.5|1.5|7|8|9|50:51:42U2.2U2.2

                           -------------------------------
                              k-Points For BZ Sampling
                           -------------------------------
                       MP grid size for SCF calculation is  2  2  8
                            with an offset of   0.250  0.250  0.062
                       Number of kpoints used =            20

                           -------------------------------
                               Symmetry and Constraints
                           -------------------------------

                      Maximum deviation from symmetry =  0.00000         ANG

                      Number of symmetry operations   =           1
                      Number of ionic constraints     =           3
                      Point group of crystal =     1: C1, 1, 1
                      Space group of crystal =     1: P1, P 1

             Set iprint > 1 for details on symmetry rotations/translations

                         Centre of mass is constrained
             Set iprint > 1 for details of linear ionic constraints

                         Number of cell constraints= 6
                         Cell constraints are:  0 0 0 0 0 0

                         External pressure/stress (GPa)
                          0.00000   0.00000   0.00000
                                    0.00000   0.00000
                                              0.00000
 
+---------------- MEMORY AND SCRATCH DISK ESTIMATES PER PROCESS --------------+
|                                                     Memory          Disk    |
| Baseline code, static data and system overhead      368.0 MB         0.0 MB |
| BLAS internal memory storage                          0.0 MB         0.0 MB |
| Model and support data                             5399.6 MB         0.0 MB |
| Electronic energy minimisation requirements        1424.9 MB         0.0 MB |
| Force calculation requirements                      104.2 MB         0.0 MB |
|                                               ----------------------------- |
| Approx. total storage required per process         7192.5 MB         0.0 MB |
|                                                                             |
| Requirements will fluctuate during execution and may exceed these estimates |
+-----------------------------------------------------------------------------+
Calculating approximate eigenstates for fixed initial Hamiltonian
Cut-off for approx. calculation is   89.988 eV
Improving approx. states at cut-off of  450.000 eV
Resetting cut-off to  900.000 eV
Calculating total energy with cut-off of  900.000 eV.
------------------------------------------------------------------------ <-- SCF
SCF loop      Energy           Fermi           Energy gain       Timer   <-- SCF
                               energy          per atom          (sec)   <-- SCF
------------------------------------------------------------------------ <-- SCF
Initial  -9.45619515E+004  0.00000000E+000                       498.37  <-- SCF
      1  -9.42013630E+004  2.73937451E+000  -3.75613043E+000    1003.74  <-- SCF
      2  -9.42017853E+004  2.73867639E+000   4.39847031E-003    1346.86  <-- SCF
      3  -9.43006924E+004  3.25615450E+000   1.03028305E+000    1735.74  <-- SCF
      4  -9.43184801E+004  3.33561281E+000   1.85288082E-001    2283.42  <-- SCF
      5  -9.43068000E+004  3.61022228E+000  -1.21667678E-001    2654.98  <-- SCF
      6  -9.43096012E+004  3.68038144E+000   2.91794118E-002    3022.28  <-- SCF
      7  -9.43089971E+004  3.72561172E+000  -6.29323293E-003    3427.69  <-- SCF
      8  -9.43111691E+004  3.71560515E+000   2.26256712E-002    3828.21  <-- SCF
      9  -9.43111129E+004  3.69590083E+000  -5.85458013E-004    4205.13  <-- SCF
     10  -9.43113345E+004  3.68141461E+000   2.30785654E-003    4608.59  <-- SCF
     11  -9.43113717E+004  3.68874244E+000   3.88122824E-004    5002.22  <-- SCF
     12  -9.43113993E+004  3.68604437E+000   2.87112140E-004    5395.80  <-- SCF
     13  -9.43114002E+004  3.69038313E+000   9.42307292E-006    5804.99  <-- SCF
     14  -9.43114000E+004  3.68774985E+000  -2.19288308E-006    6203.40  <-- SCF
     15  -9.43114001E+004  3.68758795E+000   8.39605027E-007    6608.15  <-- SCF
     16  -9.43114000E+004  3.68742194E+000  -4.98259028E-007    6959.78  <-- SCF
     17  -9.43114001E+004  3.68738419E+000   8.23744647E-007    7312.58  <-- SCF
     18  -9.43114001E+004  3.68759557E+000   9.96389415E-011    7616.15  <-- SCF
     19  -9.43114001E+004  3.68759739E+000  -1.32399916E-008    7897.88  <-- SCF
     20  -9.43114001E+004  3.68762971E+000   1.17872997E-008    8156.67  <-- SCF
     21  -9.43114001E+004  3.68762692E+000   1.02706738E-009    8425.77  <-- SCF
     22  -9.43114001E+004  3.68762885E+000  -1.08275176E-011    8690.91  <-- SCF
------------------------------------------------------------------------ <-- SCF
 
Final energy, E             =  -94311.33984383     eV
Final free energy (E-TS)    =  -94311.40011406     eV
(energies not corrected for finite basis set)
 
NB est. 0K energy (E-0.5TS)      =  -94311.36997894     eV
 
 
+---------------- MEMORY AND SCRATCH DISK ESTIMATES PER PROCESS --------------+
|                                                     Memory          Disk    |
| Model and support data                             3500.3 MB         0.0 MB |
| Electronic energy minimisation requirements        1424.9 MB         0.0 MB |
| Geometry minimisation requirements                 1739.5 MB         0.0 MB |
|                                               ----------------------------- |
| Approx. total storage required per process         6664.7 MB         0.0 MB |
|                                                                             |
| Requirements will fluctuate during execution and may exceed these estimates |
+-----------------------------------------------------------------------------+
 

 ************************************** Forces **************************************
 *                                                                                  *
 *                           Cartesian components (eV/A)                            *
 * -------------------------------------------------------------------------------- *
 *                         x                    y                    z              *
 *                                                                                  *
 * P               1      1.09813             -0.70108             -0.25651         *
 * P               2     -1.52211             -0.68646              0.06010         *
 * P               3     -0.06626             -0.47374             -0.77996         *
 * P               4     -0.01421             -0.36237             -0.61519         *
 * P               5      0.24607             -0.08433             -0.59932         *
 * P               6     -0.01425             -0.10745             -0.34639         *
 * P               7      0.20317             -0.15473             -0.54231         *
 * P               8     -0.34136              0.95342              0.16817         *
 * P               9     -0.27915              0.89830              0.10709         *
 * P              10      0.18683             -0.18147             -0.44654         *
 * P              11      0.05171             -0.08848             -0.48984         *
 * P              12     -0.34120              0.95482              0.17543         *
 * P              13      0.03095             -0.37325             -0.44483         *
 * P              14      0.16869             -0.28325             -0.37654         *
 * P              15      0.17258             -0.11623             -0.51646         *
 * P              16      0.09048              0.11009             -0.09800         *
 * P              17     -0.05753             -0.10450             -0.21417         *
 * P              18     -0.12440             -0.03100              0.00225         *
 * P              19     -0.06280             -0.05949             -0.05427         *
 * P              20      0.01930             -0.02239             -0.19411         *
 * P              21      0.07416              0.07904             -0.06499         *
 * P              22      0.92483              0.39941             -0.23113         *
 * P              23      0.99708              0.33076             -0.45686         *
 * P              24     -0.01476             -0.60684              0.47402         *
 * P              25     -0.30048             -0.34125              0.58625         *
 * P              26     -0.44558             -1.73890             -0.61244         *
 * P              27      0.51520              0.50946              0.42794         *
 * P              28      0.99457              0.66806              0.06812         *
 * P              29      0.88693              0.19775             -0.19495         *
 * P              30     -0.10971             -0.71911              0.44417         *
 * P              31     -0.15026             -0.08711              0.14831         *
 * P              32      0.90855              0.26912             -0.24058         *
 * P              33     -0.13535             -0.14238              0.18680         *
 * P              34      0.00030             -0.05991             -0.01067         *
 * P              35      0.24975             -0.08925              0.50961         *
 * P              36      0.10889             -0.00077             -0.04975         *
 * P              37     -0.51390             -0.19773              0.17220         *
 * P              38      0.44419              1.83495              0.53606         *
 * P              39     -0.63197              1.11115              0.65921         *
 * P              40      0.28159             -0.53275             -0.65948         *
 * P              41      0.05660             -0.02955              0.13256         *
 * P              42     -0.28160              0.96288              0.21581         *
 * P              43      0.07290             -0.00551             -0.02517         *
 * P              44      0.06650             -0.02634             -0.01956         *
 * P              45      0.00444             -0.07492             -0.18372         *
 * P              46      0.01967              0.03943             -0.15731         *
 * P              47      0.02538             -0.22608             -0.34736         *
 * P              48     -0.13021             -0.33050             -0.47671         *
 * In              1     -0.15982             -0.26585              0.03974         *
 * In              2     -0.52425             -0.53388             -0.34169         *
 * In              3      0.55632              1.75829              0.17106         *
 * In              4     -0.01194              0.58628              0.47094         *
 * In              5     -0.17474              0.07209              0.51775         *
 * In              6      0.10312              0.29483              0.54361         *
 * In              7      0.00148             -0.01723              0.20086         *
 * In              8      0.40314             -0.99936              0.31770         *
 * In              9      0.48254             -0.98512              0.27559         *
 * In             10     -0.05118              0.01884              0.07757         *
 * In             11     -0.29145              0.20621              0.20801         *
 * In             12      0.42769             -1.01395              0.19022         *
 * In             13      0.01370              0.39851              0.50452         *
 * In             14     -0.16114              0.13020              0.40726         *
 * In             15     -0.19252              0.23382              0.43019         *
 * In             16     -1.02343              0.52383              0.37849         *
 * In             17     -0.00594              0.19224              0.43026         *
 * In             18     -0.05144              0.05356              0.11118         *
 * In             19      0.04210              0.06044              0.02429         *
 * In             20      0.01913              0.06682              0.20139         *
 * In             21      0.00959              0.01168              0.03697         *
 * In             22      0.07583              0.07468             -0.05514         *
 * In             23     -0.04444              0.11746             -0.09913         *
 * In             24      0.04485              0.52829             -0.27194         *
 * In             25     -0.33979              0.57061              0.16197         *
 * In             26      0.10481              0.67870              0.67359         *
 * In             27      1.47072              0.37574              0.25414         *
 * In             28      0.32267              0.01663             -0.48959         *
 * In             29     -0.17703              0.21562             -0.35892         *
 * In             30     -0.09767              0.40338             -0.36295         *
 * In             31     -0.74489             -0.29766              0.05118         *
 * In             32      0.10794              0.12089             -0.08410         *
 * In             33     -0.84631             -0.25684              0.14889         *
 * In             34      0.01280              0.04596              0.02675         *
 * In             35     -0.85201             -0.21438              0.09258         *
 * In             36      0.05754              0.03133             -0.01499         *
 * In             37     -0.76607             -0.59084             -0.17361         *
 * In             38      0.73616             -1.21532             -0.06727         *
 * In             39     -0.29485             -1.67736             -0.29972         *
 * In             40      0.07767              0.61621             -0.64695         *
 * In             41     -1.15621             -0.21458             -0.06004         *
 * In             42      0.43862             -0.95165              0.27454         *
 * In             43     -0.35173              0.18904              0.04280         *
 * In             44     -0.19312             -0.05063              0.00156         *
 * In             45     -0.05248              0.03251              0.12366         *
 * In             46     -0.33817              0.19818              0.12051         *
 * In             47      0.01660              0.08631              0.18469         *
 * In             48      0.01524              0.09600              0.26255         *
 *                                                                                  *
 ************************************************************************************
 EXP precond LBFGS => estimated nearest neighbor distance :  2.554       A
 EXP precond LBFGS => estimated cutoff distance :  5.109       A

 ************************************** Forces **************************************
 *                                                                                  *
 *                           Cartesian components (eV/A)                            *
 * -------------------------------------------------------------------------------- *
 *                         x                    y                    z              *
 *                                                                                  *
 * P               1      1.09813             -0.70108             -0.25651         *
 * P               2     -1.52211             -0.68646              0.06010         *
 * P               3     -0.06626             -0.47374             -0.77996         *
 * P               4     -0.01421             -0.36237             -0.61519         *
 * P               5      0.24607             -0.08433             -0.59932         *
 * P               6     -0.01425             -0.10745             -0.34639         *
 * P               7      0.20317             -0.15473             -0.54231         *
 * P               8     -0.34136              0.95342              0.16817         *
 * P               9     -0.27915              0.89830              0.10709         *
 * P              10      0.18683             -0.18147             -0.44654         *
 * P              11      0.05171             -0.08848             -0.48984         *
 * P              12     -0.34120              0.95482              0.17543         *
 * P              13      0.03095             -0.37325             -0.44483         *
 * P              14      0.16869             -0.28325             -0.37654         *
 * P              15      0.17258             -0.11623             -0.51646         *
 * P              16      0.09048              0.11009             -0.09800         *
 * P              17     -0.05753             -0.10450             -0.21417         *
 * P              18     -0.12440             -0.03100              0.00225         *
 * P              19     -0.06280             -0.05949             -0.05427         *
 * P              20      0.01930             -0.02239             -0.19411         *
 * P              21      0.07416              0.07904             -0.06499         *
 * P              22      0.92483              0.39941             -0.23113         *
 * P              23      0.99708              0.33076             -0.45686         *
 * P              24     -0.01476             -0.60684              0.47402         *
 * P              25     -0.30048             -0.34125              0.58625         *
 * P              26     -0.44558             -1.73890             -0.61244         *
 * P              27      0.51520              0.50946              0.42794         *
 * P              28      0.99457              0.66806              0.06812         *
 * P              29      0.88693              0.19775             -0.19495         *
 * P              30     -0.10971             -0.71911              0.44417         *
 * P              31     -0.15026             -0.08711              0.14831         *
 * P              32      0.90855              0.26912             -0.24058         *
 * P              33     -0.13535             -0.14238              0.18680         *
 * P              34      0.00030             -0.05991             -0.01067         *
 * P              35      0.24975             -0.08925              0.50961         *
 * P              36      0.10889             -0.00077             -0.04975         *
 * P              37     -0.51390             -0.19773              0.17220         *
 * P              38      0.44419              1.83495              0.53606         *
 * P              39     -0.63197              1.11115              0.65921         *
 * P              40      0.28159             -0.53275             -0.65948         *
 * P              41      0.05660             -0.02955              0.13256         *
 * P              42     -0.28160              0.96288              0.21581         *
 * P              43      0.07290             -0.00551             -0.02517         *
 * P              44      0.06650             -0.02634             -0.01956         *
 * P              45      0.00444             -0.07492             -0.18372         *
 * P              46      0.01967              0.03943             -0.15731         *
 * P              47      0.02538             -0.22608             -0.34736         *
 * P              48     -0.13021             -0.33050             -0.47671         *
 * In              1     -0.15982             -0.26585              0.03974         *
 * In              2     -0.52425             -0.53388             -0.34169         *
 * In              3      0.55632              1.75829              0.17106         *
 * In              4     -0.01194              0.58628              0.47094         *
 * In              5     -0.17474              0.07209              0.51775         *
 * In              6      0.10312              0.29483              0.54361         *
 * In              7      0.00148             -0.01723              0.20086         *
 * In              8      0.40314             -0.99936              0.31770         *
 * In              9      0.48254             -0.98512              0.27559         *
 * In             10     -0.05118              0.01884              0.07757         *
 * In             11     -0.29145              0.20621              0.20801         *
 * In             12      0.42769             -1.01395              0.19022         *
 * In             13      0.01370              0.39851              0.50452         *
 * In             14     -0.16114              0.13020              0.40726         *
 * In             15     -0.19252              0.23382              0.43019         *
 * In             16     -1.02343              0.52383              0.37849         *
 * In             17     -0.00594              0.19224              0.43026         *
 * In             18     -0.05144              0.05356              0.11118         *
 * In             19      0.04210              0.06044              0.02429         *
 * In             20      0.01913              0.06682              0.20139         *
 * In             21      0.00959              0.01168              0.03697         *
 * In             22      0.07583              0.07468             -0.05514         *
 * In             23     -0.04444              0.11746             -0.09913         *
 * In             24      0.04485              0.52829             -0.27194         *
 * In             25     -0.33979              0.57061              0.16197         *
 * In             26      0.10481              0.67870              0.67359         *
 * In             27      1.47072              0.37574              0.25414         *
 * In             28      0.32267              0.01663             -0.48959         *
 * In             29     -0.17703              0.21562             -0.35892         *
 * In             30     -0.09767              0.40338             -0.36295         *
 * In             31     -0.74489             -0.29766              0.05118         *
 * In             32      0.10794              0.12089             -0.08410         *
 * In             33     -0.84631             -0.25684              0.14889         *
 * In             34      0.01280              0.04596              0.02675         *
 * In             35     -0.85201             -0.21438              0.09258         *
 * In             36      0.05754              0.03133             -0.01499         *
 * In             37     -0.76607             -0.59084             -0.17361         *
 * In             38      0.73616             -1.21532             -0.06727         *
 * In             39     -0.29485             -1.67736             -0.29972         *
 * In             40      0.07767              0.61621             -0.64695         *
 * In             41     -1.15621             -0.21458             -0.06004         *
 * In             42      0.43862             -0.95165              0.27454         *
 * In             43     -0.35173              0.18904              0.04280         *
 * In             44     -0.19312             -0.05063              0.00156         *
 * In             45     -0.05248              0.03251              0.12366         *
 * In             46     -0.33817              0.19818              0.12051         *
 * In             47      0.01660              0.08631              0.18469         *
 * In             48      0.01524              0.09600              0.26255         *
 *                                                                                  *
 ************************************************************************************
 doing test perturbation to get energy scale for EXP preconditioner

                           -------------------------------
                                     Cell Contents
                           -------------------------------

            xxxxxxxxxxxxxxxxxxxxxxxxxxxxxxxxxxxxxxxxxxxxxxxxxxxxxxxxxxxxxxxxx
            x  Element         Atom        Fractional coordinates of atoms  x
            x                 Number           u          v          w      x
            x---------------------------------------------------------------x
            x  P                 1         0.344589   0.361233   0.772617   x
            x  P                 2         0.205900   0.217465   0.496387   x
            x  P                 3         0.362017   0.206654   0.653515   x
            x  P                 4         0.481456   0.332156   0.177887   x
            x  P                 5         0.405017   0.084768   0.101832   x
            x  P                 6         0.528738   0.211563   0.619844   x
            x  P                 7         0.572384   0.089279   0.074176   x
            x  P                 8         0.449060   0.973832   0.440637   x
            x  P                 9         0.616576   0.978183   0.415538   x
            x  P                10         0.740212   0.092517   0.055558   x
            x  P                11         0.658607   0.856070   0.880730   x
            x  P                12         0.783384   0.979218   0.427100   x
            x  P                13         0.590881   0.614312   0.765939   x
            x  P                14         0.468042   0.488397   0.263325   x
            x  P                15         0.603094   0.457687   0.678292   x
            x  P                16         0.726422   0.585934   0.137982   x
            x  P                17         0.651570   0.337943   0.115281   x
            x  P                18         0.774276   0.464636   0.596223   x
            x  P                19         0.820514   0.341787   0.069827   x
            x  P                20         0.696795   0.215633   0.581010   x
            x  P                21         0.865126   0.218300   0.562445   x
            x  P                22         0.989675   0.343918   0.045990   x
            x  P                23         0.906750   0.093040   0.067978   x
            x  P                24         0.043273   0.221791   0.476184   x
            x  P                25         0.821629   0.850309   0.976722   x
            x  P                26         0.706113   0.737002   0.294130   x
            x  P                27         0.850865   0.715856   0.555347   x
            x  P                28         0.979804   0.842561   0.014732   x
            x  P                29         0.896839   0.591577   0.058176   x
            x  P                30         0.031157   0.719302   0.451448   x
            x  P                31         0.076497   0.595550   0.951425   x
            x  P                32         0.943562   0.467703   0.553688   x
            x  P                33         0.123019   0.471833   0.438824   x
            x  P                34         0.245610   0.598581   0.913211   x
            x  P                35         0.170146   0.347841   0.932751   x
            x  P                36         0.293128   0.477264   0.367339   x
            x  P                37         0.078112   0.091167   0.011530   x
            x  P                38         0.945290   0.974264   0.478511   x
            x  P                39         0.115775   0.971276   0.430268   x
            x  P                40         0.238440   0.083699   0.085231   x
            x  P                41         0.156282   0.845128   0.945805   x
            x  P                42         0.281428   0.970624   0.455627   x
            x  P                43         0.324223   0.847520   0.934898   x
            x  P                44         0.200024   0.721445   0.434556   x
            x  P                45         0.368596   0.725007   0.397018   x
            x  P                46         0.492004   0.851582   0.902661   x
            x  P                47         0.415860   0.604269   0.844961   x
            x  P                48         0.537134   0.729868   0.346026   x
            x  In                1         0.274481   0.414969   0.867605   x
            x  In                2         0.150008   0.285017   0.450640   x
            x  In                3         0.294777   0.263887   0.711731   x
            x  In                4         0.410029   0.386598   0.239843   x
            x  In                5         0.342273   0.144810   0.124827   x
            x  In                6         0.463772   0.271038   0.659893   x
            x  In                7         0.508896   0.149317   0.102845   x
            x  In                8         0.384292   0.022686   0.590434   x
            x  In                9         0.551832   0.027060   0.565346   x
            x  In               10         0.676689   0.153392   0.070526   x
            x  In               11         0.595863   0.916113   0.903671   x
            x  In               12         0.719479   0.030283   0.550362   x
            x  In               13         0.519455   0.668755   0.827784   x
            x  In               14         0.397821   0.543228   0.327608   x
            x  In               15         0.532873   0.512518   0.742493   x
            x  In               16         0.656315   0.639671   0.233154   x
            x  In               17         0.585056   0.396646   0.160674   x
            x  In               18         0.707781   0.523644   0.638599   x
            x  In               19         0.755302   0.402331   0.092269   x
            x  In               20         0.632318   0.275907   0.608942   x
            x  In               21         0.800890   0.279470   0.571425   x
            x  In               22         0.924404   0.405351   0.053956   x
            x  In               23         0.844633   0.155788   0.059590   x
            x  In               24         0.969750   0.281605   0.554539   x
            x  In               25         0.762414   0.917155   0.920231   x
            x  In               26         0.638873   0.794237   0.352410   x
            x  In               27         0.794971   0.783406   0.509609   x
            x  In               28         0.922711   0.909656   0.993731   x
            x  In               29         0.830738   0.653043   0.072679   x
            x  In               30         0.957570   0.779053   0.529809   x
            x  In               31         0.011225   0.656982   0.959369   x
            x  In               32         0.877875   0.529060   0.567158   x
            x  In               33         0.057331   0.533190   0.452300   x
            x  In               34         0.180398   0.659126   0.935595   x
            x  In               35         0.104044   0.409306   0.947216   x
            x  In               36         0.226632   0.536272   0.409745   x
            x  In               37         0.021022   0.158265   0.990539   x
            x  In               38         0.885140   0.029639   0.575711   x
            x  In               39         0.055513   0.026540   0.527482   x
            x  In               40         0.179226   0.150546   0.028588   x
            x  In               41         0.094165   0.907876   0.937440   x
            x  In               42         0.217455   0.021620   0.578877   x
            x  In               43         0.260700   0.908395   0.949827   x
            x  In               44         0.135789   0.782615   0.443539   x
            x  In               45         0.304120   0.785282   0.424967   x
            x  In               46         0.428516   0.911621   0.931258   x
            x  In               47         0.349346   0.662973   0.890254   x
            x  In               48         0.472169   0.789343   0.386109   x
            xxxxxxxxxxxxxxxxxxxxxxxxxxxxxxxxxxxxxxxxxxxxxxxxxxxxxxxxxxxxxxxxx


------------------------------------------------------------------------ <-- SCF
SCF loop      Energy           Fermi           Energy gain       Timer   <-- SCF
                               energy          per atom          (sec)   <-- SCF
------------------------------------------------------------------------ <-- SCF
Initial  -9.43078840E+004  0.00000000E+000                      9237.25  <-- SCF
      1  -9.43110256E+004  3.68664577E+000   3.27245417E-002    9701.24  <-- SCF
      2  -9.43113956E+004  3.68660435E+000   3.85472405E-003   10149.84  <-- SCF
      3  -9.43114001E+004  3.68599227E+000   4.64872445E-005   10524.12  <-- SCF
      4  -9.43114030E+004  3.68712194E+000   3.01072114E-005   10904.72  <-- SCF
      5  -9.43114032E+004  3.68691077E+000   2.82370908E-006   11344.58  <-- SCF
      6  -9.43114033E+004  3.68717577E+000   6.84321668E-007   11746.68  <-- SCF
      7  -9.43114033E+004  3.68722563E+000   2.23464495E-008   12060.03  <-- SCF
      8  -9.43114033E+004  3.68735230E+000  -2.39797289E-008   12359.20  <-- SCF
      9  -9.43114033E+004  3.68745220E+000  -2.55984428E-008   12672.00  <-- SCF
     10  -9.43114033E+004  3.68750479E+000  -4.91633747E-009   12957.04  <-- SCF
     11  -9.43114033E+004  3.68752619E+000   4.78859854E-010   13215.50  <-- SCF
------------------------------------------------------------------------ <-- SCF
 
Final energy, E             =  -94311.34332840     eV
Final free energy (E-TS)    =  -94311.40330468     eV
(energies not corrected for finite basis set)
 
NB est. 0K energy (E-0.5TS)      =  -94311.37331654     eV
 

 ************************************** Forces **************************************
 *                                                                                  *
 *                           Cartesian components (eV/A)                            *
 * -------------------------------------------------------------------------------- *
 *                         x                    y                    z              *
 *                                                                                  *
 * P               1      1.05515             -0.72013             -0.32834         *
 * P               2     -1.50414             -0.66255              0.01153         *
 * P               3     -0.02834             -0.49972             -0.87903         *
 * P               4     -0.02343             -0.34801             -0.51260         *
 * P               5      0.24256             -0.09069             -0.50143         *
 * P               6      0.00613             -0.12457             -0.45176         *
 * P               7      0.20128             -0.16238             -0.44595         *
 * P               8     -0.36711              1.06831              0.20118         *
 * P               9     -0.30020              1.01634              0.14567         *
 * P              10      0.18711             -0.18882             -0.34818         *
 * P              11      0.08308             -0.10930             -0.57856         *
 * P              12     -0.34940              1.07936              0.22015         *
 * P              13      0.00060             -0.39125             -0.51656         *
 * P              14      0.16900             -0.27086             -0.29823         *
 * P              15      0.19288             -0.13346             -0.61511         *
 * P              16      0.10328              0.11220             -0.00366         *
 * P              17     -0.05341             -0.09808             -0.11076         *
 * P              18     -0.11352             -0.03706             -0.09862         *
 * P              19     -0.05153             -0.06357              0.04810         *
 * P              20      0.03245             -0.03559             -0.30183         *
 * P              21      0.08086              0.06246             -0.16740         *
 * P              22      0.90090              0.36274             -0.12075         *
 * P              23      0.97408              0.29569             -0.35358         *
 * P              24      0.01986             -0.57581              0.53798         *
 * P              25     -0.30370             -0.33542              0.52459         *
 * P              26     -0.42908             -1.72048             -0.59992         *
 * P              27      0.50474              0.51199              0.33193         *
 * P              28      0.98648              0.62663              0.18055         *
 * P              29      0.86393              0.17450             -0.08285         *
 * P              30     -0.07900             -0.68500              0.52281         *
 * P              31     -0.13372             -0.08875              0.06796         *
 * P              32      0.88017              0.24419             -0.34091         *
 * P              33     -0.11007             -0.14095              0.26737         *
 * P              34      0.01088             -0.06510             -0.10394         *
 * P              35      0.24336             -0.07815              0.42375         *
 * P              36      0.11535              0.00179              0.03957         *
 * P              37     -0.47123             -0.21290              0.26614         *
 * P              38      0.37548              1.92672              0.56051         *
 * P              39     -0.64592              1.23663              0.69604         *
 * P              40      0.28784             -0.54170             -0.56374         *
 * P              41      0.06769             -0.02792              0.05269         *
 * P              42     -0.30753              1.08045              0.25446         *
 * P              43      0.08723             -0.01618             -0.11726         *
 * P              44      0.07348             -0.02914              0.06770         *
 * P              45      0.00376             -0.07227             -0.09644         *
 * P              46      0.03764              0.02380             -0.24362         *
 * P              47      0.04434             -0.24116             -0.44918         *
 * P              48     -0.13724             -0.32363             -0.37633         *
 * In              1     -0.16691             -0.26251             -0.03387         *
 * In              2     -0.51078             -0.53824             -0.27410         *
 * In              3      0.54021              1.73960              0.15562         *
 * In              4      0.02089              0.60349              0.53090         *
 * In              5     -0.21270              0.09878              0.60078         *
 * In              6      0.11167              0.28387              0.45420         *
 * In              7     -0.02170              0.00030              0.28426         *
 * In              8      0.44525             -1.11989              0.26537         *
 * In              9      0.52105             -1.10417              0.22404         *
 * In             10     -0.06797              0.03041              0.16228         *
 * In             11     -0.29813              0.21712              0.14791         *
 * In             12      0.45882             -1.13963              0.13366         *
 * In             13      0.02207              0.39066              0.42244         *
 * In             14     -0.18160              0.14180              0.49001         *
 * In             15     -0.19974              0.22498              0.36578         *
 * In             16     -0.98288              0.53168              0.44387         *
 * In             17     -0.02967              0.20638              0.52066         *
 * In             18     -0.05633              0.05411              0.02905         *
 * In             19      0.03028              0.06549              0.10962         *
 * In             20      0.01779              0.06597              0.11425         *
 * In             21     -0.00098              0.01793             -0.04941         *
 * In             22      0.06367              0.08019              0.03067         *
 * In             23     -0.05555              0.11701             -0.01507         *
 * In             24      0.02048              0.51305             -0.36225         *
 * In             25     -0.35332              0.57969              0.10200         *
 * In             26      0.07267              0.70201              0.75298         *
 * In             27      1.44702              0.35756              0.29020         *
 * In             28      0.28450              0.03129             -0.54486         *
 * In             29     -0.16891              0.19691             -0.27481         *
 * In             30     -0.12338              0.39140             -0.44923         *
 * In             31     -0.73771             -0.26940             -0.03198         *
 * In             32      0.08781              0.13077             -0.17031         *
 * In             33     -0.81988             -0.23610              0.21813         *
 * In             34      0.00258              0.05018             -0.04267         *
 * In             35     -0.83488             -0.19494              0.00935         *
 * In             36      0.04241              0.03161              0.05480         *
 * In             37     -0.75809             -0.55830             -0.25705         *
 * In             38      0.74784             -1.34387             -0.12576         *
 * In             39     -0.21868             -1.77232             -0.34656         *
 * In             40      0.08034              0.60797             -0.59337         *
 * In             41     -1.15059             -0.18297             -0.12907         *
 * In             42      0.47783             -1.07227              0.21752         *
 * In             43     -0.36711              0.20062             -0.01516         *
 * In             44     -0.19478             -0.04548              0.06854         *
 * In             45     -0.06673              0.04015              0.19475         *
 * In             46     -0.34796              0.20967              0.06153         *
 * In             47      0.01396              0.08540              0.11004         *
 * In             48     -0.00523              0.10884              0.33618         *
 *                                                                                  *
 ************************************************************************************
 EXP precond LBFGS => estimated parameter mu :  2.187       eV/A**2
 LBFGS: finished iteration     0 with enthalpy= -9.43114001E+004 eV
  
 +-----------+-----------------+-----------------+------------+-----+ <-- LBFGS
 | Parameter |      value      |    tolerance    |    units   | OK? | <-- LBFGS
 +-----------+-----------------+-----------------+------------+-----+ <-- LBFGS
 |  dE/ion   |   0.000000E+000 |   2.000000E-005 |         eV | No  | <-- LBFGS
 |  |F|max   |   2.041427E+000 |   1.000000E-003 |       eV/A | No  | <-- LBFGS
 |  |dR|max  |   6.435598E-015 |   1.000000E-003 |          A | No  | <-- LBFGS
 +-----------+-----------------+-----------------+------------+-----+ <-- LBFGS
  

================================================================================
 Starting LBFGS iteration          1 ...
================================================================================
  
 +------------+-------------+-------------+-----------------+ <-- min LBFGS
 |    Step    |   lambda    |   F.delta'  |    enthalpy     | <-- min LBFGS
 +------------+-------------+-------------+-----------------+ <-- min LBFGS
 |  previous  |    0.000000 |    2.017540 |   -94311.400114 | <-- min LBFGS
 +------------+-------------+-------------+-----------------+ <-- min LBFGS
  

--------------------------------------------------------------------------------
 LBFGS: starting iteration         1 with trial guess (lambda=  1.000000)
--------------------------------------------------------------------------------

                           -------------------------------
                                     Cell Contents
                           -------------------------------

            xxxxxxxxxxxxxxxxxxxxxxxxxxxxxxxxxxxxxxxxxxxxxxxxxxxxxxxxxxxxxxxxx
            x  Element         Atom        Fractional coordinates of atoms  x
            x                 Number           u          v          w      x
            x---------------------------------------------------------------x
            x  P                 1         0.346163   0.366054   0.760879   x
            x  P                 2         0.196130   0.212641   0.484698   x
            x  P                 3         0.360078   0.207408   0.626197   x
            x  P                 4         0.481198   0.333496   0.158927   x
            x  P                 5         0.404248   0.086348   0.087232   x
            x  P                 6         0.528661   0.213027   0.600488   x
            x  P                 7         0.573003   0.091956   0.057694   x
            x  P                 8         0.449118   0.970133   0.447498   x
            x  P                 9         0.618340   0.975768   0.418415   x
            x  P                10         0.742130   0.095852   0.037813   x
            x  P                11         0.659917   0.854580   0.874380   x
            x  P                12         0.787065   0.977638   0.430369   x
            x  P                13         0.589144   0.613186   0.755673   x
            x  P                14         0.467667   0.489115   0.256092   x
            x  P                15         0.603846   0.458136   0.659457   x
            x  P                16         0.728035   0.584836   0.132543   x
            x  P                17         0.652142   0.338802   0.101370   x
            x  P                18         0.775870   0.464902   0.584701   x
            x  P                19         0.822204   0.343102   0.056486   x
            x  P                20         0.697941   0.217461   0.561871   x
            x  P                21         0.867212   0.220054   0.543627   x
            x  P                22         0.993682   0.346515   0.031861   x
            x  P                23         0.911641   0.097956   0.049403   x
            x  P                24         0.037491   0.222932   0.475991   x
            x  P                25         0.824248   0.850806   0.991518   x
            x  P                26         0.703184   0.738658   0.289078   x
            x  P                27         0.857877   0.716938   0.565176   x
            x  P                28         0.986583   0.842766   0.022271   x
            x  P                29         0.902086   0.594188   0.050380   x
            x  P                30         0.027842   0.718676   0.468552   x
            x  P                31         0.072546   0.593113   0.958102   x
            x  P                32         0.948334   0.470689   0.538924   x
            x  P                33         0.118531   0.469977   0.445980   x
            x  P                34         0.242919   0.597047   0.916806   x
            x  P                35         0.165908   0.347988   0.939466   x
            x  P                36         0.291234   0.477308   0.369648   x
            x  P                37         0.071184   0.088936   0.007652   x
            x  P                38         0.952217   0.972677   0.488885   x
            x  P                39         0.111985   0.964406   0.447293   x
            x  P                40         0.234666   0.084579   0.066974   x
            x  P                41         0.153003   0.841189   0.955820   x
            x  P                42         0.279849   0.965964   0.465408   x
            x  P                43         0.322397   0.844269   0.940237   x
            x  P                44         0.197343   0.719093   0.443181   x
            x  P                45         0.366881   0.722921   0.400055   x
            x  P                46         0.491635   0.848786   0.902883   x
            x  P                47         0.414126   0.603406   0.840536   x
            x  P                48         0.535670   0.728107   0.342767   x
            x  In                1         0.271386   0.415721   0.866284   x
            x  In                2         0.141480   0.283385   0.438999   x
            x  In                3         0.296957   0.261722   0.700930   x
            x  In                4         0.411533   0.386595   0.242715   x
            x  In                5         0.339899   0.144620   0.122651   x
            x  In                6         0.464462   0.271682   0.654453   x
            x  In                7         0.508725   0.150980   0.095653   x
            x  In                8         0.382279   0.024909   0.596622   x
            x  In                9         0.551684   0.030530   0.568107   x
            x  In               10         0.677692   0.155473   0.058898   x
            x  In               11         0.596183   0.913131   0.907310   x
            x  In               12         0.720731   0.034548   0.549507   x
            x  In               13         0.519125   0.666357   0.836248   x
            x  In               14         0.396327   0.542027   0.337033   x
            x  In               15         0.532389   0.510990   0.743378   x
            x  In               16         0.653753   0.634803   0.238420   x
            x  In               17         0.585969   0.396765   0.158611   x
            x  In               18         0.708974   0.523022   0.630667   x
            x  In               19         0.757072   0.403152   0.082006   x
            x  In               20         0.633192   0.277075   0.597555   x
            x  In               21         0.802624   0.281030   0.555301   x
            x  In               22         0.927209   0.406981   0.041814   x
            x  In               23         0.847018   0.158182   0.042809   x
            x  In               24         0.971114   0.281738   0.534809   x
            x  In               25         0.765220   0.914669   0.925144   x
            x  In               26         0.640565   0.792034   0.367516   x
            x  In               27         0.802711   0.787726   0.519838   x
            x  In               28         0.927819   0.910526   0.987407   x
            x  In               29         0.834331   0.652373   0.064588   x
            x  In               30         0.961183   0.777414   0.527540   x
            x  In               31         0.006932   0.654187   0.963517   x
            x  In               32         0.881317   0.530321   0.555055   x
            x  In               33         0.051875   0.529798   0.457705   x
            x  In               34         0.177485   0.656855   0.941598   x
            x  In               35         0.098021   0.406382   0.947256   x
            x  In               36         0.223876   0.535115   0.414480   x
            x  In               37         0.013863   0.157656   0.974521   x
            x  In               38         0.888401   0.035910   0.571079   x
            x  In               39         0.048714   0.027314   0.523056   x
            x  In               40         0.175179   0.147618   0.005868   x
            x  In               41         0.088201   0.901092   0.942158   x
            x  In               42         0.213441   0.022522   0.585280   x
            x  In               43         0.257532   0.903451   0.956731   x
            x  In               44         0.132151   0.779387   0.454524   x
            x  In               45         0.301979   0.782298   0.434911   x
            x  In               46         0.427036   0.907549   0.936739   x
            x  In               47         0.347713   0.661163   0.896119   x
            x  In               48         0.471510   0.786836   0.395324   x
            xxxxxxxxxxxxxxxxxxxxxxxxxxxxxxxxxxxxxxxxxxxxxxxxxxxxxxxxxxxxxxxxx


------------------------------------------------------------------------ <-- SCF
SCF loop      Energy           Fermi           Energy gain       Timer   <-- SCF
                               energy          per atom          (sec)   <-- SCF
------------------------------------------------------------------------ <-- SCF
Initial  -9.41853528E+004  0.00000000E+000                     13519.78  <-- SCF
      1  -9.43036533E+004  3.75301525E+000   1.23229602E+000   13990.05  <-- SCF
      2  -9.43137662E+004  3.75560113E+000   1.05343530E-001   14548.38  <-- SCF
      3  -9.43138917E+004  3.73462291E+000   1.30651415E-003   14950.38  <-- SCF
      4  -9.43139162E+004  3.74813362E+000   2.55352934E-004   15358.39  <-- SCF
      5  -9.43139150E+004  3.74395304E+000  -1.23727426E-005   15814.87  <-- SCF
      6  -9.43139057E+004  3.75232563E+000  -9.68305234E-005   16200.96  <-- SCF
      7  -9.43139010E+004  3.75285695E+000  -4.90052386E-005   16619.56  <-- SCF
      8  -9.43138935E+004  3.75873428E+000  -7.74450395E-005   17018.26  <-- SCF
      9  -9.43138915E+004  3.76169800E+000  -2.16611973E-005   17410.52  <-- SCF
     10  -9.43138912E+004  3.76185973E+000  -2.27709720E-006   17814.26  <-- SCF
     11  -9.43138912E+004  3.76170906E+000  -3.44499771E-007   18167.44  <-- SCF
     12  -9.43138912E+004  3.76130858E+000  -9.15877799E-008   18501.17  <-- SCF
     13  -9.43138912E+004  3.76116468E+000  -1.19837418E-008   18804.45  <-- SCF
     14  -9.43138912E+004  3.76104212E+000  -6.37289638E-009   19093.15  <-- SCF
     15  -9.43138912E+004  3.76097417E+000  -3.21499932E-009   19369.67  <-- SCF
------------------------------------------------------------------------ <-- SCF
 
Final energy, E             =  -94313.82857394     eV
Final free energy (E-TS)    =  -94313.89120569     eV
(energies not corrected for finite basis set)
 
NB est. 0K energy (E-0.5TS)      =  -94313.85988982     eV
 

 ************************************** Forces **************************************
 *                                                                                  *
 *                           Cartesian components (eV/A)                            *
 * -------------------------------------------------------------------------------- *
 *                         x                    y                    z              *
 *                                                                                  *
[...]
  P              10     1.734   3.941   0.000   0.000   5.675    -0.675
  P              11     1.732   3.931   0.000   0.000   5.663    -0.663
  P              12     1.734   3.938   0.000   0.000   5.672    -0.672
  P              13     1.739   3.924   0.000   0.000   5.663    -0.663
  P              14     1.740   3.926   0.000   0.000   5.666    -0.666
  P              15     1.740   3.931   0.000   0.000   5.671    -0.671
  P              16     1.744   3.922   0.000   0.000   5.666    -0.666
  P              17     1.735   3.937   0.000   0.000   5.672    -0.672
  P              18     1.738   3.933   0.000   0.000   5.671    -0.671
  P              19     1.736   3.937   0.000   0.000   5.673    -0.673
  P              20     1.734   3.941   0.000   0.000   5.675    -0.675
  P              21     1.735   3.939   0.000   0.000   5.675    -0.675
  P              22     1.738   3.933   0.000   0.000   5.671    -0.671
  P              23     1.735   3.939   0.000   0.000   5.674    -0.674
  P              24     1.738   3.935   0.000   0.000   5.673    -0.673
  P              25     1.745   3.900   0.000   0.000   5.645    -0.645
  P              26     1.776   3.855   0.000   0.000   5.631    -0.631
  P              27     1.740   3.931   0.000   0.000   5.671    -0.671
  P              28     1.737   3.934   0.000   0.000   5.671    -0.671
  P              29     1.741   3.928   0.000   0.000   5.669    -0.669
  P              30     1.738   3.934   0.000   0.000   5.672    -0.672
  P              31     1.738   3.933   0.000   0.000   5.672    -0.672
  P              32     1.738   3.934   0.000   0.000   5.672    -0.672
  P              33     1.739   3.932   0.000   0.000   5.671    -0.671
  P              34     1.737   3.933   0.000   0.000   5.670    -0.670
  P              35     1.742   3.928   0.000   0.000   5.670    -0.670
  P              36     1.740   3.926   0.000   0.000   5.666    -0.666
  P              37     1.735   3.938   0.000   0.000   5.673    -0.673
  P              38     1.733   3.942   0.000   0.000   5.675    -0.675
  P              39     1.735   3.939   0.000   0.000   5.674    -0.674
  P              40     1.733   3.943   0.000   0.000   5.675    -0.675
  P              41     1.735   3.939   0.000   0.000   5.675    -0.675
  P              42     1.734   3.941   0.000   0.000   5.675    -0.675
  P              43     1.734   3.941   0.000   0.000   5.675    -0.675
  P              44     1.736   3.938   0.000   0.000   5.673    -0.673
  P              45     1.735   3.938   0.000   0.000   5.673    -0.673
  P              46     1.733   3.941   0.000   0.000   5.674    -0.674
  P              47     1.735   3.935   0.000   0.000   5.670    -0.670
  P              48     1.731   3.941   0.000   0.000   5.673    -0.673
  In              1     0.922   1.419   9.990   0.000  12.331     0.669
  In              2     0.916   1.437   9.990   0.000  12.343     0.657
  In              3     0.957   1.399   9.986   0.000  12.342     0.658
  In              4     0.925   1.425   9.990   0.000  12.340     0.660
  In              5     0.890   1.452   9.988   0.000  12.330     0.670
  In              6     0.899   1.449   9.989   0.000  12.336     0.664
  In              7     0.882   1.449   9.989   0.000  12.320     0.680
  In              8     0.882   1.450   9.989   0.000  12.322     0.678
  In              9     0.882   1.450   9.989   0.000  12.320     0.680
  In             10     0.886   1.445   9.989   0.000  12.320     0.680
  In             11     0.882   1.455   9.988   0.000  12.325     0.675
  In             12     0.885   1.444   9.989   0.000  12.317     0.683
  In             13     0.893   1.436   9.989   0.000  12.319     0.681
  In             14     0.916   1.433   9.990   0.000  12.338     0.662
  In             15     0.912   1.426   9.989   0.000  12.328     0.672
  In             16     0.919   1.427   9.989   0.000  12.335     0.665
  In             17     0.890   1.444   9.989   0.000  12.324     0.676
  In             18     0.919   1.439   9.990   0.000  12.348     0.652
  In             19     0.897   1.443   9.989   0.000  12.329     0.671
  In             20     0.888   1.447   9.989   0.000  12.324     0.676
  In             21     0.893   1.445   9.989   0.000  12.327     0.673
  In             22     0.901   1.441   9.990   0.000  12.331     0.669
  In             23     0.892   1.445   9.989   0.000  12.327     0.673
  In             24     0.895   1.444   9.989   0.000  12.328     0.672
  In             25     0.907   1.441   9.989   0.000  12.337     0.663
  In             26     0.922   1.446   9.988   0.000  12.356     0.644
  In             27     0.907   1.422   9.989   0.000  12.319     0.681
  In             28     0.892   1.458   9.988   0.000  12.338     0.662
  In             29     0.914   1.420   9.990   0.000  12.324     0.676
  In             30     0.900   1.435   9.990   0.000  12.324     0.676
  In             31     0.899   1.438   9.990   0.000  12.327     0.673
  In             32     0.906   1.438   9.990   0.000  12.334     0.666
  In             33     0.904   1.440   9.990   0.000  12.333     0.667
  In             34     0.900   1.442   9.989   0.000  12.331     0.669
  In             35     0.906   1.438   9.990   0.000  12.334     0.666
  In             36     0.906   1.442   9.989   0.000  12.337     0.663
  In             37     0.896   1.442   9.989   0.000  12.327     0.673
  In             38     0.885   1.443   9.989   0.000  12.317     0.683
  In             39     0.894   1.448   9.989   0.000  12.331     0.669
  In             40     0.917   1.448   9.989   0.000  12.354     0.646
  In             41     0.891   1.444   9.989   0.000  12.324     0.676
  In             42     0.878   1.447   9.989   0.000  12.314     0.686
  In             43     0.888   1.446   9.989   0.000  12.323     0.677
  In             44     0.896   1.442   9.989   0.000  12.328     0.672
  In             45     0.891   1.445   9.989   0.000  12.326     0.674
  In             46     0.885   1.448   9.989   0.000  12.323     0.677
  In             47     0.896   1.442   9.989   0.000  12.327     0.673
  In             48     0.889   1.446   9.989   0.000  12.324     0.676
==========================================================================

                 Bond                   Population      Length (A)
======================================================================
              P 26 -- In 16                  0.80        2.46402
              P 1  -- In 3                   0.70        2.46931
              P 2  -- In 3                   0.68        2.47515
              P 3  -- In 3                   0.66        2.47965
              P 13 -- In 15                  0.62        2.49428
              P 26 -- In 27                  0.74        2.49655
              P 14 -- In 4                   0.66        2.49673
              P 26 -- In 26                  0.69        2.50264
              P 25 -- In 28                  0.65        2.50408
              P 11 -- In 11                  0.63        2.50688
              P 37 -- In 40                  0.63        2.51245
              P 5  -- In 5                   0.62        2.51492
              P 38 -- In 39                  0.61        2.51532
              P 48 -- In 13                  1.35        2.51568
              P 9  -- In 9                   0.59        2.52258
              P 4  -- In 6                   1.34        2.52312
              P 6  -- In 6                   0.59        2.52347
              P 47 -- In 14                  1.36        2.52403
              P 6  -- In 7                   1.32        2.52528
              P 8  -- In 8                   0.59        2.52592
              P 7  -- In 7                   0.59        2.52666
              P 40 -- In 5                   0.60        2.52848
              P 9  -- In 11                  1.31        2.52938
              P 46 -- In 46                  0.58        2.52989
              P 17 -- In 20                  1.34        2.53016
              P 46 -- In 48                  1.33        2.53176
              P 15 -- In 17                  1.37        2.53178
              P 7  -- In 9                   1.32        2.53192
              P 39 -- In 42                  0.60        2.53224
              P 45 -- In 47                  1.35        2.53312
              P 48 -- In 48                  0.61        2.53385
              P 8  -- In 46                  1.32        2.53635
              P 18 -- In 19                  1.35        2.53664
              P 12 -- In 12                  0.60        2.53738
              P 5  -- In 8                   1.31        2.53772
              P 12 -- In 38                  0.60        2.53788
              P 40 -- In 40                  0.59        2.53800
              P 42 -- In 42                  0.59        2.53890
              P 20 -- In 10                  1.32        2.53928
              P 36 -- In 1                   1.35        2.53984
              P 28 -- In 41                  0.60        2.54026
              P 10 -- In 10                  0.58        2.54047
              P 34 -- In 36                  1.36        2.54053
              P 35 -- In 2                   1.33        2.54080
              P 27 -- In 29                  1.34        2.54119
              P 25 -- In 27                  1.15        2.54120
              P 43 -- In 45                  1.33        2.54166
              P 25 -- In 25                  0.61        2.54234
              P 23 -- In 37                  0.60        2.54263
              P 43 -- In 43                  0.57        2.54270
              P 20 -- In 20                  0.57        2.54311
              P 19 -- In 21                  1.33        2.54447
              P 10 -- In 12                  1.30        2.54626
              P 44 -- In 34                  1.34        2.54668
              P 11 -- In 25                  0.59        2.54766
              P 16 -- In 18                  1.34        2.54767
              P 14 -- In 15                  1.24        2.54783
              P 45 -- In 45                  0.56        2.54899
              P 42 -- In 43                  1.31        2.54974
              P 38 -- In 38                  0.59        2.54982
              P 23 -- In 23                  0.57        2.54994
              P 3  -- In 5                   1.24        2.55050
              P 10 -- In 23                  0.58        2.55126
              P 41 -- In 43                  0.58        2.55148
              P 33 -- In 35                  1.35        2.55154
              P 21 -- In 23                  1.31        2.55170
              P 24 -- In 2                   0.58        2.55191
              P 39 -- In 39                  0.56        2.55201
              P 42 -- In 8                   0.57        2.55211
              P 41 -- In 41                  0.56        2.55259
              P 32 -- In 22                  1.34        2.55269
              P 21 -- In 24                  0.58        2.55406
              P 28 -- In 30                  1.31        2.55423
              P 29 -- In 32                  1.35        2.55437
              P 21 -- In 21                  0.56        2.55442
              P 31 -- In 33                  1.34        2.55455
              P 41 -- In 44                  1.32        2.55506
              P 9  -- In 12                  0.58        2.55519
              P 12 -- In 25                  1.28        2.55559
              P 30 -- In 31                  1.33        2.55566
              P 38 -- In 28                  1.29        2.55625
              P 22 -- In 24                  1.33        2.55691
              P 11 -- In 26                  1.24        2.55696
              P 30 -- In 44                  0.58        2.55804
              P 17 -- In 17                  0.57        2.55821
              P 40 -- In 42                  1.29        2.55831
              P 37 -- In 39                  1.28        2.55877
              P 24 -- In 37                  1.31        2.55883
              P 20 -- In 21                  0.56        2.55951
              P 43 -- In 46                  0.56        2.55984
              P 44 -- In 44                  0.55        2.56014
              P 44 -- In 45                  0.56        2.56061
              P 37 -- In 37                  0.55        2.56065
              P 7  -- In 10                  0.56        2.56069
              P 23 -- In 38                  1.30        2.56077
              P 13 -- In 16                  1.21        2.56130
              P 5  -- In 7                   0.55        2.56137
              P 47 -- In 47                  0.58        2.56160
              P 8  -- In 9                   0.56        2.56166
              P 39 -- In 41                  1.30        2.56215
              P 27 -- In 30                  0.59        2.56258
              P 46 -- In 11                  0.55        2.56337
              P 6  -- In 20                  0.54        2.56346
              P 32 -- In 33                  0.56        2.56353
              P 19 -- In 22                  0.56        2.56416
              P 31 -- In 34                  0.56        2.56456
              P 19 -- In 19                  0.55        2.56495
              P 28 -- In 28                  0.53        2.56618
              P 45 -- In 48                  0.54        2.56729
              P 22 -- In 35                  0.57        2.56737
              P 24 -- In 24                  0.55        2.56748
              P 3  -- In 6                   0.52        2.56861
              P 33 -- In 36                  0.55        2.56962
              P 29 -- In 31                  0.56        2.56970
              P 34 -- In 34                  0.54        2.56988
              P 17 -- In 19                  0.54        2.57088
              P 1  -- In 4                   1.12        2.57100
              P 34 -- In 47                  0.54        2.57150
              P 13 -- In 13                  0.59        2.57178
              P 18 -- In 32                  0.55        2.57181
              P 30 -- In 30                  0.53        2.57368
              P 2  -- In 40                  1.19        2.57446
              P 48 -- In 26                  0.53        2.57547
              P 4  -- In 4                   0.55        2.57582
              P 18 -- In 18                  0.52        2.57583
              P 22 -- In 22                  0.54        2.57777
              P 36 -- In 36                  0.55        2.58177
              P 31 -- In 31                  0.54        2.58291
              P 32 -- In 32                  0.54        2.58387
              P 27 -- In 27                  0.50        2.58445
              P 33 -- In 33                  0.53        2.58472
              P 2  -- In 2                   0.52        2.58485
              P 4  -- In 17                  0.53        2.58589
              P 35 -- In 1                   0.55        2.58633
              P 36 -- In 14                  0.53        2.59057
              P 47 -- In 13                  0.52        2.59093
              P 14 -- In 14                  0.54        2.59118
              P 15 -- In 15                  0.52        2.59310
              P 16 -- In 29                  0.58        2.59346
              P 15 -- In 18                  0.54        2.59633
              P 35 -- In 35                  0.53        2.59907
              P 29 -- In 29                  0.50        2.60253
              P 1  -- In 1                   0.49        2.62859
              P 16 -- In 16                  0.46        2.63211
======================================================================

 Hirshfeld supercell size:           1           1           4
Standard grid dimensions: 250 250 180
Fine grid dimensions:     250 250 180


     Hirshfeld Analysis
     ------------------
Species   Ion     Hirshfeld Charge (e)
======================================
  P        1                -0.24
  P        2                -0.24
  P        3                -0.24
  P        4                -0.24
  P        5                -0.24
  P        6                -0.24
  P        7                -0.24
  P        8                -0.24
  P        9                -0.24
  P       10                -0.24
  P       11                -0.24
  P       12                -0.24
  P       13                -0.24
  P       14                -0.24
  P       15                -0.24
  P       16                -0.24
  P       17                -0.24
  P       18                -0.24
  P       19                -0.24
  P       20                -0.24
  P       21                -0.24
  P       22                -0.24
  P       23                -0.24
  P       24                -0.24
  P       25                -0.24
  P       26                -0.26
  P       27                -0.24
  P       28                -0.24
  P       29                -0.24
  P       30                -0.24
  P       31                -0.24
  P       32                -0.24
  P       33                -0.24
  P       34                -0.24
  P       35                -0.24
  P       36                -0.24
  P       37                -0.24
  P       38                -0.24
  P       39                -0.24
  P       40                -0.24
  P       41                -0.24
  P       42                -0.24
  P       43                -0.24
  P       44                -0.24
  P       45                -0.24
  P       46                -0.24
  P       47                -0.24
  P       48                -0.24
  In       1                 0.25
  In       2                 0.24
  In       3                 0.27
  In       4                 0.24
  In       5                 0.23
  In       6                 0.23
  In       7                 0.24
  In       8                 0.24
  In       9                 0.24
  In      10                 0.24
  In      11                 0.24
  In      12                 0.24
  In      13                 0.24
  In      14                 0.24
  In      15                 0.24
  In      16                 0.24
  In      17                 0.23
  In      18                 0.24
  In      19                 0.24
  In      20                 0.24
  In      21                 0.24
  In      22                 0.24
  In      23                 0.24
  In      24                 0.24
  In      25                 0.24
  In      26                 0.23
  In      27                 0.24
  In      28                 0.23
  In      29                 0.25
  In      30                 0.24
  In      31                 0.24
  In      32                 0.24
  In      33                 0.24
  In      34                 0.24
  In      35                 0.24
  In      36                 0.24
  In      37                 0.24
  In      38                 0.24
  In      39                 0.24
  In      40                 0.23
  In      41                 0.24
  In      42                 0.24
  In      43                 0.24
  In      44                 0.24
  In      45                 0.24
  In      46                 0.24
  In      47                 0.24
  In      48                 0.24
======================================


Writing analysis data to DFT_Quads_0.castep_bin
 
 A BibTeX formatted list of references used in this run has been written to 
 DFT_Quads_0.bib
 
Initialisation time =     28.29 s
Calculation time    =  57933.85 s
Finalisation time   =     94.00 s
Total time          =  58056.13 s
Peak Memory Use     = 12336660 kB
 
Overall parallel efficiency rating: Poor (35%)
 
Data was distributed by:-
G-vector (4-way); efficiency rating: Poor (37%)
k-point (20-way); efficiency rating: Very good (84%)
