 +-------------------------------------------------+
 |                                                 |
 |      CCC   AA    SSS  TTTTT  EEEEE  PPPP        |
 |     C     A  A  S       T    E      P   P       |
 |     C     AAAA   SS     T    EEE    PPPP        |
 |     C     A  A     S    T    E      P           |
 |      CCC  A  A  SSS     T    EEEEE  P           |
 |                                                 |
 +-------------------------------------------------+
 |                                                 |
 | Welcome to Academic Release CASTEP version 22.11|
 | Ab Initio Total Energy Program                  |
 |                                                 |
 | Authors:                                        |
 | M. Segall, M. Probert, C. Pickard, P. Hasnip,   |
 | S. Clark, K. Refson, J. R. Yates, M. Payne      |
 |                                                 |
 | Contributors:                                   |
 | P. Lindan, P. Haynes, J. White, V. Milman,      |
 | N. Govind, M. Gibson, P. Tulip, V. Cocula,      |
 | B. Montanari, D. Quigley, M. Glover,            |
 | L. Bernasconi, A. Perlov, M. Plummer,           |
 | E. McNellis, J. Meyer, J. Gale, D. Jochym       |
 | J. Aarons, B. Walker, R. Gillen, D. Jones       |
 | T. Green, I. J. Bush, C. J. Armstrong,          |
 | E. J. Higgins, E. L. Brown, M. S. McFly,        |
 | J. Wilkins, B-C. Shih, P. J. P. Byrne,          |
 | R. J. Maurer, J. C. Womack, J. Dziedzic,        |
 | A. Bartok-Partay, L. LeBlanc, T. K. Stenczel,   |
 | J. Kermode, S. Sturniolo, B. Shi, B. Durham     |
 | M. Evans, M. J. Smith                           |
 |                                                 |
 | Copyright (c) 2000 - 2021                       |
 |                                                 |
 |     Distributed under license from Cambridge    |
 |     Enterprise for academic use only.           |
 |                                                 |
 | Please cite                                     |
 |                                                 |
 |     "First principles methods using CASTEP"     |
 |                                                 |
 |         Zeitschrift fuer Kristallographie       |
 |           220(5-6) pp. 567-570 (2005)           |
 |                                                 |
 | S. J. Clark, M. D. Segall, C. J. Pickard,       |
 | P. J. Hasnip, M. J. Probert, K. Refson,         |
 | M. C. Payne                                     |
 |                                                 |
 |       in all publications arising from          |
 |              your use of CASTEP                 |
 |                                                 |
 +-------------------------------------------------+
 |                                                 |
 |              http://www.castep.org              |
 |                                                 |
 +-------------------------------------------------+



 Compiled for linux_x86_64_gfortran10-XT on Thu, 16 Mar 2023 13:12:36 +0000
 from code version Version unavailable
 Compiler: GNU Fortran 11.2.0; Optimisation: fast
 MATHLIBS: LibSci (LAPACK version 3.10.1)
 FFT Lib : fftw3 version commercial-fftw-3.3.10-sse2-avx-avx2-avx2_128
 Fundamental constants values: CODATA 2014

 Run started: Mon, 25 Mar 2024 14:56:43 +0000

 Atomic calculation performed for P: 1s2 2s2 2p6 3s2 3p3

 Converged in 47 iterations to an ae energy of -9309.074 eV

   ============================================================                
   | Pseudopotential Report - Date of generation 25-03-2024   |                
   ------------------------------------------------------------                
   | Element: P Ionic charge:  5.00 Level of theory: RSCAN    |                
   | Atomic Solver: Koelling-Harmon                           |                
   |                                                          |                
   |               Reference Electronic Structure             |                
   |         Orbital         Occupation         Energy        |                
   |            3s              2.000           -0.535        |                
   |            3p              3.000           -0.209        |                
   |                                                          |                
   |                 Pseudopotential Definition               |                
   |        Beta     l      e      Rc     scheme   norm       |                
   |          1      0   -0.535   1.807     qc      0         |                
   |          2      0    0.250   1.807     qc      0         |                
   |          3      1   -0.209   1.807     qc      0         |                
   |          4      1    0.250   1.807     qc      0         |                
   |          5      2    0.000   1.807     qc      0         |                
   |          6      2    0.250   1.807     qc      0         |                
   |         loc     3    0.000   1.807     pn      0         |                
   |                                                          |                
   | Augmentation charge Rinner = 1.263                       |                
   | Partial core correction Rc = 1.263                       |                
   ------------------------------------------------------------                
   | "3|1.8|4|4|5|30:31:32"                                   |                
   ------------------------------------------------------------                
   |      Author: Chris J. Pickard, Cambridge University      |                
   ============================================================                
 Warning: otfg_output_psp cannot write out meta-GGA pseudopotentials presently.

 Atomic calculation performed for In:
 1s2 2s2 2p6 3s2 3p6 3d10 4s2 4p6 4d10 5s2 5p1

 Converged in 84 iterations to an ae energy of -160093.327 eV

   ============================================================                
   | Pseudopotential Report - Date of generation 25-03-2024   |                
   ------------------------------------------------------------                
   | Element: In Ionic charge: 13.00 Level of theory: RSCAN   |                
   | Atomic Solver: Koelling-Harmon                           |                
   |                                                          |                
   |               Reference Electronic Structure             |                
   |         Orbital         Occupation         Energy        |                
   |            4d             10.000           -0.711        |                
   |            5s              2.000           -0.313        |                
   |            5p              1.000           -0.095        |                
   |                                                          |                
   |                 Pseudopotential Definition               |                
   |        Beta     l      e      Rc     scheme   norm       |                
   |          1      0   -0.313   2.501     qc      0         |                
   |          2      0    0.250   2.501     qc      0         |                
   |          3      1   -0.095   2.501     qc      0         |                
   |          4      1    0.250   2.501     qc      0         |                
   |          5      2   -0.711   2.207     qc      0         |                
   |          6      2    0.250   2.207     qc      0         |                
   |         loc     3    0.000   2.501     pn      0         |                
   |                                                          |                
   | Augmentation charge Rinner = 1.504                       |                
   | Partial core correction Rc = 1.504                       |                
   ------------------------------------------------------------                
   | "3|2.5|2.5|1.5|7|8|9|50:51:42U2.2U2.2"                   |                
   ------------------------------------------------------------                
   |      Author: Chris J. Pickard, Cambridge University      |                
   ============================================================                
 Warning: otfg_output_psp cannot write out meta-GGA pseudopotentials presently.

 Pseudo atomic calculation performed for P 3s2 3p3

 Converged in 23 iterations to a total energy of -208.0292 eV

 Pseudo atomic calculation performed for In 4d10 5s2 5p1

 Converged in 42 iterations to a total energy of -1747.4500 eV
 Calculation parallelised over 252 processes.
 Data is distributed by G-vector(7-way) and k-point(36-way)
 Each process may use up to 2 threads.

 ************************************ Title ************************************
 

 ***************************** General Parameters ******************************
  
 output verbosity                               : normal  (1)
 write checkpoint data to                       : StackingFaultStructs_(1_1_1)_(1_1_-2)_2.check
 type of calculation                            : geometry optimization
 stress calculation                             : off
 density difference calculation                 : off
 electron localisation func (ELF) calculation   : off
 Hirshfeld analysis                             : on
 polarisation (Berry phase) analysis            : off
 molecular orbital projected DOS                : off
 deltaSCF calculation                           : off
 unlimited duration calculation
 timing information                             : on
 memory usage estimate                          : on
 write extra output files                       : on
 write final potential to formatted file        : off
 write final density to formatted file          : off
 write BibTeX reference list                    : on
 write OTFG pseudopotential files               : on
 write electrostatic potential file             : on
 write bands file                               : on
 checkpoint writing                             : off
  
 output         length unit                     : A
 output           mass unit                     : amu
 output           time unit                     : ps
 output         charge unit                     : e
 output           spin unit                     : hbar/2
 output         energy unit                     : eV
 output          force unit                     : eV/A
 output       velocity unit                     : A/ps
 output       pressure unit                     : GPa
 output     inv_length unit                     : 1/A
 output      frequency unit                     : cm-1
 output force constant unit                     : eV/A**2
 output         volume unit                     : A**3
 output   IR intensity unit                     : (D/A)**2/amu
 output         dipole unit                     : D
 output         efield unit                     : eV/A/e
 output        entropy unit                     : J/mol/K
 output    efield chi2 unit                     : pm/V
  
 wavefunctions paging                           : none
 random number generator seed                   : randomised (145643877)
 data distribution                              : optimal for this architecture
 optimization strategy                          : balance speed and memory

 *********************** Exchange-Correlation Parameters ***********************
  
 using functional                               : RSCAN
 relativistic treatment                         : Koelling-Harmon
 DFT+D: Semi-empirical dispersion correction    : off

 ************************* Pseudopotential Parameters **************************
  
 pseudopotential representation                 : reciprocal space
 <beta|phi> representation                      : reciprocal space
 spin-orbit coupling                            : off

 **************************** Basis Set Parameters *****************************
  
 plane wave basis set cut-off                   :   900.0000   eV
 size of standard grid                          :     2.0000
 size of   fine   gmax                          :    30.7390   1/A
 finite basis set correction                    : none

 **************************** Electronic Parameters ****************************
  
 number of  electrons                           :  432.0    
 net charge of system                           :  0.000    
 treating system as non-spin-polarized
 number of bands                                :        259

 ********************* Electronic Minimization Parameters **********************
  
 Method: Treating system as metallic with density mixing treatment of electrons,
         and number of  SD  steps               :          1
         and number of  CG  steps               :          4
  
 total energy / atom convergence tol.           : 0.1000E-07   eV
 eigen-energy convergence tolerance             : 0.2222E-08   eV
 max force / atom convergence tol.              : ignored
 convergence tolerance window                   :          3   cycles
 max. number of SCF cycles                      :         50
 number of fixed-spin iterations                :         10
 smearing scheme                                : Gaussian
 smearing width                                 : 0.2000       eV
 Fermi energy convergence tolerance             : 0.2721E-13   eV
 periodic dipole correction                     : NONE

 ************************** Density Mixing Parameters **************************
  
 density-mixing scheme                          : Pulay
 max. length of mixing history                  :         15
 charge density mixing amplitude                : 0.5000    
 cut-off energy for mixing                      :  900.0       eV

 *********************** Population Analysis Parameters ************************
  
 Population analysis with cutoff                :  3.000       A
 Population analysis output                     : summary and pdos components

 ********************** Geometry Optimization Parameters ***********************
  
 optimization method                            : LBFGS
 max. no. of LBFGS updates                      : unbounded
 preconditioned LBFGS is activated
 preconditioner type                            : EXP
     stabilization constant                     :     0.1000
     parameter A                                :     3.0000
     nearest neighbor distance                  : automatic
     cut-off distance                           : automatic
     parameter mu                               : automatic
 variable cell method                           : fixed basis quality
 max. number of steps                           :         30
 estimated bulk modulus                         :  500.0       GPa
 estimated <frequency>                          :  1668.       cm-1
 geom line minimiser                            : on
 with line minimiser tolerance                  :     0.4000
 total energy convergence tolerance             : 0.2000E-04   eV/atom
        max ionic |force| tolerance             : 0.1000E-02   eV/A
 max ionic |displacement| tolerance             : 0.1000E-02   A
   max |stress component| tolerance             : 0.1000       GPa
 convergence tolerance window                   :          2   steps
 backup results every                           :          5   steps
 write geom trajectory file                     : on

 *******************************************************************************
  

                           -------------------------------
                                      Unit Cell
                           -------------------------------
        Real Lattice(A)                      Reciprocal Lattice(1/A)
     8.3456610     0.0000000     0.0000000        0.752868503   0.000000000   0.000000000
     0.0000000    14.4551090     0.0000000        0.000000000   0.434668829  -0.070928591
     0.0000000     1.6678970    10.2213060        0.000000000   0.000000000   0.614714529

                       Lattice parameters(A)       Cell Angles
                    a =      8.345661          alpha =   80.732245
                    b =     14.455109          beta  =   90.000000
                    c =     10.356494          gamma =   90.000000

                       Current cell volume =          1233.072183       A**3
                                   density =             2.837630   AMU/A**3
                                           =             4.711995     g/cm^3

                           -------------------------------
                                     Cell Contents
                           -------------------------------
                         Total number of ions in cell =   48
                      Total number of species in cell =    2
                        Max number of any one species =   24

            xxxxxxxxxxxxxxxxxxxxxxxxxxxxxxxxxxxxxxxxxxxxxxxxxxxxxxxxxxxx
            x  Element    Atom        Fractional coordinates of atoms  x
            x            Number           u          v          w      x
            x----------------------------------------------------------x
            x  P            1         0.000000   0.411556   0.766512   x 
            x  P            2         0.000000   0.785145   0.417636   x 
            x  P            3         0.250000   0.661556   0.766512   x 
            x  P            4         0.750000   0.661556   0.766512   x 
            x  P            5         0.250000   0.161556   0.766512   x 
            x  P            6         0.750000   0.161556   0.766512   x 
            x  P            7         0.500000   0.157582   0.078736   x 
            x  P            8         0.500000   0.411556   0.766512   x 
            x  P            9         0.000000   0.657582   0.078736   x 
            x  P           10         0.000000   0.157582   0.078736   x 
            x  P           11         0.250000   0.407582   0.078736   x 
            x  P           12         0.000000   0.285145   0.417636   x 
            x  P           13         0.250000   0.035145   0.417636   x 
            x  P           14         0.000000  -0.088444   0.766512   x 
            x  P           15         0.500000  -0.088444   0.766512   x 
            x  P           16         0.750000   0.407582   0.078736   x 
            x  P           17         0.500000   0.657582   0.078736   x 
            x  P           18         0.750000   0.907582   0.078736   x 
            x  P           19         0.250000   0.907582   0.078736   x 
            x  P           20         0.500000   0.785145   0.417636   x 
            x  P           21         0.500000   0.285145   0.417636   x 
            x  P           22         0.750000   0.535145   0.417636   x 
            x  P           23         0.750000   0.035145   0.417636   x 
            x  P           24         0.250000   0.535145   0.417636   x 
            x  In           1         0.500000   0.756073   0.669586   x 
            x  In           2         0.750000   0.006073   0.669586   x 
            x  In           3         0.250000   0.751632  -0.014148   x 
            x  In           4         0.750000   0.751632  -0.014148   x 
            x  In           5         0.250000   0.006073   0.669586   x 
            x  In           6         0.500000   0.256073   0.669586   x 
            x  In           7         0.500000   0.501632  -0.014148   x 
            x  In           8         0.250000   0.878396   0.331678   x 
            x  In           9         0.500000   0.628396   0.331678   x 
            x  In          10         0.750000   0.251632  -0.014148   x 
            x  In          11         0.750000   0.378396   0.331678   x 
            x  In          12         0.000000   0.128396   0.331678   x 
            x  In          13         0.000000   0.001632  -0.014148   x 
            x  In          14         0.000000   0.628396   0.331678   x 
            x  In          15         0.250000   0.506073   0.669586   x 
            x  In          16         0.000000   0.501632  -0.014148   x 
            x  In          17         0.250000   0.251632  -0.014148   x 
            x  In          18         0.000000   0.756073   0.669586   x 
            x  In          19         0.000000   0.256073   0.669586   x 
            x  In          20         0.750000   0.878396   0.331678   x 
            x  In          21         0.250000   0.378396   0.331678   x 
            x  In          22         0.500000   0.001632  -0.014148   x 
            x  In          23         0.500000   0.128396   0.331678   x 
            x  In          24         0.750000   0.506073   0.669586   x 
            xxxxxxxxxxxxxxxxxxxxxxxxxxxxxxxxxxxxxxxxxxxxxxxxxxxxxxxxxxxx


                         No user defined ionic velocities

                           -------------------------------
                                   Details of Species
                           -------------------------------

                               Mass of species in AMU
                                    P   30.9737600
                                    In  114.8180000

                          Electric Quadrupole Moment (Barn)
                                    P    1.0000000 No Isotope Defined
                                    In    0.7700000 Isotope115

                          Files used for pseudopotentials:
                                    P 3|1.8|4|4|5|30:31:32
                                    In 3|2.5|2.5|1.5|7|8|9|50:51:42U2.2U2.2

                           -------------------------------
                              k-Points For BZ Sampling
                           -------------------------------
                       MP grid size for SCF calculation is  4  4  4
                            with an offset of   0.125  0.125  0.125
                       Number of kpoints used =            36

                           -------------------------------
                               Symmetry and Constraints
                           -------------------------------

                      Cell is a supercell containing 8 primitive cells
                      Maximum deviation from symmetry =  0.00000         ANG

                      Number of symmetry operations   =           1
                      Number of ionic constraints     =          96
                      Point group of crystal =     1: C1, 1, 1
                      Space group of crystal =     8: Cm, C -2y

             Set iprint > 1 for details on symmetry rotations/translations

                         Centre of mass is NOT constrained
             Set iprint > 1 for details of linear ionic constraints

                         Number of cell constraints= 6
                         Cell constraints are:  0 0 0 0 0 0

                         External pressure/stress (GPa)
                          0.00000   0.00000   0.00000
                                    0.00000   0.00000
                                              0.00000
 
+---------------- MEMORY AND SCRATCH DISK ESTIMATES PER PROCESS --------------+
|                                                     Memory          Disk    |
| Baseline code, static data and system overhead      488.0 MB         0.0 MB |
| BLAS internal memory storage                          0.0 MB         0.0 MB |
| Model and support data                             1459.6 MB         0.0 MB |
| Electronic energy minimisation requirements         243.1 MB         0.0 MB |
| Force calculation requirements                       29.4 MB         0.0 MB |
|                                               ----------------------------- |
| Approx. total storage required per process         2190.7 MB         0.0 MB |
|                                                                             |
| Requirements will fluctuate during execution and may exceed these estimates |
+-----------------------------------------------------------------------------+
Calculating approximate eigenstates for fixed initial Hamiltonian
Cut-off for approx. calculation is   89.988 eV
Improving approx. states at cut-off of  450.000 eV
Resetting cut-off to  900.000 eV
Calculating total energy with cut-off of  900.000 eV.
------------------------------------------------------------------------ <-- SCF
SCF loop      Energy           Fermi           Energy gain       Timer   <-- SCF
                               energy          per atom          (sec)   <-- SCF
------------------------------------------------------------------------ <-- SCF
Initial  -4.72934417E+004  0.00000000E+000                        87.83  <-- SCF
      1  -4.70969689E+004  2.51740025E+000  -4.09318213E+000     155.17  <-- SCF
      2  -4.70972507E+004  2.51714348E+000   5.87029872E-003     206.80  <-- SCF
      3  -4.71483315E+004  2.80885597E+000   1.06418446E+000     265.85  <-- SCF
      4  -4.71578463E+004  2.87295701E+000   1.98225121E-001     337.70  <-- SCF
      5  -4.71533346E+004  3.14299994E+000  -9.39943239E-002     396.39  <-- SCF
      6  -4.71527663E+004  3.19724370E+000  -1.18406322E-002     455.19  <-- SCF
      7  -4.71526278E+004  3.23409895E+000  -2.88374271E-003     515.98  <-- SCF
      8  -4.71538370E+004  3.25943010E+000   2.51910484E-002     574.78  <-- SCF
      9  -4.71537977E+004  3.22468259E+000  -8.19828798E-004     633.77  <-- SCF
     10  -4.71538811E+004  3.23538822E+000   1.73754493E-003     692.89  <-- SCF
     11  -4.71538826E+004  3.23226356E+000   3.25894651E-005     753.75  <-- SCF
     12  -4.71538829E+004  3.23194733E+000   5.65528096E-006     813.32  <-- SCF
     13  -4.71538829E+004  3.23229357E+000   1.43480461E-007     867.16  <-- SCF
     14  -4.71538829E+004  3.23223167E+000   7.48595225E-008     911.79  <-- SCF
     15  -4.71538829E+004  3.23234068E+000  -2.40254879E-009     953.78  <-- SCF
     16  -4.71538829E+004  3.23233642E+000   2.96596640E-009     994.98  <-- SCF
------------------------------------------------------------------------ <-- SCF
 
Final energy, E             =  -47153.87590466     eV
Final free energy (E-TS)    =  -47153.88291581     eV
(energies not corrected for finite basis set)
 
NB est. 0K energy (E-0.5TS)      =  -47153.87941024     eV
 
 
+---------------- MEMORY AND SCRATCH DISK ESTIMATES PER PROCESS --------------+
|                                                     Memory          Disk    |
| Model and support data                              934.3 MB         0.0 MB |
| Electronic energy minimisation requirements         243.1 MB         0.0 MB |
| Geometry minimisation requirements                  290.0 MB         0.0 MB |
|                                               ----------------------------- |
| Approx. total storage required per process         1467.3 MB         0.0 MB |
|                                                                             |
| Requirements will fluctuate during execution and may exceed these estimates |
+-----------------------------------------------------------------------------+
 

 ******************************** Constrained Forces ********************************
 *                                                                                  *
 *                           Cartesian components (eV/A)                            *
 * -------------------------------------------------------------------------------- *
 *                         x                    y                    z              *
 *                                                                                  *
 * P               1      0.00000(cons'd)      0.00000(cons'd)     -0.08252         *
 * P               2      0.00000(cons'd)      0.00000(cons'd)     -0.02572         *
 * P               3      0.00000(cons'd)      0.00000(cons'd)     -0.08017         *
 * P               4      0.00000(cons'd)      0.00000(cons'd)     -0.08017         *
 * P               5      0.00000(cons'd)      0.00000(cons'd)     -0.08017         *
 * P               6     -0.00000(cons'd)      0.00000(cons'd)     -0.08017         *
 * P               7     -0.00000(cons'd)      0.00000(cons'd)     -0.11681         *
 * P               8      0.00000(cons'd)      0.00000(cons'd)     -0.08252         *
 * P               9      0.00000(cons'd)      0.00000(cons'd)     -0.11681         *
 * P              10      0.00000(cons'd)      0.00000(cons'd)     -0.11681         *
 * P              11      0.00000(cons'd)      0.00000(cons'd)     -0.11587         *
 * P              12      0.00000(cons'd)      0.00000(cons'd)     -0.02572         *
 * P              13      0.00000(cons'd)      0.00000(cons'd)     -0.02587         *
 * P              14      0.00000(cons'd)      0.00000(cons'd)     -0.08252         *
 * P              15      0.00000(cons'd)      0.00000(cons'd)     -0.08252         *
 * P              16      0.00000(cons'd)      0.00000(cons'd)     -0.11587         *
 * P              17     -0.00000(cons'd)      0.00000(cons'd)     -0.11681         *
 * P              18      0.00000(cons'd)      0.00000(cons'd)     -0.11587         *
 * P              19      0.00000(cons'd)      0.00000(cons'd)     -0.11587         *
 * P              20      0.00000(cons'd)      0.00000(cons'd)     -0.02572         *
 * P              21     -0.00000(cons'd)      0.00000(cons'd)     -0.02572         *
 * P              22      0.00000(cons'd)      0.00000(cons'd)     -0.02587         *
 * P              23      0.00000(cons'd)      0.00000(cons'd)     -0.02587         *
 * P              24      0.00000(cons'd)      0.00000(cons'd)     -0.02587         *
 * In              1      0.00000(cons'd)      0.00000(cons'd)     -0.02539         *
 * In              2      0.00000(cons'd)      0.00000(cons'd)     -0.02541         *
 * In              3      0.00000(cons'd)      0.00000(cons'd)      0.28663         *
 * In              4     -0.00000(cons'd)      0.00000(cons'd)      0.28663         *
 * In              5      0.00000(cons'd)      0.00000(cons'd)     -0.02541         *
 * In              6      0.00000(cons'd)      0.00000(cons'd)     -0.02538         *
 * In              7      0.00000(cons'd)      0.00000(cons'd)      0.28661         *
 * In              8     -0.00000(cons'd)      0.00000(cons'd)     -0.03771         *
 * In              9      0.00000(cons'd)      0.00000(cons'd)     -0.03777         *
 * In             10      0.00000(cons'd)      0.00000(cons'd)      0.28663         *
 * In             11      0.00000(cons'd)      0.00000(cons'd)     -0.03772         *
 * In             12      0.00000(cons'd)      0.00000(cons'd)     -0.03777         *
 * In             13     -0.00000(cons'd)      0.00000(cons'd)      0.28661         *
 * In             14      0.00000(cons'd)      0.00000(cons'd)     -0.03778         *
 * In             15      0.00000(cons'd)      0.00000(cons'd)     -0.02541         *
 * In             16      0.00000(cons'd)      0.00000(cons'd)      0.28661         *
 * In             17      0.00000(cons'd)      0.00000(cons'd)      0.28663         *
 * In             18      0.00000(cons'd)      0.00000(cons'd)     -0.02539         *
 * In             19      0.00000(cons'd)      0.00000(cons'd)     -0.02538         *
 * In             20      0.00000(cons'd)      0.00000(cons'd)     -0.03772         *
 * In             21      0.00000(cons'd)      0.00000(cons'd)     -0.03772         *
 * In             22      0.00000(cons'd)      0.00000(cons'd)      0.28661         *
 * In             23      0.00000(cons'd)      0.00000(cons'd)     -0.03777         *
 * In             24      0.00000(cons'd)      0.00000(cons'd)     -0.02541         *
 *                                                                                  *
 ************************************************************************************
 EXP precond LBFGS => estimated nearest neighbor distance :  2.605       A
 EXP precond LBFGS => estimated cutoff distance :  5.210       A

 ************************************** Forces **************************************
 *                                                                                  *
 *                           Cartesian components (eV/A)                            *
 * -------------------------------------------------------------------------------- *
 *                         x                    y                    z              *
 *                                                                                  *
 * P               1      0.00000(cons'd)      0.85339(cons'd)     -0.08252         *
 * P               2      0.00000(cons'd)      0.10773(cons'd)     -0.02572         *
 * P               3      0.00000(cons'd)      0.85076(cons'd)     -0.08017         *
 * P               4      0.00000(cons'd)      0.85075(cons'd)     -0.08017         *
 * P               5      0.00000(cons'd)      0.85076(cons'd)     -0.08017         *
 * P               6     -0.00000(cons'd)      0.85076(cons'd)     -0.08017         *
 * P               7     -0.00000(cons'd)      0.02986(cons'd)     -0.11681         *
 * P               8     -0.00000(cons'd)      0.85340(cons'd)     -0.08252         *
 * P               9      0.00000(cons'd)      0.02987(cons'd)     -0.11681         *
 * P              10      0.00000(cons'd)      0.02986(cons'd)     -0.11681         *
 * P              11      0.00000(cons'd)      0.03111(cons'd)     -0.11587         *
 * P              12      0.00000(cons'd)      0.10772(cons'd)     -0.02572         *
 * P              13      0.00000(cons'd)      0.11078(cons'd)     -0.02587         *
 * P              14      0.00000(cons'd)      0.85339(cons'd)     -0.08252         *
 * P              15     -0.00000(cons'd)      0.85340(cons'd)     -0.08252         *
 * P              16     -0.00000(cons'd)      0.03111(cons'd)     -0.11587         *
 * P              17     -0.00000(cons'd)      0.02987(cons'd)     -0.11681         *
 * P              18     -0.00000(cons'd)      0.03110(cons'd)     -0.11587         *
 * P              19      0.00000(cons'd)      0.03111(cons'd)     -0.11587         *
 * P              20     -0.00000(cons'd)      0.10773(cons'd)     -0.02572         *
 * P              21     -0.00000(cons'd)      0.10772(cons'd)     -0.02572         *
 * P              22     -0.00000(cons'd)      0.11077(cons'd)     -0.02587         *
 * P              23     -0.00000(cons'd)      0.11078(cons'd)     -0.02587         *
 * P              24      0.00000(cons'd)      0.11077(cons'd)     -0.02587         *
 * In              1     -0.00000(cons'd)     -0.38962(cons'd)     -0.02539         *
 * In              2     -0.00000(cons'd)     -0.38957(cons'd)     -0.02541         *
 * In              3      0.00000(cons'd)     -0.55608(cons'd)      0.28663         *
 * In              4      0.00000(cons'd)     -0.55608(cons'd)      0.28663         *
 * In              5      0.00000(cons'd)     -0.38957(cons'd)     -0.02541         *
 * In              6     -0.00000(cons'd)     -0.38962(cons'd)     -0.02538         *
 * In              7     -0.00000(cons'd)     -0.55605(cons'd)      0.28661         *
 * In              8      0.00000(cons'd)     -0.04618(cons'd)     -0.03771         *
 * In              9     -0.00000(cons'd)     -0.04613(cons'd)     -0.03777         *
 * In             10     -0.00000(cons'd)     -0.55607(cons'd)      0.28663         *
 * In             11     -0.00000(cons'd)     -0.04617(cons'd)     -0.03772         *
 * In             12      0.00000(cons'd)     -0.04613(cons'd)     -0.03777         *
 * In             13      0.00000(cons'd)     -0.55605(cons'd)      0.28661         *
 * In             14      0.00000(cons'd)     -0.04613(cons'd)     -0.03778         *
 * In             15      0.00000(cons'd)     -0.38957(cons'd)     -0.02541         *
 * In             16      0.00000(cons'd)     -0.55605(cons'd)      0.28661         *
 * In             17      0.00000(cons'd)     -0.55608(cons'd)      0.28663         *
 * In             18      0.00000(cons'd)     -0.38962(cons'd)     -0.02539         *
 * In             19      0.00000(cons'd)     -0.38962(cons'd)     -0.02538         *
 * In             20     -0.00000(cons'd)     -0.04618(cons'd)     -0.03772         *
 * In             21      0.00000(cons'd)     -0.04618(cons'd)     -0.03772         *
 * In             22     -0.00000(cons'd)     -0.55605(cons'd)      0.28661         *
 * In             23     -0.00000(cons'd)     -0.04613(cons'd)     -0.03777         *
 * In             24     -0.00000(cons'd)     -0.38957(cons'd)     -0.02541         *
 *                                                                                  *
 ************************************************************************************
 doing test perturbation to get energy scale for EXP preconditioner

                           -------------------------------
                                     Cell Contents
                           -------------------------------

            xxxxxxxxxxxxxxxxxxxxxxxxxxxxxxxxxxxxxxxxxxxxxxxxxxxxxxxxxxxxxxxxx
            x  Element         Atom        Fractional coordinates of atoms  x
            x                 Number           u          v          w      x
            x---------------------------------------------------------------x
            x  P                 1         0.000000   0.412271   0.768418   x
            x  P                 2         0.000000   0.786436   0.418768   x
            x  P                 3         0.251021   0.662652   0.768418   x
            x  P                 4         0.752627   0.662652   0.768418   x
            x  P                 5         0.251021   0.161822   0.768418   x
            x  P                 6         0.752627   0.161822   0.768418   x
            x  P                 7         0.501930   0.157882   0.078957   x
            x  P                 8         0.501930   0.412271   0.768418   x
            x  P                 9         0.000000   0.658754   0.078957   x
            x  P                10         0.000000   0.157882   0.078957   x
            x  P                11         0.251021   0.408348   0.078957   x
            x  P                12         0.000000   0.285655   0.418768   x
            x  P                13         0.251021   0.035177   0.418768   x
            x  P                14         0.000000   0.912935   0.768418   x
            x  P                15         0.501930   0.912935   0.768418   x
            x  P                16         0.752627   0.408348   0.078957   x
            x  P                17         0.501930   0.658754   0.078957   x
            x  P                18         0.752627   0.909073   0.078957   x
            x  P                19         0.251021   0.909073   0.078957   x
            x  P                20         0.501930   0.786436   0.418768   x
            x  P                21         0.501930   0.285655   0.418768   x
            x  P                22         0.752627   0.536085   0.418768   x
            x  P                23         0.752627   0.035177   0.418768   x
            x  P                24         0.251021   0.536085   0.418768   x
            x  In                1         0.501930   0.757297   0.671301   x
            x  In                2         0.752627   0.006039   0.671301   x
            x  In                3         0.251021   0.752832   0.988108   x
            x  In                4         0.752627   0.752832   0.988108   x
            x  In                5         0.251021   0.006039   0.671301   x
            x  In                6         0.501930   0.256516   0.671301   x
            x  In                7         0.501930   0.502493   0.988108   x
            x  In                8         0.251021   0.879807   0.332589   x
            x  In                9         0.501930   0.629489   0.332589   x
            x  In               10         0.752627   0.252072   0.988108   x
            x  In               11         0.752627   0.379082   0.332589   x
            x  In               12         0.000000   0.128617   0.332589   x
            x  In               13         0.000000   0.001598   0.988108   x
            x  In               14         0.000000   0.629489   0.332589   x
            x  In               15         0.251021   0.506946   0.671301   x
            x  In               16         0.000000   0.502493   0.988108   x
            x  In               17         0.251021   0.252072   0.988108   x
            x  In               18         0.000000   0.757297   0.671301   x
            x  In               19         0.000000   0.256516   0.671301   x
            x  In               20         0.752627   0.879807   0.332589   x
            x  In               21         0.251021   0.379082   0.332589   x
            x  In               22         0.501930   0.001598   0.988108   x
            x  In               23         0.501930   0.128617   0.332589   x
            x  In               24         0.752627   0.506946   0.671301   x
            xxxxxxxxxxxxxxxxxxxxxxxxxxxxxxxxxxxxxxxxxxxxxxxxxxxxxxxxxxxxxxxxx


------------------------------------------------------------------------ <-- SCF
SCF loop      Energy           Fermi           Energy gain       Timer   <-- SCF
                               energy          per atom          (sec)   <-- SCF
------------------------------------------------------------------------ <-- SCF
Initial  -4.71513345E+004  0.00000000E+000                      1056.44  <-- SCF
      1  -4.71535846E+004  3.24134048E+000   4.68788656E-002    1118.02  <-- SCF
      2  -4.71538988E+004  3.24126666E+000   6.54483343E-003    1190.07  <-- SCF
      3  -4.71539021E+004  3.24158072E+000   6.91904595E-005    1251.19  <-- SCF
      4  -4.71539041E+004  3.24179373E+000   4.10005341E-005    1313.38  <-- SCF
      5  -4.71539044E+004  3.24182773E+000   6.33990438E-006    1383.81  <-- SCF
      6  -4.71539044E+004  3.24185588E+000   1.10725919E-006    1445.53  <-- SCF
      7  -4.71539044E+004  3.24188511E+000   4.25475034E-008    1500.44  <-- SCF
      8  -4.71539044E+004  3.24189757E+000  -8.77866761E-009    1548.42  <-- SCF
      9  -4.71539044E+004  3.24189905E+000  -3.53763354E-009    1590.98  <-- SCF
     10  -4.71539044E+004  3.24189621E+000   7.72105117E-011    1632.51  <-- SCF
     11  -4.71539044E+004  3.24189474E+000   2.22479705E-010    1673.71  <-- SCF
------------------------------------------------------------------------ <-- SCF
 
Final energy, E             =  -47153.89799406     eV
Final free energy (E-TS)    =  -47153.90444872     eV
(energies not corrected for finite basis set)
 
NB est. 0K energy (E-0.5TS)      =  -47153.90122139     eV
 

 ************************************** Forces **************************************
 *                                                                                  *
 *                           Cartesian components (eV/A)                            *
 * -------------------------------------------------------------------------------- *
 *                         x                    y                    z              *
 *                                                                                  *
 * P               1      0.10700(cons'd)      0.81908(cons'd)     -0.09366         *
 * P               2      0.13693(cons'd)      0.05731(cons'd)     -0.01202         *
 * P               3      0.01226(cons'd)      0.87755(cons'd)     -0.12721         *
 * P               4     -0.09304(cons'd)      0.81185(cons'd)     -0.09073         *
 * P               5      0.01178(cons'd)      0.88807(cons'd)     -0.13345         *
 * P               6     -0.09380(cons'd)      0.82294(cons'd)     -0.09705         *
 * P               7     -0.02591(cons'd)      0.07334(cons'd)     -0.02296         *
 * P               8     -0.02468(cons'd)      0.87435(cons'd)     -0.12441         *
 * P               9      0.13093(cons'd)      0.01293(cons'd)      0.02079         *
 * P              10      0.13070(cons'd)      0.02509(cons'd)      0.02232         *
 * P              11      0.01027(cons'd)      0.07312(cons'd)     -0.02862         *
 * P              12      0.13666(cons'd)      0.06480(cons'd)     -0.00602         *
 * P              13      0.00830(cons'd)      0.25593(cons'd)     -0.00746         *
 * P              14      0.11206(cons'd)      0.72845(cons'd)     -0.07171         *
 * P              15     -0.02527(cons'd)      0.78571(cons'd)     -0.10468         *
 * P              16     -0.11245(cons'd)      0.01464(cons'd)      0.02558         *
 * P              17     -0.02460(cons'd)      0.06220(cons'd)     -0.02499         *
 * P              18     -0.11908(cons'd)     -0.07789(cons'd)      0.05698         *
 * P              19      0.00920(cons'd)     -0.01608(cons'd)     -0.00044         *
 * P              20     -0.02279(cons'd)      0.11229(cons'd)     -0.05223         *
 * P              21     -0.02261(cons'd)      0.12007(cons'd)     -0.04620         *
 * P              22     -0.12201(cons'd)      0.06174(cons'd)     -0.00364         *
 * P              23     -0.12157(cons'd)      0.18960(cons'd)      0.04016         *
 * P              24      0.00800(cons'd)      0.12703(cons'd)     -0.05161         *
 * In              1     -0.01844(cons'd)     -0.42077(cons'd)     -0.01338         *
 * In              2     -0.09054(cons'd)     -0.27198(cons'd)     -0.09036         *
 * In              3      0.00600(cons'd)     -0.61201(cons'd)      0.23168         *
 * In              4     -0.09649(cons'd)     -0.54605(cons'd)      0.19756         *
 * In              5      0.00837(cons'd)     -0.31382(cons'd)     -0.04339         *
 * In              6     -0.01840(cons'd)     -0.40197(cons'd)     -0.01060         *
 * In              7     -0.01672(cons'd)     -0.59563(cons'd)      0.22072         *
 * In              8      0.00226(cons'd)     -0.17805(cons'd)     -0.04084         *
 * In              9     -0.01299(cons'd)     -0.06313(cons'd)     -0.01380         *
 * In             10     -0.09610(cons'd)     -0.53297(cons'd)      0.19223         *
 * In             11     -0.10092(cons'd)     -0.00581(cons'd)     -0.05721         *
 * In             12      0.11041(cons'd)      0.01082(cons'd)     -0.06228         *
 * In             13      0.11116(cons'd)     -0.43340(cons'd)      0.15816         *
 * In             14      0.11062(cons'd)     -0.01291(cons'd)     -0.04983         *
 * In             15      0.00858(cons'd)     -0.40857(cons'd)     -0.01248         *
 * In             16      0.10574(cons'd)     -0.54006(cons'd)      0.19190         *
 * In             17      0.00604(cons'd)     -0.59897(cons'd)      0.22638         *
 * In             18      0.09515(cons'd)     -0.38741(cons'd)     -0.05093         *
 * In             19      0.09490(cons'd)     -0.36851(cons'd)     -0.04809         *
 * In             20     -0.10105(cons'd)     -0.11853(cons'd)     -0.08354         *
 * In             21      0.00231(cons'd)     -0.06524(cons'd)     -0.01445         *
 * In             22     -0.01698(cons'd)     -0.49087(cons'd)      0.18913         *
 * In             23     -0.01298(cons'd)     -0.03935(cons'd)     -0.02632         *
 * In             24     -0.08621(cons'd)     -0.36896(cons'd)     -0.05698         *
 *                                                                                  *
 ************************************************************************************
 EXP precond LBFGS => estimated parameter mu :  1.391       eV/A**2
 LBFGS: finished iteration     0 with enthalpy= -4.71538829E+004 eV
  
 +-----------+-----------------+-----------------+------------+-----+ <-- LBFGS
 | Parameter |      value      |    tolerance    |    units   | OK? | <-- LBFGS
 +-----------+-----------------+-----------------+------------+-----+ <-- LBFGS
 |  dE/ion   |   0.000000E+000 |   2.000000E-005 |         eV | No  | <-- LBFGS
 |  |F|max   |   8.981176E-001 |   1.000000E-003 |       eV/A | No  | <-- LBFGS
 |  |dR|max  |   2.402833E-015 |   1.000000E-003 |          A | No  | <-- LBFGS
 +-----------+-----------------+-----------------+------------+-----+ <-- LBFGS
  

================================================================================
 Starting LBFGS iteration          1 ...
================================================================================
  
 +------------+-------------+-------------+-----------------+ <-- min LBFGS
 |    Step    |   lambda    |   F.delta'  |    enthalpy     | <-- min LBFGS
 +------------+-------------+-------------+-----------------+ <-- min LBFGS
 |  previous  |    0.000000 |    0.313146 |   -47153.882916 | <-- min LBFGS
 +------------+-------------+-------------+-----------------+ <-- min LBFGS
  

--------------------------------------------------------------------------------
 LBFGS: starting iteration         1 with trial guess (lambda=  1.000000)
--------------------------------------------------------------------------------

                           -------------------------------
                                     Cell Contents
                           -------------------------------

            xxxxxxxxxxxxxxxxxxxxxxxxxxxxxxxxxxxxxxxxxxxxxxxxxxxxxxxxxxxxxxxxx
            x  Element         Atom        Fractional coordinates of atoms  x
            x                 Number           u          v          w      x
            x---------------------------------------------------------------x
            x  P                 1         0.000000   0.411630   0.765877   x
            x  P                 2         0.000000   0.785244   0.416774   x
            x  P                 3         0.250000   0.661627   0.765899   x
            x  P                 4         0.750000   0.661627   0.765899   x
            x  P                 5         0.250000   0.161627   0.765899   x
            x  P                 6         0.750000   0.161627   0.765899   x
            x  P                 7         0.500000   0.157595   0.078625   x
            x  P                 8         0.500000   0.411630   0.765877   x
            x  P                 9         0.000000   0.657595   0.078625   x
            x  P                10         0.000000   0.157595   0.078625   x
            x  P                11         0.250000   0.407594   0.078633   x
            x  P                12         0.000000   0.285244   0.416774   x
            x  P                13         0.250000   0.035244   0.416771   x
            x  P                14         0.000000  -0.088370   0.765877   x
            x  P                15         0.500000  -0.088370   0.765877   x
            x  P                16         0.750000   0.407594   0.078633   x
            x  P                17         0.500000   0.657595   0.078625   x
            x  P                18         0.750000   0.907594   0.078633   x
            x  P                19         0.250000   0.907594   0.078633   x
            x  P                20         0.500000   0.785244   0.416774   x
            x  P                21         0.500000   0.285244   0.416774   x
            x  P                22         0.750000   0.535244   0.416771   x
            x  P                23         0.750000   0.035244   0.416771   x
            x  P                24         0.250000   0.535244   0.416771   x
            x  In                1         0.500000   0.756141   0.668997   x
            x  In                2         0.750000   0.006142   0.668994   x
            x  In                3         0.250000   0.751287  -0.011156   x
            x  In                4         0.750000   0.751287  -0.011156   x
            x  In                5         0.250000   0.006142   0.668994   x
            x  In                6         0.500000   0.256141   0.668997   x
            x  In                7         0.500000   0.501287  -0.011156   x
            x  In                8         0.250000   0.878489   0.330871   x
            x  In                9         0.500000   0.628489   0.330870   x
            x  In               10         0.750000   0.251287  -0.011156   x
            x  In               11         0.750000   0.378489   0.330871   x
            x  In               12         0.000000   0.128489   0.330870   x
            x  In               13        -0.000000   0.001287  -0.011156   x
            x  In               14         0.000000   0.628489   0.330870   x
            x  In               15         0.250000   0.506142   0.668994   x
            x  In               16         0.000000   0.501287  -0.011156   x
            x  In               17         0.250000   0.251287  -0.011156   x
            x  In               18         0.000000   0.756141   0.668997   x
            x  In               19         0.000000   0.256141   0.668997   x
            x  In               20         0.750000   0.878489   0.330871   x
            x  In               21         0.250000   0.378489   0.330871   x
            x  In               22         0.500000   0.001287  -0.011156   x
            x  In               23         0.500000   0.128489   0.330870   x
            x  In               24         0.750000   0.506142   0.668994   x
            xxxxxxxxxxxxxxxxxxxxxxxxxxxxxxxxxxxxxxxxxxxxxxxxxxxxxxxxxxxxxxxxx


------------------------------------------------------------------------ <-- SCF
SCF loop      Energy           Fermi           Energy gain       Timer   <-- SCF
                               energy          per atom          (sec)   <-- SCF
------------------------------------------------------------------------ <-- SCF
Initial  -4.71516766E+004  0.00000000E+000                      1710.97  <-- SCF
      1  -4.71536116E+004  3.24474795E+000   4.03112077E-002    1772.51  <-- SCF
      2  -4.71539312E+004  3.24464904E+000   6.65903465E-003    1844.18  <-- SCF
      3  -4.71539324E+004  3.24500609E+000   2.47237090E-005    1905.12  <-- SCF
      4  -4.71539336E+004  3.24500312E+000   2.58032020E-005    1967.54  <-- SCF
      5  -4.71539339E+004  3.24496646E+000   5.18854174E-006    2032.81  <-- SCF
      6  -4.71539339E+004  3.24501399E+000   3.49606361E-007    2094.94  <-- SCF
      7  -4.71539339E+004  3.24507750E+000  -1.88236134E-007    2152.65  <-- SCF
      8  -4.71539339E+004  3.24509887E+000  -4.20698036E-008    2204.38  <-- SCF
      9  -4.71539339E+004  3.24509877E+000   2.31940893E-009    2246.44  <-- SCF
     10  -4.71539339E+004  3.24509902E+000  -3.86697053E-012    2288.34  <-- SCF
     11  -4.71539339E+004  3.24509830E+000   3.78447516E-010    2330.40  <-- SCF
------------------------------------------------------------------------ <-- SCF
 
Final energy, E             =  -47153.92732652     eV
Final free energy (E-TS)    =  -47153.93387273     eV
(energies not corrected for finite basis set)
 
NB est. 0K energy (E-0.5TS)      =  -47153.93059963     eV
 

 ******************************** Constrained Forces ********************************
 *                                                                                  *
 *                           Cartesian components (eV/A)                            *
 * -------------------------------------------------------------------------------- *
 *                         x                    y                    z              *
 *                                                                                  *
 * P               1      0.00000(cons'd)      0.00000(cons'd)     -0.04658         *
 * P               2      0.00000(cons'd)      0.00000(cons'd)     -0.02471         *
 * P               3      0.00000(cons'd)      0.00000(cons'd)     -0.04535         *
 * P               4      0.00000(cons'd)      0.00000(cons'd)     -0.04535         *
 * P               5      0.00000(cons'd)      0.00000(cons'd)     -0.04531         *
 * P               6      0.00000(cons'd)      0.00000(cons'd)     -0.04532         *
 * P               7      0.00000(cons'd)      0.00000(cons'd)     -0.06183         *
 * P               8      0.00000(cons'd)      0.00000(cons'd)     -0.04658         *
 * P               9      0.00000(cons'd)      0.00000(cons'd)     -0.06186         *
 * P              10      0.00000(cons'd)      0.00000(cons'd)     -0.06184         *
 * P              11      0.00000(cons'd)      0.00000(cons'd)     -0.06207         *
 * P              12      0.00000(cons'd)      0.00000(cons'd)     -0.02471         *
 * P              13      0.00000(cons'd)      0.00000(cons'd)     -0.02465         *
 * P              14      0.00000(cons'd)      0.00000(cons'd)     -0.04660         *
 * P              15      0.00000(cons'd)      0.00000(cons'd)     -0.04659         *
 * P              16      0.00000(cons'd)      0.00000(cons'd)     -0.06208         *
 * P              17      0.00000(cons'd)      0.00000(cons'd)     -0.06186         *
 * P              18      0.00000(cons'd)      0.00000(cons'd)     -0.06207         *
 * P              19      0.00000(cons'd)      0.00000(cons'd)     -0.06206         *
 * P              20      0.00000(cons'd)      0.00000(cons'd)     -0.02471         *
 * P              21      0.00000(cons'd)      0.00000(cons'd)     -0.02471         *
 * P              22      0.00000(cons'd)      0.00000(cons'd)     -0.02466         *
 * P              23      0.00000(cons'd)      0.00000(cons'd)     -0.02466         *
 * P              24      0.00000(cons'd)      0.00000(cons'd)     -0.02466         *
 * In              1      0.00000(cons'd)      0.00000(cons'd)      0.01188         *
 * In              2      0.00000(cons'd)      0.00000(cons'd)      0.01168         *
 * In              3      0.00000(cons'd)      0.00000(cons'd)      0.08164         *
 * In              4      0.00000(cons'd)      0.00000(cons'd)      0.08167         *
 * In              5      0.00000(cons'd)      0.00000(cons'd)      0.01168         *
 * In              6      0.00000(cons'd)      0.00000(cons'd)      0.01188         *
 * In              7      0.00000(cons'd)      0.00000(cons'd)      0.08138         *
 * In              8      0.00000(cons'd)      0.00000(cons'd)      0.03952         *
 * In              9      0.00000(cons'd)      0.00000(cons'd)      0.03906         *
 * In             10      0.00000(cons'd)      0.00000(cons'd)      0.08169         *
 * In             11      0.00000(cons'd)      0.00000(cons'd)      0.03949         *
 * In             12      0.00000(cons'd)      0.00000(cons'd)      0.03905         *
 * In             13      0.00000(cons'd)      0.00000(cons'd)      0.08145         *
 * In             14      0.00000(cons'd)      0.00000(cons'd)      0.03908         *
 * In             15      0.00000(cons'd)      0.00000(cons'd)      0.01167         *
 * In             16      0.00000(cons'd)      0.00000(cons'd)      0.08140         *
 * In             17      0.00000(cons'd)      0.00000(cons'd)      0.08166         *
 * In             18      0.00000(cons'd)      0.00000(cons'd)      0.01190         *
 * In             19      0.00000(cons'd)      0.00000(cons'd)      0.01190         *
 * In             20      0.00000(cons'd)      0.00000(cons'd)      0.03953         *
 * In             21      0.00000(cons'd)      0.00000(cons'd)      0.03948         *
 * In             22      0.00000(cons'd)      0.00000(cons'd)      0.08143         *
 * In             23      0.00000(cons'd)      0.00000(cons'd)      0.03903         *
 * In             24      0.00000(cons'd)      0.00000(cons'd)      0.01168         *
 *                                                                                  *
 ************************************************************************************
  
 +------------+-------------+-------------+-----------------+ <-- min LBFGS
 |    Step    |   lambda    |   F.delta'  |    enthalpy     | <-- min LBFGS
 +------------+-------------+-------------+-----------------+ <-- min LBFGS
 |  previous  |    0.000000 |    0.313146 |   -47153.882916 | <-- min LBFGS
 | trial step |    1.000000 |    0.082960 |   -47153.933873 | <-- min LBFGS
 +------------+-------------+-------------+-----------------+ <-- min LBFGS
  
 LBFGS: finished iteration     1 with enthalpy= -4.71539339E+004 eV
  
 +-----------+-----------------+-----------------+------------+-----+ <-- LBFGS
 | Parameter |      value      |    tolerance    |    units   | OK? | <-- LBFGS
 +-----------+-----------------+-----------------+------------+-----+ <-- LBFGS
 |  dE/ion   |   1.061603E-003 |   2.000000E-005 |         eV | No  | <-- LBFGS
 |  |F|max   |   8.168725E-002 |   1.000000E-003 |       eV/A | No  | <-- LBFGS
 |  |dR|max  |   3.057860E-002 |   1.000000E-003 |          A | No  | <-- LBFGS
 +-----------+-----------------+-----------------+------------+-----+ <-- LBFGS
  

================================================================================
 Starting LBFGS iteration          2 ...
================================================================================
  
 +------------+-------------+-------------+-----------------+ <-- min LBFGS
 |    Step    |   lambda    |   F.delta'  |    enthalpy     | <-- min LBFGS
 +------------+-------------+-------------+-----------------+ <-- min LBFGS
 |  previous  |    0.000000 |    0.123788 |   -47153.933873 | <-- min LBFGS
 +------------+-------------+-------------+-----------------+ <-- min LBFGS
  

--------------------------------------------------------------------------------
 LBFGS: starting iteration         2 with trial guess (lambda=  1.000000)
--------------------------------------------------------------------------------

                           -------------------------------
                                     Cell Contents
                           -------------------------------

            xxxxxxxxxxxxxxxxxxxxxxxxxxxxxxxxxxxxxxxxxxxxxxxxxxxxxxxxxxxxxxxxx
            x  Element         Atom        Fractional coordinates of atoms  x
            x                 Number           u          v          w      x
            x---------------------------------------------------------------x
            x  P                 1         0.000000   0.411705   0.765220   x
            x  P                 2         0.000000   0.785278   0.416484   x
            x  P                 3         0.250000   0.661701   0.765261   x
            x  P                 4         0.750000   0.661701   0.765261   x
            x  P                 5         0.250000   0.161700   0.765262   x
            x  P                 6         0.750000   0.161700   0.765262   x
            x  P                 7         0.500000   0.157651   0.078133   x
            x  P                 8         0.500000   0.411705   0.765220   x
            x  P                 9         0.000000   0.657651   0.078132   x
            x  P                10         0.000000   0.157651   0.078133   x
            x  P                11         0.250000   0.407651   0.078138   x
            x  P                12         0.000000   0.285278   0.416483   x
            x  P                13         0.250000   0.035278   0.416480   x
            x  P                14         0.000000  -0.088295   0.765220   x
            x  P                15         0.500000  -0.088295   0.765220   x
            x  P                16         0.750000   0.407651   0.078138   x
            x  P                17         0.500000   0.657651   0.078132   x
            x  P                18         0.750000   0.907651   0.078138   x
            x  P                19         0.250000   0.907651   0.078138   x
            x  P                20         0.500000   0.785278   0.416484   x
            x  P                21         0.500000   0.285278   0.416483   x
            x  P                22         0.750000   0.535278   0.416480   x
            x  P                23         0.750000   0.035278   0.416480   x
            x  P                24         0.250000   0.535278   0.416480   x
            x  In                1         0.500000   0.756153   0.668896   x
            x  In                2         0.750000   0.006154   0.668888   x
            x  In                3         0.250000   0.751154  -0.009998   x
            x  In                4         0.750000   0.751154  -0.009998   x
            x  In                5         0.250000   0.006154   0.668888   x
            x  In                6         0.500000   0.256153   0.668897   x
            x  In                7         0.500000   0.501154  -0.010003   x
            x  In                8         0.250000   0.878445   0.331254   x
            x  In                9         0.500000   0.628446   0.331246   x
            x  In               10         0.750000   0.251153  -0.009997   x
            x  In               11         0.750000   0.378445   0.331253   x
            x  In               12         0.000000   0.128446   0.331246   x
            x  In               13         0.000000   0.001154  -0.010001   x
            x  In               14         0.000000   0.628446   0.331246   x
            x  In               15         0.250000   0.506154   0.668887   x
            x  In               16         0.000000   0.501154  -0.010002   x
            x  In               17         0.250000   0.251154  -0.009997   x
            x  In               18         0.000000   0.756153   0.668897   x
            x  In               19         0.000000   0.256153   0.668897   x
            x  In               20         0.750000   0.878445   0.331254   x
            x  In               21         0.250000   0.378445   0.331253   x
            x  In               22         0.500000   0.001154  -0.010002   x
            x  In               23         0.500000   0.128446   0.331246   x
            x  In               24         0.750000   0.506154   0.668888   x
            xxxxxxxxxxxxxxxxxxxxxxxxxxxxxxxxxxxxxxxxxxxxxxxxxxxxxxxxxxxxxxxxx


------------------------------------------------------------------------ <-- SCF
SCF loop      Energy           Fermi           Energy gain       Timer   <-- SCF
                               energy          per atom          (sec)   <-- SCF
------------------------------------------------------------------------ <-- SCF
Initial  -4.71542276E+004  0.00000000E+000                      2368.28  <-- SCF
      1  -4.71539190E+004  3.25671760E+000  -6.42983901E-003    2430.63  <-- SCF
      2  -4.71539415E+004  3.25671126E+000   4.69162068E-004    2502.99  <-- SCF
      3  -4.71539411E+004  3.25746475E+000  -9.19347754E-006    2564.58  <-- SCF
      4  -4.71539409E+004  3.25785435E+000  -3.89757503E-006    2632.23  <-- SCF
      5  -4.71539408E+004  3.25815297E+000  -1.62771024E-006    2693.46  <-- SCF
      6  -4.71539408E+004  3.25834770E+000  -4.17245347E-007    2752.28  <-- SCF
      7  -4.71539408E+004  3.25843975E+000  -5.41770306E-008    2803.12  <-- SCF
      8  -4.71539408E+004  3.25846743E+000  -4.36284506E-009    2847.71  <-- SCF
      9  -4.71539408E+004  3.25847458E+000   7.26990460E-010    2889.54  <-- SCF
------------------------------------------------------------------------ <-- SCF
 
Final energy, E             =  -47153.93465874     eV
Final free energy (E-TS)    =  -47153.94078240     eV
(energies not corrected for finite basis set)
 
NB est. 0K energy (E-0.5TS)      =  -47153.93772057     eV
 

 ******************************** Constrained Forces ********************************
 *                                                                                  *
 *                           Cartesian components (eV/A)                            *
 * -------------------------------------------------------------------------------- *
 *                         x                    y                    z              *
 *                                                                                  *
 * P               1      0.00000(cons'd)      0.00000(cons'd)     -0.02000         *
 * P               2      0.00000(cons'd)      0.00000(cons'd)     -0.01038         *
 * P               3      0.00000(cons'd)      0.00000(cons'd)     -0.01992         *
 * P               4      0.00000(cons'd)      0.00000(cons'd)     -0.01992         *
 * P               5      0.00000(cons'd)      0.00000(cons'd)     -0.01994         *
 * P               6     -0.00000(cons'd)      0.00000(cons'd)     -0.01994         *
 * P               7     -0.00000(cons'd)      0.00000(cons'd)      0.02897         *
 * P               8     -0.00000(cons'd)      0.00000(cons'd)     -0.02000         *
 * P               9      0.00000(cons'd)      0.00000(cons'd)      0.02902         *
 * P              10      0.00000(cons'd)      0.00000(cons'd)      0.02898         *
 * P              11      0.00000(cons'd)      0.00000(cons'd)      0.02803         *
 * P              12      0.00000(cons'd)      0.00000(cons'd)     -0.01036         *
 * P              13      0.00000(cons'd)      0.00000(cons'd)     -0.01054         *
 * P              14      0.00000(cons'd)      0.00000(cons'd)     -0.01998         *
 * P              15     -0.00000(cons'd)      0.00000(cons'd)     -0.01998         *
 * P              16      0.00000(cons'd)      0.00000(cons'd)      0.02804         *
 * P              17     -0.00000(cons'd)      0.00000(cons'd)      0.02901         *
 * P              18     -0.00000(cons'd)      0.00000(cons'd)      0.02804         *
 * P              19      0.00000(cons'd)      0.00000(cons'd)      0.02802         *
 * P              20      0.00000(cons'd)      0.00000(cons'd)     -0.01039         *
 * P              21      0.00000(cons'd)      0.00000(cons'd)     -0.01037         *
 * P              22     -0.00000(cons'd)      0.00000(cons'd)     -0.01054         *
 * P              23     -0.00000(cons'd)      0.00000(cons'd)     -0.01054         *
 * P              24      0.00000(cons'd)      0.00000(cons'd)     -0.01054         *
 * In              1      0.00000(cons'd)      0.00000(cons'd)      0.01616         *
 * In              2      0.00000(cons'd)      0.00000(cons'd)      0.01603         *
 * In              3      0.00000(cons'd)      0.00000(cons'd)     -0.00198         *
 * In              4     -0.00000(cons'd)      0.00000(cons'd)     -0.00200         *
 * In              5      0.00000(cons'd)      0.00000(cons'd)      0.01604         *
 * In              6      0.00000(cons'd)      0.00000(cons'd)      0.01614         *
 * In              7      0.00000(cons'd)      0.00000(cons'd)     -0.00231         *
 * In              8      0.00000(cons'd)      0.00000(cons'd)     -0.01206         *
 * In              9      0.00000(cons'd)      0.00000(cons'd)     -0.01202         *
 * In             10      0.00000(cons'd)      0.00000(cons'd)     -0.00201         *
 * In             11     -0.00000(cons'd)      0.00000(cons'd)     -0.01205         *
 * In             12     -0.00000(cons'd)      0.00000(cons'd)     -0.01198         *
 * In             13      0.00000(cons'd)      0.00000(cons'd)     -0.00234         *
 * In             14     -0.00000(cons'd)      0.00000(cons'd)     -0.01203         *
 * In             15      0.00000(cons'd)      0.00000(cons'd)      0.01604         *
 * In             16      0.00000(cons'd)      0.00000(cons'd)     -0.00232         *
 * In             17      0.00000(cons'd)      0.00000(cons'd)     -0.00199         *
 * In             18      0.00000(cons'd)      0.00000(cons'd)      0.01614         *
 * In             19      0.00000(cons'd)      0.00000(cons'd)      0.01613         *
 * In             20      0.00000(cons'd)      0.00000(cons'd)     -0.01207         *
 * In             21      0.00000(cons'd)      0.00000(cons'd)     -0.01204         *
 * In             22      0.00000(cons'd)      0.00000(cons'd)     -0.00233         *
 * In             23      0.00000(cons'd)      0.00000(cons'd)     -0.01196         *
 * In             24      0.00000(cons'd)      0.00000(cons'd)      0.01604         *
 *                                                                                  *
 ************************************************************************************
  
 +------------+-------------+-------------+-----------------+ <-- min LBFGS
 |    Step    |   lambda    |   F.delta'  |    enthalpy     | <-- min LBFGS
 +------------+-------------+-------------+-----------------+ <-- min LBFGS
 |  previous  |    0.000000 |    0.123788 |   -47153.933873 | <-- min LBFGS
 | trial step |    1.000000 |   -0.004826 |   -47153.940782 | <-- min LBFGS
 +------------+-------------+-------------+-----------------+ <-- min LBFGS
  
 LBFGS: finished iteration     2 with enthalpy= -4.71539408E+004 eV
  
 +-----------+-----------------+-----------------+------------+-----+ <-- LBFGS
 | Parameter |      value      |    tolerance    |    units   | OK? | <-- LBFGS
 +-----------+-----------------+-----------------+------------+-----+ <-- LBFGS
 |  dE/ion   |   1.439513E-004 |   2.000000E-005 |         eV | No  | <-- LBFGS
 |  |F|max   |   2.902342E-002 |   1.000000E-003 |       eV/A | No  | <-- LBFGS
 |  |dR|max  |   1.184561E-002 |   1.000000E-003 |          A | No  | <-- LBFGS
 +-----------+-----------------+-----------------+------------+-----+ <-- LBFGS
  

================================================================================
 Starting LBFGS iteration          3 ...
================================================================================
  
 +------------+-------------+-------------+-----------------+ <-- min LBFGS
 |    Step    |   lambda    |   F.delta'  |    enthalpy     | <-- min LBFGS
 +------------+-------------+-------------+-----------------+ <-- min LBFGS
 |  previous  |    0.000000 |    0.037331 |   -47153.940782 | <-- min LBFGS
 +------------+-------------+-------------+-----------------+ <-- min LBFGS
  

--------------------------------------------------------------------------------
 LBFGS: starting iteration         3 with trial guess (lambda=  1.000000)
--------------------------------------------------------------------------------

                           -------------------------------
                                     Cell Contents
                           -------------------------------

            xxxxxxxxxxxxxxxxxxxxxxxxxxxxxxxxxxxxxxxxxxxxxxxxxxxxxxxxxxxxxxxxx
            x  Element         Atom        Fractional coordinates of atoms  x
            x                 Number           u          v          w      x
            x---------------------------------------------------------------x
            x  P                 1         0.000000   0.411730   0.765011   x
            x  P                 2         0.000000   0.785300   0.416292   x
            x  P                 3         0.250000   0.661724   0.765056   x
            x  P                 4         0.750000   0.661724   0.765056   x
            x  P                 5         0.250000   0.161724   0.765057   x
            x  P                 6         0.750000   0.161724   0.765057   x
            x  P                 7         0.500000   0.157620   0.078401   x
            x  P                 8         0.500000   0.411730   0.765011   x
            x  P                 9         0.000000   0.657620   0.078401   x
            x  P                10         0.000000   0.157620   0.078401   x
            x  P                11         0.250000   0.407621   0.078396   x
            x  P                12         0.000000   0.285300   0.416293   x
            x  P                13         0.250000   0.035300   0.416287   x
            x  P                14         0.000000  -0.088271   0.765011   x
            x  P                15         0.500000  -0.088271   0.765011   x
            x  P                16         0.750000   0.407621   0.078396   x
            x  P                17         0.500000   0.657620   0.078401   x
            x  P                18         0.750000   0.907621   0.078396   x
            x  P                19         0.250000   0.907621   0.078396   x
            x  P                20         0.500000   0.785300   0.416292   x
            x  P                21         0.500000   0.285300   0.416292   x
            x  P                22         0.750000   0.535300   0.416287   x
            x  P                23         0.750000   0.035300   0.416287   x
            x  P                24         0.250000   0.535300   0.416287   x
            x  In                1         0.500000   0.756145   0.668965   x
            x  In                2         0.750000   0.006146   0.668954   x
            x  In                3         0.250000   0.751133  -0.009821   x
            x  In                4         0.750000   0.751133  -0.009820   x
            x  In                5         0.250000   0.006146   0.668954   x
            x  In                6         0.500000   0.256145   0.668965   x
            x  In                7         0.500000   0.501134  -0.009830   x
            x  In                8         0.250000   0.878457   0.331147   x
            x  In                9         0.500000   0.628458   0.331140   x
            x  In               10         0.750000   0.251133  -0.009820   x
            x  In               11         0.750000   0.378457   0.331147   x
            x  In               12         0.000000   0.128458   0.331141   x
            x  In               13         0.000000   0.001134  -0.009829   x
            x  In               14        -0.000000   0.628458   0.331140   x
            x  In               15         0.250000   0.506146   0.668954   x
            x  In               16         0.000000   0.501134  -0.009830   x
            x  In               17         0.250000   0.251133  -0.009820   x
            x  In               18         0.000000   0.756145   0.668965   x
            x  In               19         0.000000   0.256145   0.668965   x
            x  In               20         0.750000   0.878457   0.331147   x
            x  In               21         0.250000   0.378457   0.331146   x
            x  In               22         0.500000   0.001134  -0.009829   x
            x  In               23         0.500000   0.128458   0.331140   x
            x  In               24         0.750000   0.506146   0.668954   x
            xxxxxxxxxxxxxxxxxxxxxxxxxxxxxxxxxxxxxxxxxxxxxxxxxxxxxxxxxxxxxxxxx


------------------------------------------------------------------------ <-- SCF
SCF loop      Energy           Fermi           Energy gain       Timer   <-- SCF
                               energy          per atom          (sec)   <-- SCF
------------------------------------------------------------------------ <-- SCF
Initial  -4.71540251E+004  0.00000000E+000                      2926.58  <-- SCF
      1  -4.71539406E+004  3.25772177E+000  -1.76035094E-003    2988.13  <-- SCF
      2  -4.71539414E+004  3.25772098E+000   1.68454957E-005    3059.14  <-- SCF
      3  -4.71539413E+004  3.25750867E+000  -8.17606985E-007    3119.89  <-- SCF
      4  -4.71539413E+004  3.25730118E+000  -2.43489858E-007    3175.89  <-- SCF
      5  -4.71539413E+004  3.25716660E+000  -4.85726302E-008    3226.81  <-- SCF
      6  -4.71539413E+004  3.25706761E+000  -2.40880040E-008    3274.41  <-- SCF
      7  -4.71539413E+004  3.25703268E+000  -2.97846960E-009    3316.88  <-- SCF
      8  -4.71539413E+004  3.25701956E+000  -2.32791626E-010    3358.09  <-- SCF
------------------------------------------------------------------------ <-- SCF
 
Final energy, E             =  -47153.93510308     eV
Final free energy (E-TS)    =  -47153.94131643     eV
(energies not corrected for finite basis set)
 
NB est. 0K energy (E-0.5TS)      =  -47153.93820976     eV
 

[...]
     In     9      Dzz                  1.997
     In     9      Dzy                  1.998
     In     9      Dzx                  1.998
     In     9      Dxx-yy               1.998
     In     9      Dxy                  1.998
     In     9      S                    1.443
     In     9      Px                   0.486
     In     9      Py                   0.481
     In     9      Pz                   0.480
     In     9      S                   -0.495
     In    10      Dzz                  1.999
     In    10      Dzy                  1.998
     In    10      Dzx                  1.999
     In    10      Dxx-yy               1.998
     In    10      Dxy                  1.998
     In    10      S                    1.382
     In    10      Px                   0.472
     In    10      Py                   0.487
     In    10      Pz                   0.377
     In    10      S                   -0.427
     In    11      Dzz                  1.997
     In    11      Dzy                  1.998
     In    11      Dzx                  1.998
     In    11      Dxx-yy               1.998
     In    11      Dxy                  1.998
     In    11      S                    1.443
     In    11      Px                   0.486
     In    11      Py                   0.481
     In    11      Pz                   0.480
     In    11      S                   -0.495
     In    12      Dzz                  1.997
     In    12      Dzy                  1.998
     In    12      Dzx                  1.998
     In    12      Dxx-yy               1.998
     In    12      Dxy                  1.998
     In    12      S                    1.443
     In    12      Px                   0.486
     In    12      Py                   0.481
     In    12      Pz                   0.480
     In    12      S                   -0.495
     In    13      Dzz                  1.999
     In    13      Dzy                  1.998
     In    13      Dzx                  1.999
     In    13      Dxx-yy               1.998
     In    13      Dxy                  1.998
     In    13      S                    1.382
     In    13      Px                   0.472
     In    13      Py                   0.487
     In    13      Pz                   0.377
     In    13      S                   -0.427
     In    14      Dzz                  1.997
     In    14      Dzy                  1.998
     In    14      Dzx                  1.998
     In    14      Dxx-yy               1.998
     In    14      Dxy                  1.998
     In    14      S                    1.443
     In    14      Px                   0.486
     In    14      Py                   0.481
     In    14      Pz                   0.480
     In    14      S                   -0.495
     In    15      Dzz                  1.997
     In    15      Dzy                  1.999
     In    15      Dzx                  1.999
     In    15      Dxx-yy               1.998
     In    15      Dxy                  1.998
     In    15      S                    1.385
     In    15      Px                   0.499
     In    15      Py                   0.446
     In    15      Pz                   0.477
     In    15      S                   -0.460
     In    16      Dzz                  1.999
     In    16      Dzy                  1.998
     In    16      Dzx                  1.999
     In    16      Dxx-yy               1.998
     In    16      Dxy                  1.998
     In    16      S                    1.382
     In    16      Px                   0.472
     In    16      Py                   0.487
     In    16      Pz                   0.377
     In    16      S                   -0.427
     In    17      Dzz                  1.999
     In    17      Dzy                  1.998
     In    17      Dzx                  1.999
     In    17      Dxx-yy               1.998
     In    17      Dxy                  1.998
     In    17      S                    1.382
     In    17      Px                   0.472
     In    17      Py                   0.487
     In    17      Pz                   0.377
     In    17      S                   -0.427
     In    18      Dzz                  1.997
     In    18      Dzy                  1.999
     In    18      Dzx                  1.999
     In    18      Dxx-yy               1.998
     In    18      Dxy                  1.998
     In    18      S                    1.385
     In    18      Px                   0.499
     In    18      Py                   0.446
     In    18      Pz                   0.478
     In    18      S                   -0.460
     In    19      Dzz                  1.997
     In    19      Dzy                  1.999
     In    19      Dzx                  1.999
     In    19      Dxx-yy               1.998
     In    19      Dxy                  1.998
     In    19      S                    1.385
     In    19      Px                   0.499
     In    19      Py                   0.446
     In    19      Pz                   0.477
     In    19      S                   -0.460
     In    20      Dzz                  1.997
     In    20      Dzy                  1.998
     In    20      Dzx                  1.998
     In    20      Dxx-yy               1.998
     In    20      Dxy                  1.998
     In    20      S                    1.443
     In    20      Px                   0.486
     In    20      Py                   0.481
     In    20      Pz                   0.480
     In    20      S                   -0.495
     In    21      Dzz                  1.997
     In    21      Dzy                  1.998
     In    21      Dzx                  1.998
     In    21      Dxx-yy               1.998
     In    21      Dxy                  1.998
     In    21      S                    1.443
     In    21      Px                   0.486
     In    21      Py                   0.481
     In    21      Pz                   0.480
     In    21      S                   -0.495
     In    22      Dzz                  1.999
     In    22      Dzy                  1.998
     In    22      Dzx                  1.999
     In    22      Dxx-yy               1.998
     In    22      Dxy                  1.998
     In    22      S                    1.382
     In    22      Px                   0.472
     In    22      Py                   0.487
     In    22      Pz                   0.377
     In    22      S                   -0.427
     In    23      Dzz                  1.997
     In    23      Dzy                  1.998
     In    23      Dzx                  1.998
     In    23      Dxx-yy               1.998
     In    23      Dxy                  1.998
     In    23      S                    1.443
     In    23      Px                   0.486
     In    23      Py                   0.481
     In    23      Pz                   0.480
     In    23      S                   -0.495
     In    24      Dzz                  1.997
     In    24      Dzy                  1.999
     In    24      Dzx                  1.999
     In    24      Dxx-yy               1.998
     In    24      Dxy                  1.998
     In    24      S                    1.385
     In    24      Px                   0.499
     In    24      Py                   0.446
     In    24      Pz                   0.477
     In    24      S                   -0.460
  -------------------------------------------
                           Total:     432.000
  -------------------------------------------

     Atomic Populations (Mulliken)
     -----------------------------
Species          Ion     s       p       d       f      Total   Charge (e)
==========================================================================
  P               1     1.770   3.922   0.000   0.000   5.692    -0.692
  P               2     1.742   3.922   0.000   0.000   5.664    -0.664
  P               3     1.770   3.922   0.000   0.000   5.692    -0.692
  P               4     1.770   3.922   0.000   0.000   5.692    -0.692
  P               5     1.770   3.922   0.000   0.000   5.692    -0.692
  P               6     1.770   3.922   0.000   0.000   5.692    -0.692
  P               7     1.750   3.888   0.000   0.000   5.638    -0.638
  P               8     1.770   3.922   0.000   0.000   5.692    -0.692
  P               9     1.750   3.888   0.000   0.000   5.638    -0.638
  P              10     1.750   3.888   0.000   0.000   5.638    -0.638
  P              11     1.750   3.888   0.000   0.000   5.638    -0.638
  P              12     1.742   3.922   0.000   0.000   5.664    -0.664
  P              13     1.742   3.922   0.000   0.000   5.664    -0.664
  P              14     1.770   3.922   0.000   0.000   5.692    -0.692
  P              15     1.770   3.922   0.000   0.000   5.692    -0.692
  P              16     1.750   3.888   0.000   0.000   5.638    -0.638
  P              17     1.750   3.888   0.000   0.000   5.638    -0.638
  P              18     1.750   3.888   0.000   0.000   5.638    -0.638
  P              19     1.750   3.888   0.000   0.000   5.638    -0.638
  P              20     1.742   3.922   0.000   0.000   5.664    -0.664
  P              21     1.742   3.922   0.000   0.000   5.664    -0.664
  P              22     1.742   3.922   0.000   0.000   5.664    -0.664
  P              23     1.742   3.922   0.000   0.000   5.664    -0.664
  P              24     1.742   3.922   0.000   0.000   5.664    -0.664
  In              1     0.926   1.422   9.991   0.000  12.339     0.661
  In              2     0.926   1.422   9.991   0.000  12.339     0.661
  In              3     0.955   1.336   9.992   0.000  12.283     0.717
  In              4     0.955   1.336   9.992   0.000  12.283     0.717
  In              5     0.926   1.422   9.991   0.000  12.339     0.661
  In              6     0.926   1.422   9.991   0.000  12.339     0.661
  In              7     0.955   1.336   9.992   0.000  12.283     0.717
  In              8     0.948   1.447   9.989   0.000  12.384     0.616
  In              9     0.948   1.447   9.989   0.000  12.385     0.615
  In             10     0.955   1.336   9.992   0.000  12.283     0.717
  In             11     0.948   1.447   9.989   0.000  12.384     0.616
  In             12     0.948   1.447   9.989   0.000  12.384     0.616
  In             13     0.955   1.336   9.992   0.000  12.283     0.717
  In             14     0.948   1.447   9.989   0.000  12.384     0.616
  In             15     0.926   1.422   9.991   0.000  12.339     0.661
  In             16     0.955   1.336   9.992   0.000  12.283     0.717
  In             17     0.955   1.336   9.992   0.000  12.283     0.717
  In             18     0.926   1.422   9.991   0.000  12.339     0.661
  In             19     0.926   1.422   9.991   0.000  12.339     0.661
  In             20     0.948   1.447   9.989   0.000  12.384     0.616
  In             21     0.948   1.447   9.989   0.000  12.384     0.616
  In             22     0.955   1.336   9.992   0.000  12.283     0.717
  In             23     0.948   1.447   9.989   0.000  12.385     0.615
  In             24     0.926   1.422   9.991   0.000  12.339     0.661
==========================================================================

                 Bond                   Population      Length (A)
======================================================================
              P 23 -- In 20                  0.65        2.56147
              P 13 -- In 8                   0.65        2.56147
              P 22 -- In 11                  0.65        2.56147
              P 24 -- In 21                  0.65        2.56147
              P 24 -- In 14                  0.66        2.56148
              P 22 -- In 14                  0.66        2.56148
              P 22 -- In 9                   0.66        2.56148
              P 13 -- In 12                  0.66        2.56148
              P 23 -- In 12                  0.66        2.56148
              P 23 -- In 23                  0.66        2.56148
              P 24 -- In 9                   0.66        2.56148
              P 13 -- In 23                  0.66        2.56148
              P 20 -- In 20                  0.66        2.56149
              P 2  -- In 20                  0.66        2.56149
              P 2  -- In 8                   0.66        2.56149
              P 21 -- In 11                  0.66        2.56149
              P 12 -- In 11                  0.66        2.56149
              P 12 -- In 21                  0.66        2.56149
              P 20 -- In 8                   0.66        2.56149
              P 21 -- In 21                  0.66        2.56149
              P 21 -- In 23                  0.65        2.56150
              P 12 -- In 12                  0.65        2.56150
              P 20 -- In 9                   0.65        2.56150
              P 2  -- In 14                  0.65        2.56150
              P 16 -- In 10                  0.70        2.57267
              P 11 -- In 17                  0.70        2.57267
              P 18 -- In 4                   0.70        2.57267
              P 19 -- In 3                   0.70        2.57267
              P 7  -- In 10                  0.62        2.57268
              P 17 -- In 4                   0.62        2.57268
              P 10 -- In 10                  0.62        2.57268
              P 9  -- In 4                   0.62        2.57268
              P 10 -- In 17                  0.62        2.57268
              P 9  -- In 3                   0.62        2.57268
              P 7  -- In 17                  0.62        2.57268
              P 17 -- In 3                   0.62        2.57268
              P 19 -- In 13                  0.62        2.57272
              P 18 -- In 13                  0.62        2.57272
              P 18 -- In 22                  0.62        2.57272
              P 19 -- In 22                  0.62        2.57272
              P 11 -- In 16                  0.62        2.57272
              P 16 -- In 16                  0.62        2.57272
              P 16 -- In 7                   0.62        2.57272
              P 11 -- In 7                   0.62        2.57272
              P 9  -- In 16                  0.70        2.57272
              P 10 -- In 13                  0.70        2.57272
              P 17 -- In 7                   0.70        2.57272
              P 7  -- In 22                  0.70        2.57272
              P 22 -- In 24                  0.64        2.58128
              P 24 -- In 15                  0.64        2.58128
              P 23 -- In 2                   0.64        2.58128
              P 13 -- In 5                   0.64        2.58128
              P 2  -- In 18                  0.64        2.58134
              P 20 -- In 1                   0.64        2.58134
              P 12 -- In 19                  0.64        2.58134
              P 21 -- In 6                   0.64        2.58134
              P 10 -- In 12                  0.61        2.58443
              P 7  -- In 23                  0.61        2.58443
              P 9  -- In 14                  0.61        2.58443
              P 17 -- In 9                   0.61        2.58443
              P 16 -- In 11                  0.61        2.58447
              P 18 -- In 20                  0.61        2.58447
              P 11 -- In 21                  0.61        2.58447
              P 19 -- In 8                   0.61        2.58447
              P 8  -- In 6                   0.62        2.60131
              P 1  -- In 19                  0.62        2.60131
              P 15 -- In 1                   0.62        2.60131
              P 14 -- In 18                  0.62        2.60131
              P 15 -- In 2                   0.65        2.60136
              P 14 -- In 2                   0.65        2.60136
              P 14 -- In 5                   0.65        2.60136
              P 8  -- In 24                  0.65        2.60136
              P 1  -- In 24                  0.65        2.60136
              P 1  -- In 15                  0.65        2.60136
              P 15 -- In 5                   0.65        2.60136
              P 8  -- In 15                  0.65        2.60136
              P 3  -- In 18                  0.65        2.60147
              P 4  -- In 18                  0.65        2.60147
              P 4  -- In 1                   0.65        2.60147
              P 5  -- In 19                  0.65        2.60147
              P 3  -- In 1                   0.65        2.60147
              P 6  -- In 19                  0.65        2.60147
              P 6  -- In 6                   0.65        2.60147
              P 5  -- In 6                   0.65        2.60147
              P 5  -- In 5                   0.62        2.60152
              P 6  -- In 2                   0.62        2.60152
              P 3  -- In 15                  0.62        2.60152
              P 4  -- In 24                  0.62        2.60152
              P 5  -- In 17                  0.38        2.84219
              P 3  -- In 3                   0.38        2.84219
              P 6  -- In 10                  0.38        2.84219
              P 4  -- In 4                   0.38        2.84219
              P 8  -- In 7                   0.38        2.84243
              P 1  -- In 16                  0.38        2.84243
              P 15 -- In 22                  0.38        2.84243
              P 14 -- In 13                  0.38        2.84243
======================================================================


     Hirshfeld Analysis
     ------------------
Species   Ion     Hirshfeld Charge (e)
======================================
  P        1                -0.27
  P        2                -0.24
  P        3                -0.27
  P        4                -0.27
  P        5                -0.27
  P        6                -0.27
  P        7                -0.23
  P        8                -0.27
  P        9                -0.23
  P       10                -0.23
  P       11                -0.23
  P       12                -0.24
  P       13                -0.24
  P       14                -0.27
  P       15                -0.27
  P       16                -0.23
  P       17                -0.23
  P       18                -0.23
  P       19                -0.23
  P       20                -0.24
  P       21                -0.24
  P       22                -0.24
  P       23                -0.24
  P       24                -0.24
  In       1                 0.22
  In       2                 0.22
  In       3                 0.27
  In       4                 0.27
  In       5                 0.22
  In       6                 0.22
  In       7                 0.27
  In       8                 0.23
  In       9                 0.23
  In      10                 0.27
  In      11                 0.23
  In      12                 0.23
  In      13                 0.27
  In      14                 0.23
  In      15                 0.22
  In      16                 0.27
  In      17                 0.27
  In      18                 0.22
  In      19                 0.22
  In      20                 0.23
  In      21                 0.23
  In      22                 0.27
  In      23                 0.23
  In      24                 0.22
======================================

 
 A BibTeX formatted list of references used in this run has been written to 
 StackingFaultStructs_(1_1_1)_(1_1_-2)_2.bib
 
Initialisation time =     21.68 s
Calculation time    =   3969.79 s
Finalisation time   =      3.03 s
Total time          =   3994.51 s
Peak Memory Use     = 3403260 kB
 
Overall parallel efficiency rating: Poor (47%)
 
Data was distributed by:-
G-vector (7-way); efficiency rating: Mediocre (52%)
k-point (36-way); efficiency rating: Very good (83%)
