 +-------------------------------------------------+
 |                                                 |
 |      CCC   AA    SSS  TTTTT  EEEEE  PPPP        |
 |     C     A  A  S       T    E      P   P       |
 |     C     AAAA   SS     T    EEE    PPPP        |
 |     C     A  A     S    T    E      P           |
 |      CCC  A  A  SSS     T    EEEEE  P           |
 |                                                 |
 +-------------------------------------------------+
 |                                                 |
 | Welcome to Academic Release CASTEP version 24.1 |
 | Ab Initio Total Energy Program                  |
 |                                                 |
 | Authors:                                        |
 | M. Segall, M. Probert, C. Pickard, P. Hasnip,   |
 | S. Clark, K. Refson, J. R. Yates,               |
 | A. Bartok-Partay, M. Payne                      |
 |                                                 |
 | Contributors:                                   |
 | P. Lindan, P. Haynes, J. White, V. Milman,      |
 | N. Govind, M. Gibson, P. Tulip, V. Cocula,      |
 | B. Montanari, D. Quigley, M. Glover,            |
 | L. Bernasconi, A. Perlov, M. Plummer,           |
 | E. McNellis, J. Meyer, J. Gale, D. Jochym       |
 | J. Aarons, B. Walker, R. Gillen, D. Jones       |
 | T. Green, I. J. Bush, C. J. Armstrong,          |
 | E. J. Higgins, E. L. Brown, M. S. McFly,        |
 | J. Wilkins, B-C. Shih, P. J. P. Byrne,          |
 | R. J. Maurer, J. C. Womack, J. Dziedzic,        |
 | L. LeBlanc, T. K. Stenczel, J. Kermode,         |
 | S. Sturniolo, B. Shi, B. Durham, M. Evans,      |
 | M. J. Smith, A. Tamerus, Z. Hawkhead,           |
 | V. Ravindran, T. Hollins, S. A. Joyce,          |
 | R. T. Strong, A. M. Reilly, S. J. Donaldson     |
 |                                                 |
 | Copyright (c) 2000 - 2023                       |
 |                                                 |
 |     Distributed under license from Cambridge    |
 |     Enterprise for academic use only.           |
 |                                                 |
 | Please cite                                     |
 |                                                 |
 |     "First principles methods using CASTEP"     |
 |                                                 |
 |         Zeitschrift fuer Kristallographie       |
 |           220(5-6) pp. 567-570 (2005)           |
 |                                                 |
 | S. J. Clark, M. D. Segall, C. J. Pickard,       |
 | P. J. Hasnip, M. J. Probert, K. Refson,         |
 | M. C. Payne                                     |
 |                                                 |
 |       in all publications arising from          |
 |              your use of CASTEP                 |
 |                                                 |
 +-------------------------------------------------+
 |                                                 |
 |              http://www.castep.org              |
 |                                                 |
 +-------------------------------------------------+



 Compiled for  GNU 11.2.0 on 04-04-2024 18:39:17
 from code version 6355fd106 Castep241_branch Thu Mar 7 17:56:19 2024 +0000
 Compiler: GNU Fortran 11.2.0; Optimisation: FAST
 Comms   : MPI VERSION : CRAY MPICH version 8.1.23.14 (ANL base 3.4a2)
 MATHLIBS: default (LAPACK version 3.10.1)
 FFT Lib : fftw3 version commercial-fftw-3.3.10-sse2-avx-avx2-avx2_128
 Fundamental constants values: CODATA 2018

 Run started: Tue, 29 Jul 2025 20:38:12 +0100

 Atomic calculation performed for P: 1s2 2s2 2p6 3s2 3p3

 Converged in 47 iterations to an ae energy of -9309.074 eV

   ============================================================                
   | Pseudopotential Report - Date of generation 29-07-2025   |                
   ------------------------------------------------------------                
   | Element: P Ionic charge:  5.00 Level of theory: RSCAN    |                
   | Atomic Solver: Koelling-Harmon                           |                
   |                                                          |                
   |               Reference Electronic Structure             |                
   |         Orbital         Occupation         Energy        |                
   |            3s              2.000           -0.535        |                
   |            3p              3.000           -0.209        |                
   |                                                          |                
   |                 Pseudopotential Definition               |                
   |        Beta     l      e      Rc     scheme   norm       |                
   |          1      0   -0.535   1.807     qc      0         |                
   |          2      0    0.250   1.807     qc      0         |                
   |          3      1   -0.209   1.807     qc      0         |                
   |          4      1    0.250   1.807     qc      0         |                
   |          5      2    0.000   1.807     qc      0         |                
   |          6      2    0.250   1.807     qc      0         |                
   |         loc     3    0.000   1.807     pn      0         |                
   |                                                          |                
   | Augmentation charge Rinner = 1.263                       |                
   | Partial core correction Rc = 1.263                       |                
   ------------------------------------------------------------                
   | "3|1.8|4|4|5|30:31:32"                                   |                
   ------------------------------------------------------------                
   |      Author: Chris J. Pickard, Cambridge University      |                
   ============================================================                
 Warning: otfg_output_psp cannot write out meta-GGA pseudopotentials presently.

 Atomic calculation performed for In:
 1s2 2s2 2p6 3s2 3p6 3d10 4s2 4p6 4d10 5s2 5p1

 Converged in 84 iterations to an ae energy of -160093.328 eV

   ============================================================                
   | Pseudopotential Report - Date of generation 29-07-2025   |                
   ------------------------------------------------------------                
   | Element: In Ionic charge: 13.00 Level of theory: RSCAN   |                
   | Atomic Solver: Koelling-Harmon                           |                
   |                                                          |                
   |               Reference Electronic Structure             |                
   |         Orbital         Occupation         Energy        |                
   |            4d             10.000           -0.711        |                
   |            5s              2.000           -0.313        |                
   |            5p              1.000           -0.095        |                
   |                                                          |                
   |                 Pseudopotential Definition               |                
   |        Beta     l      e      Rc     scheme   norm       |                
   |          1      0   -0.313   2.501     qc      0         |                
   |          2      0    0.250   2.501     qc      0         |                
   |          3      1   -0.095   2.501     qc      0         |                
   |          4      1    0.250   2.501     qc      0         |                
   |          5      2   -0.711   2.207     qc      0         |                
   |          6      2    0.250   2.207     qc      0         |                
   |         loc     3    0.000   2.501     pn      0         |                
   |                                                          |                
   | Augmentation charge Rinner = 1.504                       |                
   | Partial core correction Rc = 1.504                       |                
   ------------------------------------------------------------                
   | "3|2.5|2.5|1.5|7|8|9|50:51:42U2.2U2.2"                   |                
   ------------------------------------------------------------                
   |      Author: Chris J. Pickard, Cambridge University      |                
   ============================================================                
 Warning: otfg_output_psp cannot write out meta-GGA pseudopotentials presently.

 Pseudo atomic calculation performed for P 3s2 3p3

 Converged in 23 iterations to a total energy of -208.0292 eV

 Pseudo atomic calculation performed for In 4d10 5s2 5p1

 Converged in 42 iterations to a total energy of -1747.4501 eV
 Calculation parallelised over 108 processes.
 Data is distributed by G-vector(3-way) and k-point(36-way)
 Each process may use up to 16 threads.

 ************************************ Title ************************************
 

 ***************************** General Parameters ******************************
  
 output verbosity                               : normal  (1)
 write checkpoint data to                       : In_Vacancy_Migration_3->60_Singlepoints_5.check
 type of calculation                            : single point energy
 stress calculation                             : off
 density difference calculation                 : off
 electron localisation func (ELF) calculation   : off
 Hirshfeld analysis                             : on
 polarisation (Berry phase) analysis            : off
 molecular orbital projected DOS                : off
 deltaSCF calculation                           : off
 unlimited duration calculation
 timing information                             : on
 memory usage estimate                          : on
 write extra output files                       : on
 write final potential to formatted file        : off
 write final density to formatted file          : off
 write BibTeX reference list                    : on
 write OTFG pseudopotential files               : on
 write electrostatic potential file             : on
 write bands file                               : on
 checkpoint writing                             : off
  
 output         length unit                     : A
 output           mass unit                     : amu
 output           time unit                     : ps
 output         charge unit                     : e
 output           spin unit                     : hbar/2
 output         energy unit                     : eV
 output          force unit                     : eV/A
 output       velocity unit                     : A/ps
 output       pressure unit                     : GPa
 output     inv_length unit                     : 1/A
 output      frequency unit                     : cm-1
 output force constant unit                     : eV/A**2
 output         volume unit                     : A**3
 output   IR intensity unit                     : (D/A)**2/amu
 output         dipole unit                     : D
 output         efield unit                     : eV/A/e
 output        entropy unit                     : J/mol/K
 output    efield chi2 unit                     : pm/V
  
 wavefunctions paging                           : none
 random number generator seed                   :  203812772
 data distribution                              : optimal for this architecture
 optimization strategy                          : balance speed and memory

 *********************** Exchange-Correlation Parameters ***********************
  
 using functional                               : RSCAN
 relativistic treatment                         : Koelling-Harmon
 DFT+D: Semi-empirical dispersion correction    : off

 ************************* Pseudopotential Parameters **************************
  
 pseudopotential representation                 : reciprocal space
 <beta|phi> representation                      : reciprocal space
 spin-orbit coupling                            : off

 **************************** Basis Set Parameters *****************************
  
 plane wave basis set cut-off                   :   900.0000   eV
 size of standard grid                          :     2.0000
 size of   fine   gmax                          :    30.7390   1/A
 finite basis set correction                    : none

 **************************** Electronic Parameters ****************************
  
 number of  electrons                           :  563.0    
 net charge of system                           :  0.000    
 net spin   of system                           :  1.000    
 number of  up  spins                           :  282.0    
 number of down spins                           :  281.0    
 treating system as spin-polarized
 number of bands                                :        338

 ********************* Electronic Minimization Parameters **********************
  
 Method: Treating system as metallic with density mixing treatment of electrons,
         and number of  SD  steps               :          1
         and number of  CG  steps               :          4
  
 total energy / atom convergence tol.           : 0.1000E-07   eV
 eigen-energy convergence tolerance             : 0.2234E-08   eV
 max force / atom convergence tol.              : ignored
 convergence tolerance window                   :          3   cycles
 max. number of SCF cycles                      :        100
 number of fixed-spin iterations                :         10
 smearing scheme                                : Gaussian
 smearing width                                 : 0.2000       eV
 Fermi energy convergence tolerance             : 0.2721E-13   eV
 periodic dipole correction                     : NONE

 ************************** Density Mixing Parameters **************************
  
 density-mixing scheme                          : Pulay
 max. length of mixing history                  :         20
 charge density mixing amplitude                : 0.5000    
   spin density mixing amplitude                :  2.000    
 cut-off energy for mixing                      :  900.0       eV

 *********************** Population Analysis Parameters ************************
  
 Population analysis with cutoff                :  3.000       A
 Population analysis output                     : summary and pdos components

 *******************************************************************************
  

                           -------------------------------
                                      Unit Cell
                           -------------------------------
        Real Lattice(A)                      Reciprocal Lattice(1/A)
    11.8016820    -0.0000080    -0.0000080        0.532397442   0.000000361   0.000000361
    -0.0000080    11.8016820    -0.0000080        0.000000361   0.532397442   0.000000361
    -0.0000080    -0.0000080    11.8016820        0.000000361   0.000000361   0.532397442

                       Lattice parameters(A)       Cell Angles
                    a =     11.801682          alpha =   90.000078
                    b =     11.801682          beta  =   90.000078
                    c =     11.801682          gamma =   90.000078

                       Current cell volume =          1643.734705       A**3
                                   density =             2.768402   AMU/A**3
                                           =             4.597040     g/cm^3

                           -------------------------------
                                     Cell Contents
                           -------------------------------
                         Total number of ions in cell =   63
                      Total number of species in cell =    2
                        Max number of any one species =   32

            xxxxxxxxxxxxxxxxxxxxxxxxxxxxxxxxxxxxxxxxxxxxxxxxxxxxxxxxxxxx
            x  Element    Atom        Fractional coordinates of atoms  x
            x            Number           u          v          w      x
            x----------------------------------------------------------x
            x  P            1         0.130856   0.130856   0.378179   x 
            x  P            2         0.378177   0.130853   0.130853   x 
            x  P            3         0.130856   0.378179   0.130856   x 
            x  P            4         0.474153   0.474166   0.474166   x 
            x  P            5         0.125733   0.125733   0.876070   x 
            x  P            6         0.376022   0.125347   0.622812   x 
            x  P            7         0.125345   0.376021   0.622812   x 
            x  P            8         0.373663   0.373662   0.873135   x 
            x  P            9         0.125345   0.622812   0.376021   x 
            x  P           10         0.376022   0.622812   0.125347   x 
            x  P           11         0.125733   0.876070   0.125733   x 
            x  P           12         0.373663   0.873135   0.373662   x 
            x  P           13         0.126816   0.624401   0.873426   x 
            x  P           14         0.387124   0.603048   0.603048   x 
            x  P           15         0.126816   0.873426   0.624401   x 
            x  P           16         0.376498   0.872198   0.872198   x 
            x  P           17         0.622813   0.125346   0.376022   x 
            x  P           18         0.876070   0.125733   0.125733   x 
            x  P           19         0.622813   0.376022   0.125346   x 
            x  P           20         0.873134   0.373663   0.373663   x 
            x  P           21         0.624401   0.126815   0.873426   x 
            x  P           22         0.873426   0.126815   0.624401   x 
            x  P           23         0.603049   0.387126   0.603050   x 
            x  P           24         0.872200   0.376498   0.872200   x 
            x  P           25         0.603049   0.603050   0.387126   x 
            x  P           26         0.873426   0.624401   0.126815   x 
            x  P           27         0.624401   0.873426   0.126815   x 
            x  P           28         0.872200   0.872200   0.376498   x 
            x  P           29         0.623917   0.623916   0.872769   x 
            x  P           30         0.872769   0.623917   0.623917   x 
            x  P           31         0.623917   0.872769   0.623916   x 
            x  P           32         0.874574   0.874574   0.874574   x 
            x  In           1        -0.000367  -0.000367  -0.000367   x 
            x  In           2         0.250478   0.003060   0.250480   x 
            x  In           3         0.003061   0.250479   0.250479   x 
            x  In           4         0.250478   0.250480   0.003060   x 
            x  In           5         0.001662   0.001661   0.498746   x 
            x  In           6         0.250296   0.000493   0.749929   x 
            x  In           7         0.000493   0.250295   0.749930   x 
            x  In           8         0.262820   0.262821   0.496941   x 
            x  In           9         0.001662   0.498746   0.001661   x 
            x  In          10         0.262820   0.496941   0.262821   x 
            x  In          11         0.000493   0.749930   0.250295   x 
            x  In          12         0.250296   0.749929   0.000493   x 
            x  In          13        -0.002773   0.498921   0.498921   x 
            x  In          14         0.252959   0.500213   0.744679   x 
            x  In          15        -0.000458   0.749073   0.749073   x 
            x  In          16         0.252959   0.744679   0.500213   x 
            x  In          17         0.498746   0.001659   0.001659   x 
            x  In          18         0.749930   0.000493   0.250296   x 
            x  In          19         0.496942   0.262812   0.262812   x 
            x  In          20         0.749930   0.250296   0.000493   x 
            x  In          21         0.498920  -0.002772   0.498921   x 
            x  In          22         0.749073  -0.000459   0.749073   x 
            x  In          23         0.500215   0.252959   0.744680   x 
            x  In          24         0.744679   0.252960   0.500215   x 
            x  In          25         0.498920   0.498921  -0.002772   x 
            x  In          26         0.744679   0.500215   0.252960   x 
            x  In          27         0.500215   0.744680   0.252959   x 
            x  In          28         0.749073   0.749073  -0.000459   x 
            x  In          29         0.741638   0.498007   0.741638   x 
            x  In          30         0.498009   0.741637   0.741637   x 
            x  In          31         0.741638   0.741638   0.498007   x 
            xxxxxxxxxxxxxxxxxxxxxxxxxxxxxxxxxxxxxxxxxxxxxxxxxxxxxxxxxxxx


                         No user defined ionic velocities

                           -------------------------------
                                   Details of Species
                           -------------------------------

                               Mass of species in AMU
                                    P   30.9737600
                                    In  114.8180000

                          Electric Quadrupole Moment (Barn)
                                    P    1.0000000 No Isotope Defined
                                    In    0.7700000 Isotope115

                          Files used for pseudopotentials:
                                    P 3|1.8|4|4|5|30:31:32
                                    In 3|2.5|2.5|1.5|7|8|9|50:51:42U2.2U2.2

                           -------------------------------
                              k-Points For BZ Sampling
                           -------------------------------
                       MP grid size for SCF calculation is  4  4  4
                            with an offset of   0.125  0.125  0.125
                       Number of kpoints used =            36

                           -------------------------------
                               Symmetry and Constraints
                           -------------------------------

                      Maximum deviation from symmetry =  0.00000         ANG

                      Number of symmetry operations   =           1
                      Number of ionic constraints     =           3
                      Point group of crystal =     1: C1, 1, 1
                      Space group of crystal =   160: R3m, R 3 -2"

             Set iprint > 1 for details on symmetry rotations/translations

                         Centre of mass is constrained
             Set iprint > 1 for details of linear ionic constraints

                         Number of cell constraints= 0
                         Cell constraints are:  1 2 3 4 5 6

                         External pressure/stress (GPa)
                          0.00000   0.00000   0.00000
                                    0.00000   0.00000
                                              0.00000
 
+---------------- MEMORY AND SCRATCH DISK ESTIMATES PER PROCESS --------------+
|                                                     Memory          Disk    |
| Baseline code, static data and system overhead      368.0 MB         0.0 MB |
| BLAS internal memory storage                          0.0 MB         0.0 MB |
| Model and support data                             4296.9 MB         0.0 MB |
| Electronic energy minimisation requirements        1299.4 MB         0.0 MB |
| Force calculation requirements                      127.4 MB         0.0 MB |
|                                               ----------------------------- |
| Approx. total storage required per process         5964.3 MB         0.0 MB |
|                                                                             |
| Requirements will fluctuate during execution and may exceed these estimates |
+-----------------------------------------------------------------------------+
Calculating approximate eigenstates for fixed initial Hamiltonian
Cut-off for approx. calculation is   89.988 eV
Improving approx. states at cut-off of  450.000 eV
Resetting cut-off to  900.000 eV
Calculating total energy with cut-off of  900.000 eV.
------------------------------------------------------------------------ <-- SCF
SCF loop      Energy           Fermi           Energy gain       Timer   <-- SCF
                               energy          per atom          (sec)   <-- SCF
------------------------------------------------------------------------ <-- SCF
Initial  -6.12897643E+004  0.00000000E+000                       423.53  <-- SCF
      1  -6.10541247E+004  3.11300619E+000  -3.74031104E+000     866.23  <-- SCF
      2  -6.10545182E+004  3.11221758E+000   6.24685539E-003    1174.74  <-- SCF
      3  -6.11180595E+004  3.17797172E+000   1.00859164E+000    1524.91  <-- SCF
      4  -6.11295331E+004  3.21865847E+000   1.82120911E-001    2019.58  <-- SCF
      5  -6.11354214E+004  3.32121516E+000   9.34649854E-002    2357.89  <-- SCF
      6  -6.11242175E+004  3.50972400E+000  -1.77839371E-001    2689.61  <-- SCF
      7  -6.11230150E+004  3.55823953E+000  -1.90881248E-002    3041.60  <-- SCF
      8  -6.11231113E+004  3.57353872E+000   1.52872082E-003    3405.93  <-- SCF
      9  -6.11238269E+004  3.57502522E+000   1.13585955E-002    3757.72  <-- SCF
     10  -6.11241524E+004  3.66420382E+000   5.16731538E-003    4119.02  <-- SCF
     11  -6.11241739E+004  3.66791247E+000   3.40225248E-004    4465.74  <-- SCF
     12  -6.11241837E+004  3.66783799E+000   1.55816003E-004    4816.09  <-- SCF
     13  -6.11241868E+004  3.66790256E+000   4.90718054E-005    5171.56  <-- SCF
     14  -6.11241893E+004  3.66805380E+000   3.95154124E-005    5518.77  <-- SCF
     15  -6.11241900E+004  3.66826434E+000   1.18125600E-005    5873.10  <-- SCF
     16  -6.11241912E+004  3.66858548E+000   1.87044583E-005    6229.11  <-- SCF
     17  -6.11241916E+004  3.66884078E+000   7.23681046E-006    6599.94  <-- SCF
     18  -6.11241920E+004  3.66923519E+000   4.84480785E-006    6968.20  <-- SCF
     19  -6.11241920E+004  3.66932906E+000   4.11174808E-007    7297.77  <-- SCF
     20  -6.11241920E+004  3.66935145E+000   6.82111019E-008    7567.02  <-- SCF
     21  -6.11241920E+004  3.66935111E+000   3.58190977E-008    7826.77  <-- SCF
     22  -6.11241920E+004  3.66935404E+000   3.94465370E-009    8065.08  <-- SCF
     23  -6.11241920E+004  3.66935562E+000   1.46566778E-009    8308.06  <-- SCF
------------------------------------------------------------------------ <-- SCF
 
Integrated Spin Density     =   -0.377689E-03 hbar/2
Integrated |Spin Density|   =    0.973819E-03 hbar/2
 
Final energy, E             =  -61124.04557458     eV
Final free energy (E-TS)    =  -61124.19198560     eV
(energies not corrected for finite basis set)
 
NB est. 0K energy (E-0.5TS)      =  -61124.11878009     eV
 

 ************************** Forces **************************
 *                                                          *
 *               Cartesian components (eV/A)                *
 * -------------------------------------------------------- *
 *                         x            y            z      *
 *                                                          *
 * P               1     -0.17163     -0.17161      0.02517 *
 * P               2      0.02513     -0.17164     -0.17164 *
 * P               3     -0.17162      0.02517     -0.17160 *
 * P               4      0.73759      0.73763      0.73763 *
 * P               5     -0.01428     -0.01429     -0.03095 *
 * P               6     -0.03827     -0.00924      0.01961 *
 * P               7     -0.00920     -0.03825      0.01956 *
 * P               8      0.04274      0.04273     -0.02499 *
 * P               9     -0.00920      0.01956     -0.03825 *
 * P              10     -0.03827      0.01961     -0.00924 *
 * P              11     -0.01428     -0.03095     -0.01429 *
 * P              12      0.04274     -0.02499      0.04273 *
 * P              13      0.04090      0.00238     -0.07383 *
 * P              14      0.07889      0.19708      0.19708 *
 * P              15      0.04091     -0.07384      0.00237 *
 * P              16      0.02422     -0.07333     -0.07333 *
 * P              17      0.01955     -0.00915     -0.03821 *
 * P              18     -0.03095     -0.01426     -0.01426 *
 * P              19      0.01955     -0.03823     -0.00916 *
 * P              20     -0.02496      0.04273      0.04273 *
 * P              21      0.00235      0.04092     -0.07382 *
 * P              22     -0.07385      0.04092      0.00235 *
 * P              23      0.19706      0.07885      0.19705 *
 * P              24     -0.07332      0.02425     -0.07330 *
 * P              25      0.19706      0.19705      0.07885 *
 * P              26     -0.07385      0.00235      0.04092 *
 * P              27      0.00236     -0.07383      0.04092 *
 * P              28     -0.07332     -0.07330      0.02425 *
 * P              29     -0.02014     -0.02015      0.00286 *
 * P              30      0.00286     -0.02014     -0.02015 *
 * P              31     -0.02014      0.00286     -0.02015 *
 * P              32     -0.02218     -0.02220     -0.02219 *
 * In              1      0.02463      0.02463      0.02463 *
 * In              2      0.00765      0.02708      0.00769 *
 * In              3      0.02709      0.00766      0.00767 *
 * In              4      0.00765      0.00770      0.02708 *
 * In              5     -0.00772     -0.00771     -0.06589 *
 * In              6     -0.00096      0.01549      0.00874 *
 * In              7      0.01547     -0.00100      0.00878 *
 * In              8     -0.03900     -0.03914     -0.45861 *
 * In              9     -0.00772     -0.06589     -0.00772 *
 * In             10     -0.03900     -0.45861     -0.03914 *
 * In             11      0.01548      0.00878     -0.00100 *
 * In             12     -0.00096      0.00874      0.01549 *
 * In             13      0.05656     -0.00899     -0.00899 *
 * In             14     -0.05196     -0.12705      0.05587 *
 * In             15     -0.01803      0.00520      0.00520 *
 * In             16     -0.05196      0.05587     -0.12704 *
 * In             17     -0.06579     -0.00774     -0.00775 *
 * In             18      0.00879      0.01546     -0.00103 *
 * In             19     -0.45856     -0.03910     -0.03910 *
 * In             20      0.00879     -0.00103      0.01546 *
 * In             21     -0.00904      0.05658     -0.00898 *
 * In             22      0.00520     -0.01801      0.00521 *
 * In             23     -0.12700     -0.05193      0.05580 *
 * In             24      0.05577     -0.05189     -0.12700 *
 * In             25     -0.00904     -0.00898      0.05658 *
 * In             26      0.05577     -0.12700     -0.05188 *
 * In             27     -0.12700      0.05580     -0.05194 *
 * In             28      0.00521      0.00522     -0.01802 *
 * In             29      0.04446      0.03629      0.04443 *
 * In             30      0.03633      0.04447      0.04447 *
 * In             31      0.04447      0.04443      0.03629 *
 *                                                          *
 ************************************************************

 Pseudo atomic calculation performed for P 3s2 3p3

 Converged in 23 iterations to a total energy of -208.0292 eV

 Pseudo atomic calculation performed for In 4d10 5s2 5p1

 Converged in 42 iterations to a total energy of -1747.4501 eV
Charge spilling parameter for spin component 1 = 0.18%
Charge spilling parameter for spin component 2 = 0.18%

                   Orbital Populations                  
  ---------------------------------------------------------------
     Ion    Atom   Orbital              Up        Down      Spin
  ---------------------------------------------------------------
      P     1      S                    0.874     0.874    -0.000
      P     1      Px                   0.646     0.646     0.000
      P     1      Py                   0.646     0.646     0.000
      P     1      Pz                   0.660     0.660    -0.000
      P     2      S                    0.874     0.874    -0.000
      P     2      Px                   0.660     0.660     0.000
      P     2      Py                   0.646     0.646     0.000
      P     2      Pz                   0.646     0.646     0.000
      P     3      S                    0.874     0.874    -0.000
      P     3      Px                   0.646     0.646     0.000
      P     3      Py                   0.660     0.660     0.000
      P     3      Pz                   0.646     0.646     0.000
      P     4      S                    0.955     0.955    -0.000
      P     4      Px                   0.517     0.517    -0.000
      P     4      Py                   0.517     0.517    -0.000
      P     4      Pz                   0.517     0.517    -0.000
      P     5      S                    0.869     0.869     0.000
      P     5      Px                   0.656     0.656     0.000
      P     5      Py                   0.656     0.656     0.000
      P     5      Pz                   0.655     0.655     0.000
      P     6      S                    0.871     0.871    -0.000
      P     6      Px                   0.664     0.664    -0.000
      P     6      Py                   0.644     0.644    -0.000
      P     6      Pz                   0.649     0.649     0.000
      P     7      S                    0.871     0.871    -0.000
      P     7      Px                   0.644     0.644    -0.000
      P     7      Py                   0.664     0.664     0.000
      P     7      Pz                   0.649     0.649     0.000
      P     8      S                    0.868     0.868    -0.000
      P     8      Px                   0.656     0.656    -0.000
      P     8      Py                   0.656     0.656    -0.000
      P     8      Pz                   0.655     0.655     0.000
      P     9      S                    0.871     0.871    -0.000
      P     9      Px                   0.644     0.644    -0.000
      P     9      Py                   0.649     0.649    -0.000
      P     9      Pz                   0.664     0.664    -0.000
      P    10      S                    0.871     0.871    -0.000
      P    10      Px                   0.664     0.664    -0.000
      P    10      Py                   0.649     0.649     0.000
      P    10      Pz                   0.644     0.644    -0.000
      P    11      S                    0.869     0.869     0.000
      P    11      Px                   0.656     0.656     0.000
      P    11      Py                   0.655     0.655     0.000
      P    11      Pz                   0.656     0.656     0.000
      P    12      S                    0.868     0.868    -0.000
      P    12      Px                   0.656     0.656    -0.000
      P    12      Py                   0.655     0.655     0.000
      P    12      Pz                   0.656     0.656    -0.000
      P    13      S                    0.872     0.872    -0.000
      P    13      Px                   0.651     0.651     0.000
      P    13      Py                   0.657     0.657    -0.000
      P    13      Pz                   0.650     0.650     0.000
      P    14      S                    0.880     0.880     0.000
      P    14      Px                   0.643     0.643     0.000
      P    14      Py                   0.612     0.612    -0.000
      P    14      Pz                   0.612     0.612     0.000
      P    15      S                    0.872     0.872     0.000
      P    15      Px                   0.651     0.651     0.000
      P    15      Py                   0.650     0.650    -0.000
      P    15      Pz                   0.657     0.657    -0.000
      P    16      S                    0.875     0.875    -0.000
      P    16      Px                   0.661     0.661     0.000
      P    16      Py                   0.645     0.645    -0.000
      P    16      Pz                   0.645     0.645    -0.000
      P    17      S                    0.871     0.871    -0.000
      P    17      Px                   0.649     0.649    -0.000
      P    17      Py                   0.644     0.644    -0.000
      P    17      Pz                   0.664     0.664    -0.000
      P    18      S                    0.869     0.869     0.000
      P    18      Px                   0.655     0.655     0.000
      P    18      Py                   0.656     0.656     0.000
      P    18      Pz                   0.656     0.656     0.000
      P    19      S                    0.871     0.871    -0.000
      P    19      Px                   0.649     0.649    -0.000
      P    19      Py                   0.664     0.664    -0.000
      P    19      Pz                   0.644     0.644     0.000
      P    20      S                    0.868     0.868    -0.000
      P    20      Px                   0.655     0.655     0.000
      P    20      Py                   0.656     0.656     0.000
      P    20      Pz                   0.656     0.656     0.000
      P    21      S                    0.872     0.872    -0.000
      P    21      Px                   0.657     0.657    -0.000
      P    21      Py                   0.651     0.651     0.000
      P    21      Pz                   0.650     0.650     0.000
      P    22      S                    0.872     0.872    -0.000
      P    22      Px                   0.650     0.650     0.000
      P    22      Py                   0.651     0.651     0.000
      P    22      Pz                   0.657     0.657    -0.000
      P    23      S                    0.880     0.880    -0.000
      P    23      Px                   0.612     0.612    -0.000
      P    23      Py                   0.643     0.643     0.000
      P    23      Pz                   0.612     0.612     0.000
      P    24      S                    0.875     0.875     0.000
      P    24      Px                   0.645     0.645    -0.000
      P    24      Py                   0.661     0.661     0.000
      P    24      Pz                   0.645     0.645    -0.000
      P    25      S                    0.880     0.880     0.000
      P    25      Px                   0.612     0.612    -0.000
      P    25      Py                   0.612     0.612     0.000
      P    25      Pz                   0.643     0.643     0.000
      P    26      S                    0.872     0.872    -0.000
      P    26      Px                   0.650     0.650     0.000
      P    26      Py                   0.657     0.657    -0.000
      P    26      Pz                   0.651     0.651     0.000
      P    27      S                    0.872     0.872    -0.000
      P    27      Px                   0.657     0.657    -0.000
      P    27      Py                   0.650     0.650    -0.000
      P    27      Pz                   0.651     0.651     0.000
      P    28      S                    0.875     0.875    -0.000
      P    28      Px                   0.645     0.645    -0.000
      P    28      Py                   0.645     0.645    -0.000
      P    28      Pz                   0.661     0.661     0.000
      P    29      S                    0.868     0.868     0.000
      P    29      Px                   0.657     0.657    -0.000
      P    29      Py                   0.657     0.657    -0.000
      P    29      Pz                   0.653     0.653    -0.000
      P    30      S                    0.868     0.868    -0.000
      P    30      Px                   0.653     0.653     0.000
      P    30      Py                   0.657     0.657    -0.000
      P    30      Pz                   0.657     0.657    -0.000
      P    31      S                    0.868     0.868     0.000
      P    31      Px                   0.657     0.657    -0.000
      P    31      Py                   0.653     0.653    -0.000
      P    31      Pz                   0.657     0.657    -0.000
      P    32      S                    0.868     0.868    -0.000
      P    32      Px                   0.656     0.656    -0.000
      P    32      Py                   0.656     0.656    -0.000
      P    32      Pz                   0.656     0.656    -0.000
     In     1      Dzz                  1.000     1.000    -0.000
     In     1      Dzy                  0.999     0.999    -0.000
     In     1      Dzx                  0.999     0.999     0.000
     In     1      Dxx-yy               1.000     1.000    -0.000
     In     1      Dxy                  0.999     0.999     0.000
     In     1      S                    0.702     0.702    -0.000
     In     1      Px                   0.239     0.239    -0.000
     In     1      Py                   0.239     0.239    -0.000
     In     1      Pz                   0.239     0.239    -0.000
     In     1      S                   -0.238    -0.238     0.000
     In     2      Dzz                  1.000     1.000    -0.000
     In     2      Dzy                  0.998     0.998     0.000
     In     2      Dzx                  0.999     0.999     0.000
     In     2      Dxx-yy               1.000     1.000     0.000
     In     2      Dxy                  0.998     0.998    -0.000
     In     2      S                    0.708     0.708    -0.000
     In     2      Px                   0.239     0.239     0.000
     In     2      Py                   0.240     0.240     0.000
     In     2      Pz                   0.239     0.239     0.000
     In     2      S                   -0.248    -0.248     0.000
     In     3      Dzz                  1.000     1.000     0.000
     In     3      Dzy                  0.999     0.999     0.000
     In     3      Dzx                  0.998     0.998     0.000
     In     3      Dxx-yy               1.000     1.000     0.000
     In     3      Dxy                  0.998     0.998     0.000
     In     3      S                    0.708     0.708     0.000
     In     3      Px                   0.240     0.240     0.000
     In     3      Py                   0.239     0.239     0.000
     In     3      Pz                   0.239     0.239     0.000
     In     3      S                   -0.248    -0.248     0.000
     In     4      Dzz                  1.000     1.000     0.000
     In     4      Dzy                  0.998     0.998     0.000
     In     4      Dzx                  0.998     0.998     0.000
     In     4      Dxx-yy               1.000     1.000     0.000
     In     4      Dxy                  0.999     0.999     0.000
     In     4      S                    0.708     0.708    -0.000
     In     4      Px                   0.239     0.239     0.000
     In     4      Py                   0.239     0.239     0.000
     In     4      Pz                   0.240     0.240     0.000
     In     4      S                   -0.248    -0.248     0.000
     In     5      Dzz                  1.000     1.000     0.000
     In     5      Dzy                  0.999     0.999    -0.000
     In     5      Dzx                  0.999     0.999    -0.000
     In     5      Dxx-yy               1.000     1.000     0.000
     In     5      Dxy                  0.999     0.999    -0.000
     In     5      S                    0.710     0.710    -0.000
     In     5      Px                   0.238     0.238    -0.000
     In     5      Py                   0.238     0.238    -0.000
     In     5      Pz                   0.233     0.233     0.000
     In     5      S                   -0.242    -0.242     0.000
     In     6      Dzz                  1.000     1.000     0.000
     In     6      Dzy                  0.999     0.999    -0.000
     In     6      Dzx                  0.999     0.999    -0.000
     In     6      Dxx-yy               1.000     1.000     0.000
     In     6      Dxy                  0.999     0.999     0.000
     In     6      S                    0.710     0.710    -0.000
     In     6      Px                   0.240     0.240    -0.000
     In     6      Py                   0.240     0.240    -0.000
     In     6      Pz                   0.238     0.238    -0.000
     In     6      S                   -0.252    -0.252    -0.000
     In     7      Dzz                  1.000     1.000     0.000
     In     7      Dzy                  0.999     0.999    -0.000
     In     7      Dzx                  0.999     0.999    -0.000
     In     7      Dxx-yy               1.000     1.000     0.000
     In     7      Dxy                  0.999     0.999     0.000
     In     7      S                    0.710     0.710    -0.000
     In     7      Px                   0.240     0.240     0.000
     In     7      Py                   0.240     0.240     0.000
     In     7      Pz                   0.238     0.238    -0.000
     In     7      S                   -0.252    -0.252    -0.000
     In     8      Dzz                  1.000     1.000    -0.000
     In     8      Dzy                  0.999     0.999    -0.000
     In     8      Dzx                  0.999     0.999    -0.000
     In     8      Dxx-yy               1.000     1.000    -0.000
     In     8      Dxy                  0.999     0.999    -0.000
     In     8      S                    0.722     0.722    -0.000
     In     8      Px                   0.236     0.236    -0.000
     In     8      Py                   0.236     0.236    -0.000
     In     8      Pz                   0.246     0.246    -0.000
     In     8      S                   -0.219    -0.219    -0.000
     In     9      Dzz                  1.000     1.000     0.000
     In     9      Dzy                  0.999     0.999    -0.000
     In     9      Dzx                  0.999     0.999     0.000
     In     9      Dxx-yy               1.000     1.000    -0.000
     In     9      Dxy                  0.999     0.999     0.000
     In     9      S                    0.710     0.710    -0.000
     In     9      Px                   0.238     0.238    -0.000
     In     9      Py                   0.233     0.233     0.000
     In     9      Pz                   0.238     0.238    -0.000
     In     9      S                   -0.242    -0.242     0.000
     In    10      Dzz                  1.000     1.000    -0.000
     In    10      Dzy                  0.999     0.999    -0.000
     In    10      Dzx                  0.999     0.999    -0.000
     In    10      Dxx-yy               1.000     1.000    -0.000
     In    10      Dxy                  0.999     0.999    -0.000
     In    10      S                    0.722     0.722    -0.000
     In    10      Px                   0.236     0.236    -0.000
     In    10      Py                   0.246     0.246    -0.000
     In    10      Pz                   0.236     0.236    -0.000
     In    10      S                   -0.219    -0.219     0.000
     In    11      Dzz                  1.000     1.000     0.000
     In    11      Dzy                  0.999     0.999    -0.000
     In    11      Dzx                  0.999     0.999     0.000
     In    11      Dxx-yy               1.000     1.000    -0.000
     In    11      Dxy                  0.999     0.999    -0.000
     In    11      S                    0.710     0.710    -0.000
     In    11      Px                   0.240     0.240     0.000
     In    11      Py                   0.238     0.238    -0.000
     In    11      Pz                   0.240     0.240     0.000
     In    11      S                   -0.252    -0.252    -0.000
     In    12      Dzz                  1.000     1.000     0.000
     In    12      Dzy                  0.999     0.999     0.000
     In    12      Dzx                  0.999     0.999    -0.000
     In    12      Dxx-yy               1.000     1.000     0.000
     In    12      Dxy                  0.999     0.999     0.000
     In    12      S                    0.710     0.710    -0.000
     In    12      Px                   0.240     0.240     0.000
     In    12      Py                   0.238     0.238    -0.000
     In    12      Pz                   0.240     0.240    -0.000
     In    12      S                   -0.252    -0.252    -0.000
     In    13      Dzz                  1.000     1.000     0.000
     In    13      Dzy                  0.998     0.998     0.000
     In    13      Dzx                  0.998     0.998    -0.000
     In    13      Dxx-yy               1.000     1.000     0.000
     In    13      Dxy                  0.998     0.998    -0.000
     In    13      S                    0.711     0.710     0.000
     In    13      Px                   0.238     0.238     0.000
     In    13      Py                   0.240     0.240     0.000
     In    13      Pz                   0.240     0.240     0.000
     In    13      S                   -0.255    -0.255     0.000
     In    14      Dzz                  1.000     1.000     0.000
     In    14      Dzy                  0.999     0.999    -0.000
     In    14      Dzx                  0.999     0.999    -0.000
     In    14      Dxx-yy               1.000     1.000     0.000
     In    14      Dxy                  0.999     0.999    -0.000
     In    14      S                    0.699     0.699     0.000
     In    14      Px                   0.242     0.242     0.000
     In    14      Py                   0.235     0.235     0.000
     In    14      Pz                   0.243     0.243     0.000
     In    14      S                   -0.237    -0.237     0.000
     In    15      Dzz                  1.000     1.000    -0.000
     In    15      Dzy                  0.999     0.999    -0.000
     In    15      Dzx                  0.999     0.999     0.000
     In    15      Dxx-yy               1.000     1.000     0.000
     In    15      Dxy                  0.999     0.999     0.000
     In    15      S                    0.708     0.708     0.000
     In    15      Px                   0.240     0.240    -0.000
     In    15      Py                   0.239     0.239    -0.000
     In    15      Pz                   0.239     0.239    -0.000
     In    15      S                   -0.247    -0.247    -0.000
     In    16      Dzz                  1.000     1.000     0.000
     In    16      Dzy                  0.999     0.999     0.000
     In    16      Dzx                  0.999     0.999    -0.000
     In    16      Dxx-yy               1.000     1.000     0.000
     In    16      Dxy                  0.999     0.999    -0.000
     In    16      S                    0.699     0.699    -0.000
     In    16      Px                   0.242     0.242     0.000
     In    16      Py                   0.243     0.243     0.000
     In    16      Pz                   0.235     0.235     0.000
     In    16      S                   -0.237    -0.237     0.000
     In    17      Dzz                  1.000     1.000    -0.000
     In    17      Dzy                  0.999     0.999    -0.000
     In    17      Dzx                  0.999     0.999    -0.000
     In    17      Dxx-yy               1.000     1.000    -0.000
     In    17      Dxy                  0.999     0.999    -0.000
     In    17      S                    0.710     0.710     0.000
     In    17      Px                   0.233     0.233    -0.000
     In    17      Py                   0.238     0.238     0.000
     In    17      Pz                   0.238     0.238    -0.000
     In    17      S                   -0.242    -0.242     0.000
     In    18      Dzz                  1.000     1.000     0.000
     In    18      Dzy                  0.999     0.999     0.000
     In    18      Dzx                  0.999     0.999    -0.000
     In    18      Dxx-yy               1.000     1.000    -0.000
     In    18      Dxy                  0.999     0.999    -0.000
     In    18      S                    0.710     0.710    -0.000
     In    18      Px                   0.238     0.238    -0.000
     In    18      Py                   0.240     0.240     0.000
     In    18      Pz                   0.240     0.240    -0.000
     In    18      S                   -0.252    -0.252    -0.000
     In    19      Dzz                  1.000     1.000    -0.000
     In    19      Dzy                  0.999     0.999     0.000
     In    19      Dzx                  0.999     0.999     0.000
     In    19      Dxx-yy               1.000     1.000    -0.000
     In    19      Dxy                  0.999     0.999     0.000
     In    19      S                    0.722     0.722    -0.000
     In    19      Px                   0.246     0.246    -0.000
     In    19      Py                   0.236     0.236    -0.000
     In    19      Pz                   0.236     0.236    -0.000
     In    19      S                   -0.219    -0.219     0.000
     In    20      Dzz                  1.000     1.000    -0.000
     In    20      Dzy                  0.999     0.999     0.000
     In    20      Dzx                  0.999     0.999    -0.000
     In    20      Dxx-yy               1.000     1.000     0.000
     In    20      Dxy                  0.999     0.999    -0.000
     In    20      S                    0.710     0.710    -0.000
     In    20      Px                   0.238     0.238    -0.000
     In    20      Py                   0.240     0.240    -0.000
     In    20      Pz                   0.240     0.240     0.000
     In    20      S                   -0.252    -0.252    -0.000
     In    21      Dzz                  1.000     1.000     0.000
     In    21      Dzy                  0.998     0.998    -0.000
     In    21      Dzx                  0.998     0.998     0.000
     In    21      Dxx-yy               1.000     1.000     0.000
     In    21      Dxy                  0.998     0.998    -0.000
     In    21      S                    0.711     0.711     0.000
     In    21      Px                   0.240     0.240    -0.000
     In    21      Py                   0.238     0.238     0.000
     In    21      Pz                   0.240     0.240    -0.000
     In    21      S                   -0.255    -0.255    -0.000
     In    22      Dzz                  1.000     1.000     0.000
     In    22      Dzy                  0.999     0.999    -0.000
     In    22      Dzx                  0.999     0.999    -0.000
     In    22      Dxx-yy               1.000     1.000    -0.000
     In    22      Dxy                  0.999     0.999    -0.000
     In    22      S                    0.708     0.708    -0.000
     In    22      Px                   0.239     0.239    -0.000
     In    22      Py                   0.240     0.240    -0.000
     In    22      Pz                   0.239     0.239    -0.000
     In    22      S                   -0.247    -0.247    -0.000
     In    23      Dzz                  1.000     1.000     0.000
     In    23      Dzy                  0.999     0.999    -0.000
     In    23      Dzx                  0.999     0.999    -0.000
     In    23      Dxx-yy               1.000     1.000     0.000
     In    23      Dxy                  0.999     0.999    -0.000
     In    23      S                    0.699     0.699     0.000
     In    23      Px                   0.235     0.235     0.000
     In    23      Py                   0.242     0.242     0.000
     In    23      Pz                   0.243     0.243     0.000
     In    23      S                   -0.237    -0.237     0.000
     In    24      Dzz                  1.000     1.000     0.000
     In    24      Dzy                  0.999     0.999    -0.000
     In    24      Dzx                  0.999     0.999    -0.000
     In    24      Dxx-yy               1.000     1.000     0.000
     In    24      Dxy                  0.999     0.999    -0.000
     In    24      S                    0.699     0.699    -0.000
     In    24      Px                   0.243     0.243     0.000
     In    24      Py                   0.242     0.242     0.000
     In    24      Pz                   0.235     0.235     0.000
     In    24      S                   -0.237    -0.237     0.000
     In    25      Dzz                  1.000     1.000     0.000
     In    25      Dzy                  0.998     0.998    -0.000
     In    25      Dzx                  0.998     0.998    -0.000
     In    25      Dxx-yy               1.000     1.000     0.000
     In    25      Dxy                  0.998     0.998     0.000
     In    25      S                    0.711     0.710     0.000
     In    25      Px                   0.240     0.240     0.000
     In    25      Py                   0.240     0.240    -0.000
     In    25      Pz                   0.238     0.238    -0.000
     In    25      S                   -0.255    -0.255    -0.000
     In    26      Dzz                  1.000     1.000     0.000
     In    26      Dzy                  0.999     0.999    -0.000
     In    26      Dzx                  0.999     0.999     0.000
     In    26      Dxx-yy               1.000     1.000     0.000
     In    26      Dxy                  0.999     0.999    -0.000
     In    26      S                    0.699     0.699    -0.000
     In    26      Px                   0.243     0.243     0.000
     In    26      Py                   0.235     0.235     0.000
     In    26      Pz                   0.242     0.242     0.000
     In    26      S                   -0.237    -0.237     0.000
     In    27      Dzz                  1.000     1.000     0.000
     In    27      Dzy                  0.999     0.999     0.000
     In    27      Dzx                  0.999     0.999    -0.000
     In    27      Dxx-yy               1.000     1.000     0.000
     In    27      Dxy                  0.999     0.999    -0.000
     In    27      S                    0.699     0.699    -0.000
     In    27      Px                   0.235     0.235     0.000
     In    27      Py                   0.243     0.243     0.000
     In    27      Pz                   0.242     0.242     0.000
     In    27      S                   -0.237    -0.237     0.000
     In    28      Dzz                  1.000     1.000    -0.000
     In    28      Dzy                  0.999     0.999     0.000
     In    28      Dzx                  0.999     0.999     0.000
     In    28      Dxx-yy               1.000     1.000     0.000
     In    28      Dxy                  0.999     0.999    -0.000
     In    28      S                    0.708     0.708     0.000
     In    28      Px                   0.239     0.239    -0.000
     In    28      Py                   0.239     0.239    -0.000
     In    28      Pz                   0.240     0.240    -0.000
     In    28      S                   -0.247    -0.247    -0.000
     In    29      Dzz                  1.000     1.000     0.000
     In    29      Dzy                  0.999     0.999    -0.000
     In    29      Dzx                  0.999     0.999     0.000
     In    29      Dxx-yy               1.000     1.000     0.000
     In    29      Dxy                  0.999     0.999    -0.000
     In    29      S                    0.703     0.703     0.000
     In    29      Px                   0.239     0.239     0.000
     In    29      Py                   0.235     0.235    -0.000
     In    29      Pz                   0.239     0.239     0.000
     In    29      S                   -0.242    -0.242    -0.000
     In    30      Dzz                  1.000     1.000     0.000
     In    30      Dzy                  0.999     0.999    -0.000
     In    30      Dzx                  0.999     0.999    -0.000
     In    30      Dxx-yy               1.000     1.000     0.000
     In    30      Dxy                  0.999     0.999    -0.000
     In    30      S                    0.703     0.703    -0.000
     In    30      Px                   0.235     0.235    -0.000
     In    30      Py                   0.239     0.239    -0.000
     In    30      Pz                   0.239     0.239     0.000
     In    30      S                   -0.242    -0.242    -0.000
     In    31      Dzz                  1.000     1.000     0.000
     In    31      Dzy                  0.999     0.999    -0.000
     In    31      Dzx                  0.999     0.999    -0.000
     In    31      Dxx-yy               1.000     1.000     0.000
     In    31      Dxy                  0.999     0.999    -0.000
     In    31      S                    0.703     0.703    -0.000
     In    31      Px                   0.239     0.239     0.000
     In    31      Py                   0.239     0.239     0.000
     In    31      Pz                   0.235     0.235    -0.000
     In    31      S                   -0.242    -0.242    -0.000
  ---------------------------------------------------------------
                           Total:     281.500   281.500    -0.001
  ---------------------------------------------------------------

     Atomic Populations (Mulliken)
     -----------------------------
Species          Ion Spin      s       p       d       f      Total   Charge(e)   Spin(hbar/2)
==============================================================================================
  P               1   up:     0.874   1.953   0.000   0.000   2.827    -0.653        0.000
                  1   dn:     0.874   1.953   0.000   0.000   2.826
  P               2   up:     0.874   1.953   0.000   0.000   2.827    -0.653        0.000
                  2   dn:     0.874   1.953   0.000   0.000   2.827
  P               3   up:     0.874   1.953   0.000   0.000   2.827    -0.653        0.000
                  3   dn:     0.874   1.953   0.000   0.000   2.826
  P               4   up:     0.955   1.550   0.000   0.000   2.505    -0.010       -0.000
                  4   dn:     0.955   1.550   0.000   0.000   2.505
  P               5   up:     0.869   1.966   0.000   0.000   2.835    -0.671        0.000
                  5   dn:     0.869   1.966   0.000   0.000   2.835
  P               6   up:     0.871   1.958   0.000   0.000   2.829    -0.658       -0.000
                  6   dn:     0.871   1.958   0.000   0.000   2.829
  P               7   up:     0.871   1.958   0.000   0.000   2.829    -0.658       -0.000
                  7   dn:     0.871   1.958   0.000   0.000   2.829
  P               8   up:     0.868   1.967   0.000   0.000   2.835    -0.671       -0.000
                  8   dn:     0.868   1.967   0.000   0.000   2.835
  P               9   up:     0.871   1.958   0.000   0.000   2.829    -0.658       -0.000
                  9   dn:     0.871   1.958   0.000   0.000   2.829
  P              10   up:     0.871   1.958   0.000   0.000   2.829    -0.658       -0.000
                 10   dn:     0.871   1.958   0.000   0.000   2.829
  P              11   up:     0.869   1.966   0.000   0.000   2.835    -0.671        0.000
                 11   dn:     0.869   1.966   0.000   0.000   2.835
  P              12   up:     0.868   1.967   0.000   0.000   2.835    -0.671       -0.000
                 12   dn:     0.868   1.967   0.000   0.000   2.835
  P              13   up:     0.872   1.959   0.000   0.000   2.830    -0.661       -0.000
                 13   dn:     0.872   1.959   0.000   0.000   2.830
  P              14   up:     0.880   1.867   0.000   0.000   2.748    -0.495        0.000
                 14   dn:     0.880   1.867   0.000   0.000   2.748
  P              15   up:     0.872   1.959   0.000   0.000   2.830    -0.661       -0.000
                 15   dn:     0.872   1.959   0.000   0.000   2.830
  P              16   up:     0.875   1.952   0.000   0.000   2.827    -0.654       -0.000
                 16   dn:     0.875   1.952   0.000   0.000   2.827
  P              17   up:     0.871   1.958   0.000   0.000   2.829    -0.658       -0.000
                 17   dn:     0.871   1.958   0.000   0.000   2.829
  P              18   up:     0.869   1.966   0.000   0.000   2.835    -0.671        0.000
                 18   dn:     0.869   1.966   0.000   0.000   2.835
  P              19   up:     0.871   1.958   0.000   0.000   2.829    -0.658       -0.000
                 19   dn:     0.871   1.958   0.000   0.000   2.829
  P              20   up:     0.868   1.967   0.000   0.000   2.835    -0.671        0.000
                 20   dn:     0.868   1.967   0.000   0.000   2.835
  P              21   up:     0.872   1.959   0.000   0.000   2.830    -0.661        0.000
                 21   dn:     0.872   1.959   0.000   0.000   2.830
  P              22   up:     0.872   1.959   0.000   0.000   2.830    -0.661        0.000
                 22   dn:     0.872   1.959   0.000   0.000   2.830
  P              23   up:     0.880   1.867   0.000   0.000   2.748    -0.495        0.000
                 23   dn:     0.880   1.867   0.000   0.000   2.748
  P              24   up:     0.875   1.952   0.000   0.000   2.827    -0.654        0.000
                 24   dn:     0.875   1.952   0.000   0.000   2.827
  P              25   up:     0.880   1.867   0.000   0.000   2.748    -0.495        0.000
                 25   dn:     0.880   1.867   0.000   0.000   2.748
  P              26   up:     0.872   1.959   0.000   0.000   2.830    -0.661        0.000
                 26   dn:     0.872   1.959   0.000   0.000   2.830
  P              27   up:     0.872   1.959   0.000   0.000   2.830    -0.661        0.000
                 27   dn:     0.872   1.959   0.000   0.000   2.830
  P              28   up:     0.875   1.952   0.000   0.000   2.827    -0.654       -0.000
                 28   dn:     0.875   1.952   0.000   0.000   2.827
  P              29   up:     0.868   1.967   0.000   0.000   2.835    -0.670       -0.000
                 29   dn:     0.868   1.967   0.000   0.000   2.835
  P              30   up:     0.868   1.967   0.000   0.000   2.835    -0.670       -0.000
                 30   dn:     0.868   1.967   0.000   0.000   2.835
  P              31   up:     0.868   1.967   0.000   0.000   2.835    -0.670       -0.000
                 31   dn:     0.868   1.967   0.000   0.000   2.835
  P              32   up:     0.868   1.968   0.000   0.000   2.836    -0.672       -0.000
                 32   dn:     0.868   1.968   0.000   0.000   2.836
  In              1   up:     0.465   0.718   4.995   0.000   6.178     0.645       -0.000
                  1   dn:     0.465   0.718   4.995   0.000   6.178
  In              2   up:     0.460   0.719   4.995   0.000   6.173     0.653        0.000
                  2   dn:     0.460   0.719   4.995   0.000   6.173
  In              3   up:     0.460   0.719   4.995   0.000   6.173     0.653        0.000
                  3   dn:     0.460   0.719   4.995   0.000   6.173
  In              4   up:     0.460   0.719   4.995   0.000   6.173     0.653        0.000
                  4   dn:     0.460   0.719   4.995   0.000   6.173
  In              5   up:     0.468   0.710   4.995   0.000   6.173     0.654       -0.000
                  5   dn:     0.468   0.710   4.995   0.000   6.173
  In              6   up:     0.457   0.718   4.995   0.000   6.170     0.659       -0.000
                  6   dn:     0.457   0.718   4.995   0.000   6.170
  In              7   up:     0.457   0.718   4.995   0.000   6.170     0.659       -0.000
                  7   dn:     0.457   0.718   4.995   0.000   6.170
  In              8   up:     0.503   0.717   4.996   0.000   6.216     0.567       -0.000
                  8   dn:     0.503   0.717   4.996   0.000   6.217
  In              9   up:     0.468   0.710   4.995   0.000   6.173     0.654       -0.000
                  9   dn:     0.468   0.710   4.995   0.000   6.173
  In             10   up:     0.503   0.717   4.996   0.000   6.217     0.567       -0.000
                 10   dn:     0.503   0.717   4.996   0.000   6.217
  In             11   up:     0.457   0.718   4.995   0.000   6.170     0.659       -0.000
                 11   dn:     0.457   0.718   4.995   0.000   6.170
  In             12   up:     0.457   0.718   4.995   0.000   6.170     0.659       -0.000
                 12   dn:     0.457   0.718   4.995   0.000   6.170
  In             13   up:     0.456   0.718   4.994   0.000   6.169     0.663        0.000
                 13   dn:     0.456   0.718   4.994   0.000   6.169
  In             14   up:     0.462   0.719   4.995   0.000   6.176     0.647        0.000
                 14   dn:     0.462   0.719   4.995   0.000   6.176
  In             15   up:     0.461   0.718   4.995   0.000   6.174     0.652       -0.000
                 15   dn:     0.461   0.718   4.995   0.000   6.174
  In             16   up:     0.462   0.719   4.995   0.000   6.176     0.647        0.000
                 16   dn:     0.462   0.719   4.995   0.000   6.176
  In             17   up:     0.468   0.710   4.995   0.000   6.173     0.654        0.000
                 17   dn:     0.468   0.710   4.995   0.000   6.173
  In             18   up:     0.457   0.718   4.995   0.000   6.170     0.659       -0.000
                 18   dn:     0.457   0.718   4.995   0.000   6.170
  In             19   up:     0.503   0.717   4.996   0.000   6.217     0.567       -0.000
                 19   dn:     0.503   0.717   4.996   0.000   6.217
  In             20   up:     0.457   0.718   4.995   0.000   6.170     0.659       -0.000
                 20   dn:     0.457   0.718   4.995   0.000   6.170
  In             21   up:     0.456   0.718   4.994   0.000   6.169     0.663        0.000
                 21   dn:     0.456   0.718   4.994   0.000   6.169
  In             22   up:     0.461   0.718   4.995   0.000   6.174     0.652       -0.000
                 22   dn:     0.461   0.718   4.995   0.000   6.174
  In             23   up:     0.462   0.719   4.995   0.000   6.176     0.647        0.000
                 23   dn:     0.462   0.719   4.995   0.000   6.176
  In             24   up:     0.462   0.719   4.995   0.000   6.176     0.647        0.000
                 24   dn:     0.462   0.719   4.995   0.000   6.176
  In             25   up:     0.456   0.718   4.994   0.000   6.169     0.663        0.000
                 25   dn:     0.456   0.718   4.994   0.000   6.169
  In             26   up:     0.462   0.719   4.995   0.000   6.176     0.647        0.000
                 26   dn:     0.462   0.719   4.995   0.000   6.176
  In             27   up:     0.462   0.719   4.995   0.000   6.176     0.647        0.000
                 27   dn:     0.462   0.719   4.995   0.000   6.176
  In             28   up:     0.461   0.718   4.995   0.000   6.174     0.652       -0.000
                 28   dn:     0.461   0.718   4.995   0.000   6.174
  In             29   up:     0.461   0.713   4.995   0.000   6.169     0.662       -0.000
                 29   dn:     0.461   0.713   4.995   0.000   6.169
  In             30   up:     0.461   0.713   4.995   0.000   6.169     0.662       -0.000
                 30   dn:     0.461   0.713   4.995   0.000   6.169
  In             31   up:     0.461   0.713   4.995   0.000   6.169     0.662       -0.000
                 31   dn:     0.461   0.713   4.995   0.000   6.169
==============================================================================================

                 Bond                   Population        Spin       Length (A)
================================================================================
              P 4  -- P 14                   0.38         0.00          2.38370
              P 4  -- P 25                   0.38         0.00          2.38386
              P 4  -- P 23                   0.38         0.00          2.38386
              P 9  -- In 16                  0.65        -0.00          2.54654
              P 7  -- In 14                  0.65        -0.00          2.54654
              P 6  -- In 23                  0.65        -0.00          2.54655
              P 10 -- In 27                  0.65        -0.00          2.54655
              P 19 -- In 26                  0.65         0.00          2.54656
              P 17 -- In 24                  0.65         0.00          2.54656
              P 30 -- In 13                  0.65         0.00          2.55140
              P 31 -- In 21                  0.65         0.00          2.55140
              P 29 -- In 25                  0.65         0.00          2.55140
              P 12 -- In 21                  0.66        -0.00          2.55250
              P 8  -- In 25                  0.66        -0.00          2.55250
              P 20 -- In 13                  0.66        -0.00          2.55250
              P 10 -- In 25                  0.65        -0.00          2.55494
              P 6  -- In 21                  0.65         0.00          2.55494
              P 7  -- In 13                  0.65         0.00          2.55494
              P 9  -- In 13                  0.65         0.00          2.55494
              P 19 -- In 25                  0.65        -0.00          2.55494
              P 17 -- In 21                  0.65         0.00          2.55494
              P 31 -- In 30                  0.65         0.00          2.55600
              P 29 -- In 30                  0.65         0.00          2.55600
              P 29 -- In 29                  0.65         0.00          2.55601
              P 31 -- In 31                  0.65        -0.00          2.55601
              P 30 -- In 29                  0.65         0.00          2.55601
              P 30 -- In 31                  0.65         0.00          2.55601
              P 32 -- In 1                   0.64         0.00          2.55633
              P 1  -- In 2                   0.65        -0.00          2.55714
              P 3  -- In 4                   0.65        -0.00          2.55714
              P 2  -- In 4                   0.65         0.00          2.55714
              P 2  -- In 2                   0.65        -0.00          2.55714
              P 3  -- In 3                   0.65        -0.00          2.55714
              P 1  -- In 3                   0.65         0.00          2.55714
              P 18 -- In 1                   0.64        -0.00          2.56046
              P 11 -- In 1                   0.64         0.00          2.56046
              P 5  -- In 1                   0.64        -0.00          2.56046
              P 12 -- In 16                  0.66        -0.00          2.56086
              P 20 -- In 26                  0.66        -0.00          2.56087
              P 20 -- In 24                  0.66         0.00          2.56087
              P 8  -- In 14                  0.66        -0.00          2.56087
              P 8  -- In 23                  0.66         0.00          2.56087
              P 12 -- In 27                  0.66        -0.00          2.56087
              P 5  -- In 7                   0.66        -0.00          2.56160
              P 11 -- In 11                  0.66        -0.00          2.56160
              P 11 -- In 12                  0.66         0.00          2.56160
              P 5  -- In 6                   0.66        -0.00          2.56160
              P 18 -- In 18                  0.66         0.00          2.56160
              P 18 -- In 20                  0.66         0.00          2.56160
              P 32 -- In 22                  0.65        -0.00          2.56176
              P 32 -- In 28                  0.65         0.00          2.56176
              P 32 -- In 15                  0.65        -0.00          2.56176
              P 26 -- In 11                  0.64        -0.00          2.56264
              P 22 -- In 7                   0.64        -0.00          2.56264
              P 15 -- In 6                   0.64        -0.00          2.56264
              P 13 -- In 12                  0.64        -0.00          2.56264
              P 27 -- In 18                  0.64         0.00          2.56264
              P 21 -- In 20                  0.64         0.00          2.56264
              P 22 -- In 22                  0.64        -0.00          2.56413
              P 26 -- In 28                  0.64         0.00          2.56413
              P 21 -- In 22                  0.64        -0.00          2.56413
              P 27 -- In 28                  0.64        -0.00          2.56413
              P 13 -- In 15                  0.64        -0.00          2.56413
              P 15 -- In 15                  0.64        -0.00          2.56413
              P 12 -- In 2                   0.65         0.00          2.56477
              P 8  -- In 4                   0.65         0.00          2.56477
              P 20 -- In 3                   0.65         0.00          2.56477
              P 5  -- In 4                   0.64         0.00          2.56533
              P 11 -- In 2                   0.64        -0.00          2.56533
              P 18 -- In 3                   0.64         0.00          2.56533
              P 24 -- In 20                  0.63         0.00          2.56768
              P 28 -- In 18                  0.63         0.00          2.56768
              P 28 -- In 11                  0.63         0.00          2.56768
              P 24 -- In 7                   0.63         0.00          2.56768
              P 16 -- In 6                   0.63         0.00          2.56768
              P 16 -- In 12                  0.63         0.00          2.56768
              P 30 -- In 15                  0.65        -0.00          2.56938
              P 29 -- In 28                  0.64        -0.00          2.56939
              P 31 -- In 22                  0.64        -0.00          2.56939
              P 9  -- In 11                  0.62         0.00          2.57358
              P 7  -- In 7                   0.62         0.00          2.57358
              P 10 -- In 12                  0.62         0.00          2.57359
              P 6  -- In 6                   0.62         0.00          2.57359
              P 17 -- In 18                  0.62         0.00          2.57359
              P 19 -- In 20                  0.62         0.00          2.57359
              P 19 -- In 19                  0.63        -0.00          2.57366
              P 17 -- In 19                  0.63        -0.00          2.57366
              P 7  -- In 8                   0.63        -0.00          2.57367
              P 9  -- In 10                  0.63        -0.00          2.57367
              P 10 -- In 10                  0.63        -0.00          2.57367
              P 6  -- In 8                   0.63        -0.00          2.57367
              P 27 -- In 17                  0.63         0.00          2.58285
              P 21 -- In 17                  0.63         0.00          2.58285
              P 15 -- In 5                   0.63         0.00          2.58285
              P 13 -- In 9                   0.63         0.00          2.58285
              P 26 -- In 9                   0.63         0.00          2.58285
              P 22 -- In 5                   0.63         0.00          2.58285
              P 13 -- In 14                  0.66        -0.00          2.58320
              P 15 -- In 16                  0.66        -0.00          2.58320
              P 21 -- In 23                  0.66        -0.00          2.58320
              P 27 -- In 27                  0.66        -0.00          2.58320
              P 26 -- In 26                  0.66        -0.00          2.58320
              P 22 -- In 24                  0.66        -0.00          2.58320
              P 2  -- In 17                  0.62        -0.00          2.58343
              P 3  -- In 9                   0.62        -0.00          2.58343
              P 1  -- In 5                   0.62        -0.00          2.58343
              P 16 -- In 17                  0.59         0.00          2.59810
              P 28 -- In 5                   0.59         0.00          2.59811
              P 24 -- In 9                   0.59         0.00          2.59811
              P 25 -- In 27                  0.60         0.00          2.60265
              P 23 -- In 23                  0.61         0.00          2.60265
              P 14 -- In 14                  0.60         0.00          2.60266
              P 14 -- In 16                  0.60         0.00          2.60266
              P 23 -- In 24                  0.60         0.00          2.60267
              P 25 -- In 26                  0.60        -0.00          2.60267
              P 24 -- In 29                  0.63        -0.00          2.60861
              P 28 -- In 31                  0.63        -0.00          2.60861
              P 16 -- In 30                  0.63        -0.00          2.60861
              P 2  -- In 19                  0.61         0.00          2.61059
              P 1  -- In 8                   0.61        -0.00          2.61064
              P 3  -- In 10                  0.61         0.00          2.61064
              P 25 -- In 31                  0.57         0.00          2.65755
              P 23 -- In 29                  0.57         0.00          2.65755
              P 14 -- In 30                  0.57         0.00          2.65758
================================================================================

 Hirshfeld supercell size:           2           2           2
Standard grid dimensions: 240 240 240
Fine grid dimensions:     240 240 240


     Hirshfeld Analysis
     ------------------
Species   Ion     Hirshfeld Charge (e)  Spin (hbar/2)
===================================================
  P        1                -0.24        0.00
  P        2                -0.24        0.00
  P        3                -0.24        0.00
  P        4                 0.05       -0.00
  P        5                -0.24       -0.00
  P        6                -0.24       -0.00
  P        7                -0.24       -0.00
  P        8                -0.24        0.00
  P        9                -0.24       -0.00
  P       10                -0.24       -0.00
  P       11                -0.24       -0.00
  P       12                -0.24        0.00
  P       13                -0.24       -0.00
  P       14                -0.16       -0.00
  P       15                -0.24       -0.00
  P       16                -0.24       -0.00
  P       17                -0.24       -0.00
  P       18                -0.24       -0.00
  P       19                -0.24       -0.00
  P       20                -0.24        0.00
  P       21                -0.24       -0.00
  P       22                -0.24       -0.00
  P       23                -0.16       -0.00
  P       24                -0.24       -0.00
  P       25                -0.16       -0.00
  P       26                -0.24       -0.00
  P       27                -0.24       -0.00
  P       28                -0.24       -0.00
  P       29                -0.24       -0.00
  P       30                -0.24       -0.00
  P       31                -0.24       -0.00
  P       32                -0.24       -0.00
  In       1                 0.24       -0.00
  In       2                 0.23        0.00
  In       3                 0.23        0.00
  In       4                 0.23        0.00
  In       5                 0.24       -0.00
  In       6                 0.23       -0.00
  In       7                 0.23       -0.00
  In       8                 0.18       -0.00
  In       9                 0.24       -0.00
  In      10                 0.18       -0.00
  In      11                 0.23       -0.00
  In      12                 0.23       -0.00
  In      13                 0.23        0.00
  In      14                 0.23        0.00
  In      15                 0.24       -0.00
  In      16                 0.23        0.00
  In      17                 0.24       -0.00
  In      18                 0.23       -0.00
  In      19                 0.18       -0.00
  In      20                 0.23       -0.00
  In      21                 0.23        0.00
  In      22                 0.24       -0.00
  In      23                 0.23        0.00
  In      24                 0.23        0.00
  In      25                 0.23        0.00
  In      26                 0.23        0.00
  In      27                 0.23        0.00
  In      28                 0.24       -0.00
  In      29                 0.24       -0.00
  In      30                 0.24       -0.00
  In      31                 0.24       -0.00
===================================================

 
 A BibTeX formatted list of references used in this run has been written to 
 In_Vacancy_Migration_3->60_Singlepoints_5.bib
 
Initialisation time =     30.04 s
Calculation time    =   8545.00 s
Finalisation time   =    154.58 s
Total time          =   8729.62 s
Peak Memory Use     = 9532944 kB
 
Overall parallel efficiency rating: Terrible (33%)
 
Data was distributed by:-
G-vector (3-way); efficiency rating: Poor (37%)
k-point (36-way); efficiency rating: Good (78%)
