 +-------------------------------------------------+
 |                                                 |
 |      CCC   AA    SSS  TTTTT  EEEEE  PPPP        |
 |     C     A  A  S       T    E      P   P       |
 |     C     AAAA   SS     T    EEE    PPPP        |
 |     C     A  A     S    T    E      P           |
 |      CCC  A  A  SSS     T    EEEEE  P           |
 |                                                 |
 +-------------------------------------------------+
 |                                                 |
 | Welcome to Academic Release CASTEP version 24.1 |
 | Ab Initio Total Energy Program                  |
 |                                                 |
 | Authors:                                        |
 | M. Segall, M. Probert, C. Pickard, P. Hasnip,   |
 | S. Clark, K. Refson, J. R. Yates,               |
 | A. Bartok-Partay, M. Payne                      |
 |                                                 |
 | Contributors:                                   |
 | P. Lindan, P. Haynes, J. White, V. Milman,      |
 | N. Govind, M. Gibson, P. Tulip, V. Cocula,      |
 | B. Montanari, D. Quigley, M. Glover,            |
 | L. Bernasconi, A. Perlov, M. Plummer,           |
 | E. McNellis, J. Meyer, J. Gale, D. Jochym       |
 | J. Aarons, B. Walker, R. Gillen, D. Jones       |
 | T. Green, I. J. Bush, C. J. Armstrong,          |
 | E. J. Higgins, E. L. Brown, M. S. McFly,        |
 | J. Wilkins, B-C. Shih, P. J. P. Byrne,          |
 | R. J. Maurer, J. C. Womack, J. Dziedzic,        |
 | L. LeBlanc, T. K. Stenczel, J. Kermode,         |
 | S. Sturniolo, B. Shi, B. Durham, M. Evans,      |
 | M. J. Smith, A. Tamerus, Z. Hawkhead,           |
 | V. Ravindran, T. Hollins, S. A. Joyce,          |
 | R. T. Strong, A. M. Reilly, S. J. Donaldson     |
 |                                                 |
 | Copyright (c) 2000 - 2023                       |
 |                                                 |
 |     Distributed under license from Cambridge    |
 |     Enterprise for academic use only.           |
 |                                                 |
 | Please cite                                     |
 |                                                 |
 |     "First principles methods using CASTEP"     |
 |                                                 |
 |         Zeitschrift fuer Kristallographie       |
 |           220(5-6) pp. 567-570 (2005)           |
 |                                                 |
 | S. J. Clark, M. D. Segall, C. J. Pickard,       |
 | P. J. Hasnip, M. J. Probert, K. Refson,         |
 | M. C. Payne                                     |
 |                                                 |
 |       in all publications arising from          |
 |              your use of CASTEP                 |
 |                                                 |
 +-------------------------------------------------+
 |                                                 |
 |              http://www.castep.org              |
 |                                                 |
 +-------------------------------------------------+



 Compiled for  GNU 11.2.0 on 04-04-2024 18:39:17
 from code version 6355fd106 Castep241_branch Thu Mar 7 17:56:19 2024 +0000
 Compiler: GNU Fortran 11.2.0; Optimisation: FAST
 Comms   : MPI VERSION : CRAY MPICH version 8.1.23.14 (ANL base 3.4a2)
 MATHLIBS: default (LAPACK version 3.10.1)
 FFT Lib : fftw3 version commercial-fftw-3.3.10-sse2-avx-avx2-avx2_128
 Fundamental constants values: CODATA 2018

 Run started: Sun, 19 Jan 2025 02:22:06 +0000

 Atomic calculation performed for P: 1s2 2s2 2p6 3s2 3p3

 Converged in 47 iterations to an ae energy of -9309.074 eV

   ============================================================                
   | Pseudopotential Report - Date of generation 19-01-2025   |                
   ------------------------------------------------------------                
   | Element: P Ionic charge:  5.00 Level of theory: RSCAN    |                
   | Atomic Solver: Koelling-Harmon                           |                
   |                                                          |                
   |               Reference Electronic Structure             |                
   |         Orbital         Occupation         Energy        |                
   |            3s              2.000           -0.535        |                
   |            3p              3.000           -0.209        |                
   |                                                          |                
   |                 Pseudopotential Definition               |                
   |        Beta     l      e      Rc     scheme   norm       |                
   |          1      0   -0.535   1.807     qc      0         |                
   |          2      0    0.250   1.807     qc      0         |                
   |          3      1   -0.209   1.807     qc      0         |                
   |          4      1    0.250   1.807     qc      0         |                
   |          5      2    0.000   1.807     qc      0         |                
   |          6      2    0.250   1.807     qc      0         |                
   |         loc     3    0.000   1.807     pn      0         |                
   |                                                          |                
   | Augmentation charge Rinner = 1.263                       |                
   | Partial core correction Rc = 1.263                       |                
   ------------------------------------------------------------                
   | "3|1.8|4|4|5|30:31:32"                                   |                
   ------------------------------------------------------------                
   |      Author: Chris J. Pickard, Cambridge University      |                
   ============================================================                
 Warning: otfg_output_psp cannot write out meta-GGA pseudopotentials presently.

 Atomic calculation performed for In:
 1s2 2s2 2p6 3s2 3p6 3d10 4s2 4p6 4d10 5s2 5p1

 Converged in 84 iterations to an ae energy of -160093.328 eV

   ============================================================                
   | Pseudopotential Report - Date of generation 19-01-2025   |                
   ------------------------------------------------------------                
   | Element: In Ionic charge: 13.00 Level of theory: RSCAN   |                
   | Atomic Solver: Koelling-Harmon                           |                
   |                                                          |                
   |               Reference Electronic Structure             |                
   |         Orbital         Occupation         Energy        |                
   |            4d             10.000           -0.711        |                
   |            5s              2.000           -0.313        |                
   |            5p              1.000           -0.095        |                
   |                                                          |                
   |                 Pseudopotential Definition               |                
   |        Beta     l      e      Rc     scheme   norm       |                
   |          1      0   -0.313   2.501     qc      0         |                
   |          2      0    0.250   2.501     qc      0         |                
   |          3      1   -0.095   2.501     qc      0         |                
   |          4      1    0.250   2.501     qc      0         |                
   |          5      2   -0.711   2.207     qc      0         |                
   |          6      2    0.250   2.207     qc      0         |                
   |         loc     3    0.000   2.501     pn      0         |                
   |                                                          |                
   | Augmentation charge Rinner = 1.504                       |                
   | Partial core correction Rc = 1.504                       |                
   ------------------------------------------------------------                
   | "3|2.5|2.5|1.5|7|8|9|50:51:42U2.2U2.2"                   |                
   ------------------------------------------------------------                
   |      Author: Chris J. Pickard, Cambridge University      |                
   ============================================================                
 Warning: otfg_output_psp cannot write out meta-GGA pseudopotentials presently.

 Pseudo atomic calculation performed for P 3s2 3p3

 Converged in 23 iterations to a total energy of -208.0292 eV

 Pseudo atomic calculation performed for In 4d10 5s2 5p1

 Converged in 42 iterations to a total energy of -1747.4501 eV
 Calculation parallelised over 80 processes.
 Data is distributed by G-vector(2-way) and k-point(40-way)
 Each process may use up to 16 threads.

 ************************************ Title ************************************
 

 ***************************** General Parameters ******************************
  
 output verbosity                               : normal  (1)
 write checkpoint data to                       : StackingFaultStructs_001_100_6.check
 type of calculation                            : geometry optimization
 stress calculation                             : off
 density difference calculation                 : off
 electron localisation func (ELF) calculation   : off
 Hirshfeld analysis                             : on
 polarisation (Berry phase) analysis            : off
 molecular orbital projected DOS                : off
 deltaSCF calculation                           : off
 unlimited duration calculation
 timing information                             : on
 memory usage estimate                          : on
 write extra output files                       : on
 write final potential to formatted file        : off
 write final density to formatted file          : off
 write BibTeX reference list                    : on
 write OTFG pseudopotential files               : on
 write electrostatic potential file             : on
 write bands file                               : on
 checkpoint writing                             : off
  
 output         length unit                     : A
 output           mass unit                     : amu
 output           time unit                     : ps
 output         charge unit                     : e
 output           spin unit                     : hbar/2
 output         energy unit                     : eV
 output          force unit                     : eV/A
 output       velocity unit                     : A/ps
 output       pressure unit                     : GPa
 output     inv_length unit                     : 1/A
 output      frequency unit                     : cm-1
 output force constant unit                     : eV/A**2
 output         volume unit                     : A**3
 output   IR intensity unit                     : (D/A)**2/amu
 output         dipole unit                     : D
 output         efield unit                     : eV/A/e
 output        entropy unit                     : J/mol/K
 output    efield chi2 unit                     : pm/V
  
 wavefunctions paging                           : none
 random number generator seed                   :   22206292
 data distribution                              : optimal for this architecture
 optimization strategy                          : balance speed and memory

 *********************** Exchange-Correlation Parameters ***********************
  
 using functional                               : RSCAN
 relativistic treatment                         : Koelling-Harmon
 DFT+D: Semi-empirical dispersion correction    : off

 ************************* Pseudopotential Parameters **************************
  
 pseudopotential representation                 : reciprocal space
 <beta|phi> representation                      : reciprocal space
 spin-orbit coupling                            : off

 **************************** Basis Set Parameters *****************************
  
 plane wave basis set cut-off                   :   900.0000   eV
 size of standard grid                          :     2.0000
 size of   fine   gmax                          :    30.7390   1/A
 finite basis set correction                    : none

 **************************** Electronic Parameters ****************************
  
 number of  electrons                           :  216.0    
 net charge of system                           :  0.000    
 treating system as non-spin-polarized
 number of bands                                :        130

 ********************* Electronic Minimization Parameters **********************
  
 Method: Treating system as metallic with density mixing treatment of electrons,
         and number of  SD  steps               :          1
         and number of  CG  steps               :          4
  
 total energy / atom convergence tol.           : 0.1000E-07   eV
 eigen-energy convergence tolerance             : 0.2222E-08   eV
 max force / atom convergence tol.              : ignored
 convergence tolerance window                   :          3   cycles
 max. number of SCF cycles                      :         50
 number of fixed-spin iterations                :         10
 smearing scheme                                : Gaussian
 smearing width                                 : 0.2000       eV
 Fermi energy convergence tolerance             : 0.2721E-13   eV
 periodic dipole correction                     : NONE

 ************************** Density Mixing Parameters **************************
  
 density-mixing scheme                          : Pulay
 max. length of mixing history                  :         15
 charge density mixing amplitude                : 0.5000    
 cut-off energy for mixing                      :  900.0       eV

 *********************** Population Analysis Parameters ************************
  
 Population analysis with cutoff                :  3.000       A
 Population analysis output                     : summary and pdos components

 ********************** Geometry Optimization Parameters ***********************
  
 optimization method                            : LBFGS
 max. no. of LBFGS updates                      : unbounded
 preconditioned LBFGS is activated
 preconditioner type                            : EXP
     stabilization constant                     :     0.1000
     parameter A                                :     3.0000
     nearest neighbor distance                  : automatic
     cut-off distance                           : automatic
     parameter mu                               : automatic
 variable cell method                           : fixed basis quality
 max. number of steps                           :         30
 estimated bulk modulus                         :  500.0       GPa
 estimated <frequency>                          :  1668.       cm-1
 geom line minimiser                            : on
 with line minimiser tolerance                  :     0.4000
 total energy convergence tolerance             : 0.2000E-04   eV/atom
        max ionic |force| tolerance             : 0.1000E-02   eV/A
 max ionic |displacement| tolerance             : 0.1000E-02   A
   max |stress component| tolerance             : 0.1000       GPa
 convergence tolerance window                   :          2   steps
 backup results every                           :          5   steps
 write geom trajectory file                     : on

 *******************************************************************************
  

                           -------------------------------
                                      Unit Cell
                           -------------------------------
        Real Lattice(A)                      Reciprocal Lattice(1/A)
     5.9012740     0.0000000     0.0000000        1.064716756   0.000000000   0.000000000
     0.0000000     5.9012740     0.0000000        0.000000000   1.064716756  -0.266179174
     0.0000000     4.4259550    17.7038210        0.000000000   0.000000000   0.354905605

                       Lattice parameters(A)       Cell Angles
                    a =      5.901274          alpha =   75.963757
                    b =      5.901274          beta  =   90.000000
                    c =     18.248681          gamma =   90.000000

                       Current cell volume =           616.536183       A**3
                                   density =             2.837629   AMU/A**3
                                           =             4.711994     g/cm^3

                           -------------------------------
                                     Cell Contents
                           -------------------------------
                         Total number of ions in cell =   24
                      Total number of species in cell =    2
                        Max number of any one species =   12

            xxxxxxxxxxxxxxxxxxxxxxxxxxxxxxxxxxxxxxxxxxxxxxxxxxxxxxxxxxxx
            x  Element    Atom        Fractional coordinates of atoms  x
            x            Number           u          v          w      x
            x----------------------------------------------------------x
            x  P            1         0.250000   0.072136   0.903818   x 
            x  P            2         0.250000  -0.306033   0.741378   x 
            x  P            3         0.750000   0.193967   0.741378   x 
            x  P            4         0.750000  -0.427864   0.903818   x 
            x  P            5         0.750000   0.057755   0.256327   x 
            x  P            6         0.750000   0.436582   0.417891   x 
            x  P            7         0.750000  -0.184653   0.579537   x 
            x  P            8         0.250000   0.557755   0.256327   x 
            x  P            9         0.250000   0.179833   0.093557   x 
            x  P           10         0.750000   0.679833   0.093557   x 
            x  P           11         0.250000  -0.063418   0.417891   x 
            x  P           12         0.250000   0.315347   0.579537   x 
            x  In           1         0.000000  -0.117458   0.823278   x 
            x  In           2         0.500000   0.004038   0.661283   x 
            x  In           3         0.500000  -0.617458   0.823278   x 
            x  In           4         0.500000  -0.131990   0.175987   x 
            x  In           5         0.500000   0.492226   0.010365   x 
            x  In           6         0.000000  -0.007774   0.010365   x 
            x  In           7         0.000000   0.368010   0.175987   x 
            x  In           8         0.000000  -0.495962   0.661283   x 
            x  In           9         0.500000  -0.374364   0.499153   x 
            x  In          10         0.500000   0.246930   0.337427   x 
            x  In          11         0.000000  -0.253070   0.337427   x 
            x  In          12         0.000000   0.125636   0.499153   x 
            xxxxxxxxxxxxxxxxxxxxxxxxxxxxxxxxxxxxxxxxxxxxxxxxxxxxxxxxxxxx


                         No user defined ionic velocities

                           -------------------------------
                                   Details of Species
                           -------------------------------

                               Mass of species in AMU
                                    P   30.9737600
                                    In  114.8180000

                          Electric Quadrupole Moment (Barn)
                                    P    1.0000000 No Isotope Defined
                                    In    0.7700000 Isotope115

                          Files used for pseudopotentials:
                                    P 3|1.8|4|4|5|30:31:32
                                    In 3|2.5|2.5|1.5|7|8|9|50:51:42U2.2U2.2

                           -------------------------------
                              k-Points For BZ Sampling
                           -------------------------------
                       MP grid size for SCF calculation is  6  6  2
                            with an offset of   0.083  0.083  0.250
                       Number of kpoints used =            40

                           -------------------------------
                               Symmetry and Constraints
                           -------------------------------

                      Cell is a supercell containing 2 primitive cells
                      Maximum deviation from symmetry =  0.00000         ANG

                      Number of symmetry operations   =           1
                      Number of ionic constraints     =          48
                      Point group of crystal =     1: C1, 1, 1
                      Space group of crystal =     1: P1, P 1

             Set iprint > 1 for details on symmetry rotations/translations

                         Centre of mass is NOT constrained
             Set iprint > 1 for details of linear ionic constraints

                         Number of cell constraints= 6
                         Cell constraints are:  0 0 0 0 0 0

                         External pressure/stress (GPa)
                          0.00000   0.00000   0.00000
                                    0.00000   0.00000
                                              0.00000
 
+---------------- MEMORY AND SCRATCH DISK ESTIMATES PER PROCESS --------------+
|                                                     Memory          Disk    |
| Baseline code, static data and system overhead      386.0 MB         0.0 MB |
| BLAS internal memory storage                          0.0 MB         0.0 MB |
| Model and support data                             2120.0 MB         0.0 MB |
| Electronic energy minimisation requirements         259.3 MB         0.0 MB |
| Force calculation requirements                       47.0 MB         0.0 MB |
|                                               ----------------------------- |
| Approx. total storage required per process         2765.4 MB         0.0 MB |
|                                                                             |
| Requirements will fluctuate during execution and may exceed these estimates |
+-----------------------------------------------------------------------------+
Calculating approximate eigenstates for fixed initial Hamiltonian
Cut-off for approx. calculation is   89.988 eV
Improving approx. states at cut-off of  450.000 eV
Resetting cut-off to  900.000 eV
Calculating total energy with cut-off of  900.000 eV.
------------------------------------------------------------------------ <-- SCF
SCF loop      Energy           Fermi           Energy gain       Timer   <-- SCF
                               energy          per atom          (sec)   <-- SCF
------------------------------------------------------------------------ <-- SCF
Initial  -2.36375401E+004  0.00000000E+000                        67.08  <-- SCF
      1  -2.35492161E+004  2.76093017E+000  -3.68016926E+000     105.30  <-- SCF
      2  -2.35492904E+004  2.76022597E+000   3.09820899E-003     134.63  <-- SCF
      3  -2.35735947E+004  3.23028040E+000   1.01267615E+000     166.88  <-- SCF
      4  -2.35780058E+004  3.31719127E+000   1.83798195E-001     209.54  <-- SCF
      5  -2.35754200E+004  3.61544802E+000  -1.07742797E-001     245.38  <-- SCF
      6  -2.35760402E+004  3.66345954E+000   2.58416831E-002     280.86  <-- SCF
      7  -2.35758285E+004  3.73390760E+000  -8.81941372E-003     317.05  <-- SCF
      8  -2.35764045E+004  3.75458879E+000   2.39991321E-002     355.30  <-- SCF
      9  -2.35764171E+004  3.72853264E+000   5.23395521E-004     390.33  <-- SCF
     10  -2.35764408E+004  3.71740121E+000   9.87147293E-004     427.07  <-- SCF
     11  -2.35764452E+004  3.72581636E+000   1.85013968E-004     465.89  <-- SCF
     12  -2.35764480E+004  3.71865535E+000   1.17575758E-004     500.58  <-- SCF
     13  -2.35764481E+004  3.72602837E+000   4.97126328E-006     538.29  <-- SCF
     14  -2.35764482E+004  3.72591236E+000   1.01234170E-006     572.76  <-- SCF
     15  -2.35764482E+004  3.72522242E+000  -9.27064944E-008     605.59  <-- SCF
     16  -2.35764482E+004  3.72514368E+000   7.74173951E-008     635.86  <-- SCF
     17  -2.35764482E+004  3.72514521E+000  -4.41865836E-010     664.14  <-- SCF
     18  -2.35764482E+004  3.72518309E+000   8.19488401E-009     691.47  <-- SCF
------------------------------------------------------------------------ <-- SCF
 
Final energy, E             =  -23576.44052042     eV
Final free energy (E-TS)    =  -23576.44817211     eV
(energies not corrected for finite basis set)
 
NB est. 0K energy (E-0.5TS)      =  -23576.44434627     eV
 
 
+---------------- MEMORY AND SCRATCH DISK ESTIMATES PER PROCESS --------------+
|                                                     Memory          Disk    |
| Model and support data                             1265.4 MB         0.0 MB |
| Electronic energy minimisation requirements         259.3 MB         0.0 MB |
| Geometry minimisation requirements                  302.5 MB         0.0 MB |
|                                               ----------------------------- |
| Approx. total storage required per process         1827.2 MB         0.0 MB |
|                                                                             |
| Requirements will fluctuate during execution and may exceed these estimates |
+-----------------------------------------------------------------------------+
 

 ******************************** Constrained Forces ********************************
 *                                                                                  *
 *                           Cartesian components (eV/A)                            *
 * -------------------------------------------------------------------------------- *
 *                         x                    y                    z              *
 *                                                                                  *
 * P               1      0.00000(cons'd)      0.00000(cons'd)      0.02237         *
 * P               2      0.00000(cons'd)      0.00000(cons'd)     -0.00332         *
 * P               3      0.00000(cons'd)      0.00000(cons'd)     -0.00332         *
 * P               4      0.00000(cons'd)      0.00000(cons'd)      0.02237         *
 * P               5      0.00000(cons'd)      0.00000(cons'd)     -0.07398         *
 * P               6      0.00000(cons'd)      0.00000(cons'd)     -0.05761         *
 * P               7      0.00000(cons'd)      0.00000(cons'd)     -0.00792         *
 * P               8      0.00000(cons'd)     -0.00000(cons'd)     -0.07398         *
 * P               9      0.00000(cons'd)      0.00000(cons'd)     -0.06646         *
 * P              10      0.00000(cons'd)     -0.00000(cons'd)     -0.06646         *
 * P              11      0.00000(cons'd)      0.00000(cons'd)     -0.05761         *
 * P              12      0.00000(cons'd)      0.00000(cons'd)     -0.00792         *
 * In              1      0.00000(cons'd)      0.00000(cons'd)      0.02218         *
 * In              2      0.00000(cons'd)      0.00000(cons'd)     -0.02647         *
 * In              3      0.00000(cons'd)      0.00000(cons'd)      0.02218         *
 * In              4      0.00000(cons'd)      0.00000(cons'd)      0.01277         *
 * In              5      0.00000(cons'd)      0.00000(cons'd)      0.04044         *
 * In              6      0.00000(cons'd)      0.00000(cons'd)      0.04044         *
 * In              7      0.00000(cons'd)      0.00000(cons'd)      0.01277         *
 * In              8      0.00000(cons'd)      0.00000(cons'd)     -0.02647         *
 * In              9      0.00000(cons'd)      0.00000(cons'd)      0.05971         *
 * In             10      0.00000(cons'd)      0.00000(cons'd)      0.07832         *
 * In             11      0.00000(cons'd)      0.00000(cons'd)      0.07832         *
 * In             12      0.00000(cons'd)      0.00000(cons'd)      0.05971         *
 *                                                                                  *
 ************************************************************************************
 EXP precond LBFGS => estimated nearest neighbor distance :  2.546       A
 EXP precond LBFGS => estimated cutoff distance :  5.092       A

 ************************************** Forces **************************************
 *                                                                                  *
 *                           Cartesian components (eV/A)                            *
 * -------------------------------------------------------------------------------- *
 *                         x                    y                    z              *
 *                                                                                  *
 * P               1     -0.03321(cons'd)     -1.23619(cons'd)      0.02237         *
 * P               2     -0.22949(cons'd)     -0.15781(cons'd)     -0.00332         *
 * P               3     -0.22949(cons'd)     -0.15781(cons'd)     -0.00332         *
 * P               4     -0.03321(cons'd)     -1.23619(cons'd)      0.02237         *
 * P               5     -0.00142(cons'd)      0.06881(cons'd)     -0.07398         *
 * P               6     -0.00769(cons'd)      0.00623(cons'd)     -0.05761         *
 * P               7     -0.03434(cons'd)     -0.02280(cons'd)     -0.00792         *
 * P               8     -0.00142(cons'd)      0.06881(cons'd)     -0.07398         *
 * P               9      0.00888(cons'd)      0.46895(cons'd)     -0.06646         *
 * P              10      0.00888(cons'd)      0.46895(cons'd)     -0.06646         *
 * P              11     -0.00769(cons'd)      0.00623(cons'd)     -0.05761         *
 * P              12     -0.03434(cons'd)     -0.02280(cons'd)     -0.00792         *
 * In              1      0.26179(cons'd)      0.37282(cons'd)      0.02218         *
 * In              2      0.03440(cons'd)      0.05703(cons'd)     -0.02647         *
 * In              3      0.26179(cons'd)      0.37282(cons'd)      0.02218         *
 * In              4      0.15390(cons'd)      0.03502(cons'd)      0.01277         *
 * In              5     -0.18819(cons'd)      0.39234(cons'd)      0.04044         *
 * In              6     -0.18819(cons'd)      0.39234(cons'd)      0.04044         *
 * In              7      0.15390(cons'd)      0.03502(cons'd)      0.01277         *
 * In              8      0.03440(cons'd)      0.05703(cons'd)     -0.02647         *
 * In              9      0.00976(cons'd)      0.00918(cons'd)      0.05971         *
 * In             10      0.02560(cons'd)      0.00642(cons'd)      0.07832         *
 * In             11      0.02560(cons'd)      0.00642(cons'd)      0.07832         *
 * In             12      0.00976(cons'd)      0.00918(cons'd)      0.05971         *
 *                                                                                  *
 ************************************************************************************
 doing test perturbation to get energy scale for EXP preconditioner

                           -------------------------------
                                     Cell Contents
                           -------------------------------

            xxxxxxxxxxxxxxxxxxxxxxxxxxxxxxxxxxxxxxxxxxxxxxxxxxxxxxxxxxxxxxxxx
            x  Element         Atom        Fractional coordinates of atoms  x
            x                 Number           u          v          w      x
            x---------------------------------------------------------------x
            x  P                 1         0.251412   0.073658   0.905038   x
            x  P                 2         0.251412   0.696801   0.742439   x
            x  P                 3         0.753630   0.195607   0.742439   x
            x  P                 4         0.753630   0.574852   0.905038   x
            x  P                 5         0.753630   0.058307   0.256734   x
            x  P                 6         0.753630   0.438532   0.418539   x
            x  P                 7         0.753630   0.818326   0.580406   x
            x  P                 8         0.251412   0.559886   0.256734   x
            x  P                 9         0.251412   0.180577   0.093707   x
            x  P                10         0.753630   0.682156   0.093707   x
            x  P                11         0.251412   0.939726   0.418539   x
            x  P                12         0.251412   0.317132   0.580406   x
            x  In                1         0.000000   0.885704   0.824424   x
            x  In                2         0.502668   0.004991   0.662253   x
            x  In                3         0.502668   0.384777   0.824424   x
            x  In                4         0.502668   0.870894   0.176268   x
            x  In                5         0.502668   0.493894   0.010382   x
            x  In                6         0.000000   0.995309   0.010382   x
            x  In                7         0.000000   0.369479   0.176268   x
            x  In                8         0.000000   0.506406   0.662253   x
            x  In                9         0.502668   0.628159   0.499915   x
            x  In               10         0.502668   0.248212   0.337958   x
            x  In               11         0.000000   0.749627   0.337958   x
            x  In               12         0.000000   0.126744   0.499915   x
            xxxxxxxxxxxxxxxxxxxxxxxxxxxxxxxxxxxxxxxxxxxxxxxxxxxxxxxxxxxxxxxxx


------------------------------------------------------------------------ <-- SCF
SCF loop      Energy           Fermi           Energy gain       Timer   <-- SCF
                               energy          per atom          (sec)   <-- SCF
------------------------------------------------------------------------ <-- SCF
Initial  -2.35752981E+004  0.00000000E+000                       733.77  <-- SCF
      1  -2.35762983E+004  3.70794745E+000   4.16745429E-002     765.74  <-- SCF
      2  -2.35764173E+004  3.70786437E+000   4.95722351E-003     805.21  <-- SCF
      3  -2.35764182E+004  3.70704915E+000   3.91804051E-005     840.70  <-- SCF
      4  -2.35764191E+004  3.70582103E+000   3.51736513E-005     876.75  <-- SCF
      5  -2.35764192E+004  3.70526942E+000   5.67063545E-006     915.79  <-- SCF
      6  -2.35764193E+004  3.70483342E+000   9.72160524E-007     953.80  <-- SCF
      7  -2.35764193E+004  3.70461609E+000  -1.58214523E-008     987.28  <-- SCF
      8  -2.35764193E+004  3.70443850E+000  -5.09695078E-008    1018.00  <-- SCF
      9  -2.35764193E+004  3.70435925E+000  -1.01095500E-008    1048.03  <-- SCF
     10  -2.35764193E+004  3.70432810E+000  -1.18329299E-010    1074.51  <-- SCF
     11  -2.35764193E+004  3.70432391E+000   5.51687800E-010    1101.20  <-- SCF
------------------------------------------------------------------------ <-- SCF
 
Final energy, E             =  -23576.41220762     eV
Final free energy (E-TS)    =  -23576.41925158     eV
(energies not corrected for finite basis set)
 
NB est. 0K energy (E-0.5TS)      =  -23576.41572960     eV
 

 ************************************** Forces **************************************
 *                                                                                  *
 *                           Cartesian components (eV/A)                            *
 * -------------------------------------------------------------------------------- *
 *                         x                    y                    z              *
 *                                                                                  *
 * P               1      0.07943(cons'd)     -1.21614(cons'd)     -0.11232         *
 * P               2     -0.23047(cons'd)     -0.20990(cons'd)      0.01919         *
 * P               3     -0.39648(cons'd)     -0.12271(cons'd)     -0.03473         *
 * P               4     -0.00974(cons'd)     -1.30725(cons'd)     -0.09811         *
 * P               5     -0.14860(cons'd)      0.16895(cons'd)     -0.06824         *
 * P               6     -0.14329(cons'd)      0.00990(cons'd)     -0.05131         *
 * P               7     -0.17506(cons'd)     -0.10428(cons'd)     -0.00399         *
 * P               8      0.02750(cons'd)      0.05678(cons'd)     -0.07018         *
 * P               9      0.03421(cons'd)      0.56891(cons'd)     -0.04225         *
 * P              10     -0.12824(cons'd)      0.46899(cons'd)     -0.04628         *
 * P              11      0.01382(cons'd)     -0.06953(cons'd)     -0.05306         *
 * P              12     -0.00754(cons'd)     -0.00933(cons'd)     -0.00621         *
 * In              1      0.40574(cons'd)      0.32615(cons'd)     -0.00692         *
 * In              2     -0.01787(cons'd)      0.13548(cons'd)     -0.02918         *
 * In              3      0.22206(cons'd)      0.36891(cons'd)     -0.01433         *
 * In              4      0.10136(cons'd)     -0.05849(cons'd)      0.01149         *
 * In              5     -0.31268(cons'd)      0.39983(cons'd)      0.23111         *
 * In              6     -0.20247(cons'd)      0.38945(cons'd)      0.13481         *
 * In              7      0.31874(cons'd)      0.06437(cons'd)      0.01206         *
 * In              8      0.20472(cons'd)      0.04501(cons'd)     -0.03026         *
 * In              9     -0.04552(cons'd)     -0.01664(cons'd)      0.05694         *
 * In             10      0.00228(cons'd)      0.06261(cons'd)      0.04414         *
 * In             11      0.22663(cons'd)     -0.05405(cons'd)      0.10682         *
 * In             12      0.18148(cons'd)      0.10296(cons'd)      0.05080         *
 *                                                                                  *
 ************************************************************************************
 EXP precond LBFGS => estimated parameter mu :  2.068       eV/A**2
 LBFGS: finished iteration     0 with enthalpy= -2.35764482E+004 eV
  
 +-----------+-----------------+-----------------+------------+-----+ <-- LBFGS
 | Parameter |      value      |    tolerance    |    units   | OK? | <-- LBFGS
 +-----------+-----------------+-----------------+------------+-----+ <-- LBFGS
 |  dE/ion   |   0.000000E+000 |   2.000000E-005 |         eV | No  | <-- LBFGS
 |  |F|max   |   1.310960E+000 |   1.000000E-003 |       eV/A | No  | <-- LBFGS
 |  |dR|max  |   9.400076E-016 |   1.000000E-003 |          A | No  | <-- LBFGS
 +-----------+-----------------+-----------------+------------+-----+ <-- LBFGS
  

================================================================================
 Starting LBFGS iteration          1 ...
================================================================================
  
 +------------+-------------+-------------+-----------------+ <-- min LBFGS
 |    Step    |   lambda    |   F.delta'  |    enthalpy     | <-- min LBFGS
 +------------+-------------+-------------+-----------------+ <-- min LBFGS
 |  previous  |    0.000000 |    0.094649 |   -23576.448172 | <-- min LBFGS
 +------------+-------------+-------------+-----------------+ <-- min LBFGS
  

--------------------------------------------------------------------------------
 LBFGS: starting iteration         1 with trial guess (lambda=  1.000000)
--------------------------------------------------------------------------------

                           -------------------------------
                                     Cell Contents
                           -------------------------------

            xxxxxxxxxxxxxxxxxxxxxxxxxxxxxxxxxxxxxxxxxxxxxxxxxxxxxxxxxxxxxxxxx
            x  Element         Atom        Fractional coordinates of atoms  x
            x                 Number           u          v          w      x
            x---------------------------------------------------------------x
            x  P                 1         0.250000   0.071915   0.904114   x
            x  P                 2         0.250000  -0.306126   0.741501   x
            x  P                 3         0.750000   0.193874   0.741501   x
            x  P                 4         0.750000  -0.428085   0.904114   x
            x  P                 5         0.750000   0.058108   0.255855   x
            x  P                 6         0.750000   0.436709   0.417721   x
            x  P                 7         0.750000  -0.184705   0.579606   x
            x  P                 8         0.250000   0.558108   0.255855   x
            x  P                 9         0.250000   0.180148   0.093135   x
            x  P                10         0.750000   0.680148   0.093135   x
            x  P                11         0.250000  -0.063291   0.417721   x
            x  P                12         0.250000   0.315295   0.579606   x
            x  In                1         0.000000  -0.117681   0.823574   x
            x  In                2         0.500000   0.004057   0.661257   x
            x  In                3         0.500000  -0.617681   0.823574   x
            x  In                4         0.500000  -0.131782   0.175709   x
            x  In                5         0.500000   0.492113   0.010516   x
            x  In                6         0.000000  -0.007887   0.010516   x
            x  In                7         0.000000   0.368218   0.175709   x
            x  In                8         0.000000  -0.495943   0.661257   x
            x  In                9         0.500000  -0.374573   0.499431   x
            x  In               10         0.500000   0.246815   0.337581   x
            x  In               11         0.000000  -0.253185   0.337581   x
            x  In               12         0.000000   0.125427   0.499431   x
            xxxxxxxxxxxxxxxxxxxxxxxxxxxxxxxxxxxxxxxxxxxxxxxxxxxxxxxxxxxxxxxxx


------------------------------------------------------------------------ <-- SCF
SCF loop      Energy           Fermi           Energy gain       Timer   <-- SCF
                               energy          per atom          (sec)   <-- SCF
------------------------------------------------------------------------ <-- SCF
Initial  -2.35756277E+004  0.00000000E+000                      1127.25  <-- SCF
      1  -2.35763380E+004  3.71865690E+000   2.95944662E-002    1164.49  <-- SCF
      2  -2.35764483E+004  3.71858638E+000   4.59490035E-003    1205.37  <-- SCF
      3  -2.35764493E+004  3.72086177E+000   4.08414032E-005    1242.43  <-- SCF
      4  -2.35764501E+004  3.72382474E+000   3.59726928E-005    1278.96  <-- SCF
      5  -2.35764502E+004  3.72505366E+000   5.17459503E-006    1318.68  <-- SCF
      6  -2.35764503E+004  3.72587208E+000   6.03945654E-007    1360.11  <-- SCF
      7  -2.35764503E+004  3.72653776E+000  -3.49104946E-008    1391.96  <-- SCF
      8  -2.35764503E+004  3.72719181E+000  -7.49832661E-008    1425.10  <-- SCF
      9  -2.35764503E+004  3.72741961E+000  -8.56869117E-009    1454.80  <-- SCF
     10  -2.35764503E+004  3.72756504E+000  -1.18935125E-009    1481.47  <-- SCF
     11  -2.35764503E+004  3.72758608E+000   5.49754315E-010    1507.76  <-- SCF
------------------------------------------------------------------------ <-- SCF
 
Final energy, E             =  -23576.44264303     eV
Final free energy (E-TS)    =  -23576.45025877     eV
(energies not corrected for finite basis set)
 
NB est. 0K energy (E-0.5TS)      =  -23576.44645090     eV
 

 ******************************** Constrained Forces ********************************
 *                                                                                  *
 *                           Cartesian components (eV/A)                            *
 * -------------------------------------------------------------------------------- *
 *                         x                    y                    z              *
 *                                                                                  *
 * P               1      0.00000(cons'd)      0.00000(cons'd)     -0.01069         *
 * P               2      0.00000(cons'd)      0.00000(cons'd)     -0.00890         *
 * P               3      0.00000(cons'd)      0.00000(cons'd)     -0.00890         *
 * P               4      0.00000(cons'd)      0.00000(cons'd)     -0.01069         *
 * P               5      0.00000(cons'd)      0.00000(cons'd)     -0.00523         *
 * P               6      0.00000(cons'd)      0.00000(cons'd)      0.00642         *
 * P               7      0.00000(cons'd)      0.00000(cons'd)     -0.00598         *
 * P               8      0.00000(cons'd)      0.00000(cons'd)     -0.00523         *
 * P               9     -0.00000(cons'd)     -0.00000(cons'd)     -0.00560         *
 * P              10     -0.00000(cons'd)     -0.00000(cons'd)     -0.00560         *
 * P              11      0.00000(cons'd)     -0.00000(cons'd)      0.00642         *
 * P              12      0.00000(cons'd)      0.00000(cons'd)     -0.00598         *
 * In              1      0.00000(cons'd)      0.00000(cons'd)      0.00634         *
 * In              2      0.00000(cons'd)      0.00000(cons'd)      0.01360         *
 * In              3      0.00000(cons'd)      0.00000(cons'd)      0.00635         *
 * In              4      0.00000(cons'd)      0.00000(cons'd)      0.00235         *
 * In              5      0.00000(cons'd)      0.00000(cons'd)      0.01265         *
 * In              6      0.00000(cons'd)      0.00000(cons'd)      0.01260         *
 * In              7      0.00000(cons'd)      0.00000(cons'd)      0.00235         *
 * In              8      0.00000(cons'd)      0.00000(cons'd)      0.01359         *
 * In              9      0.00000(cons'd)      0.00000(cons'd)      0.00113         *
 * In             10      0.00000(cons'd)      0.00000(cons'd)     -0.00605         *
 * In             11      0.00000(cons'd)      0.00000(cons'd)     -0.00606         *
 * In             12      0.00000(cons'd)      0.00000(cons'd)      0.00113         *
 *                                                                                  *
 ************************************************************************************
  
 +------------+-------------+-------------+-----------------+ <-- min LBFGS
 |    Step    |   lambda    |   F.delta'  |    enthalpy     | <-- min LBFGS
 +------------+-------------+-------------+-----------------+ <-- min LBFGS
 |  previous  |    0.000000 |    0.094649 |   -23576.448172 | <-- min LBFGS
 | trial step |    1.000000 |    0.001000 |   -23576.450259 | <-- min LBFGS
 +------------+-------------+-------------+-----------------+ <-- min LBFGS
  
 LBFGS: finished iteration     1 with enthalpy= -2.35764503E+004 eV
  
 +-----------+-----------------+-----------------+------------+-----+ <-- LBFGS
 | Parameter |      value      |    tolerance    |    units   | OK? | <-- LBFGS
 +-----------+-----------------+-----------------+------------+-----+ <-- LBFGS
 |  dE/ion   |   8.694400E-005 |   2.000000E-005 |         eV | No  | <-- LBFGS
 |  |F|max   |   1.359710E-002 |   1.000000E-003 |       eV/A | No  | <-- LBFGS
 |  |dR|max  |   8.351873E-003 |   1.000000E-003 |          A | No  | <-- LBFGS
 +-----------+-----------------+-----------------+------------+-----+ <-- LBFGS
  

================================================================================
 Starting LBFGS iteration          2 ...
================================================================================
  
 +------------+-------------+-------------+-----------------+ <-- min LBFGS
 |    Step    |   lambda    |   F.delta'  |    enthalpy     | <-- min LBFGS
 +------------+-------------+-------------+-----------------+ <-- min LBFGS
 |  previous  |    0.000000 |    0.016851 |   -23576.450259 | <-- min LBFGS
 +------------+-------------+-------------+-----------------+ <-- min LBFGS
  

--------------------------------------------------------------------------------
 LBFGS: starting iteration         2 with trial guess (lambda=  1.000000)
--------------------------------------------------------------------------------

                           -------------------------------
                                     Cell Contents
                           -------------------------------

            xxxxxxxxxxxxxxxxxxxxxxxxxxxxxxxxxxxxxxxxxxxxxxxxxxxxxxxxxxxxxxxxx
            x  Element         Atom        Fractional coordinates of atoms  x
            x                 Number           u          v          w      x
            x---------------------------------------------------------------x
            x  P                 1         0.250000   0.071938   0.904083   x
            x  P                 2         0.250000  -0.306119   0.741492   x
            x  P                 3         0.750000   0.193881   0.741492   x
            x  P                 4         0.750000  -0.428062   0.904083   x
            x  P                 5         0.750000   0.058156   0.255791   x
            x  P                 6         0.750000   0.436697   0.417737   x
            x  P                 7         0.750000  -0.184707   0.579610   x
            x  P                 8         0.250000   0.558156   0.255791   x
            x  P                 9         0.250000   0.180174   0.093102   x
            x  P                10         0.750000   0.680174   0.093102   x
            x  P                11         0.250000  -0.063303   0.417737   x
            x  P                12         0.250000   0.315293   0.579610   x
            x  In                1         0.000000  -0.117703   0.823605   x
            x  In                2         0.500000   0.004004   0.661327   x
            x  In                3         0.500000  -0.617704   0.823605   x
            x  In                4         0.500000  -0.131764   0.175685   x
            x  In                5         0.500000   0.492068   0.010576   x
            x  In                6         0.000000  -0.007932   0.010575   x
            x  In                7         0.000000   0.368236   0.175685   x
            x  In                8         0.000000  -0.495996   0.661327   x
            x  In                9         0.500000  -0.374590   0.499453   x
            x  In               10         0.500000   0.246846   0.337539   x
            x  In               11         0.000000  -0.253154   0.337539   x
            x  In               12         0.000000   0.125410   0.499453   x
            xxxxxxxxxxxxxxxxxxxxxxxxxxxxxxxxxxxxxxxxxxxxxxxxxxxxxxxxxxxxxxxxx


------------------------------------------------------------------------ <-- SCF
SCF loop      Energy           Fermi           Energy gain       Timer   <-- SCF
                               energy          per atom          (sec)   <-- SCF
------------------------------------------------------------------------ <-- SCF
Initial  -2.35764433E+004  0.00000000E+000                      1533.09  <-- SCF
      1  -2.35764502E+004  3.72790974E+000   2.84337465E-004    1567.73  <-- SCF
      2  -2.35764503E+004  3.72790969E+000   5.64896315E-006    1611.74  <-- SCF
      3  -2.35764503E+004  3.72796608E+000   1.46416395E-009    1647.21  <-- SCF
      4  -2.35764503E+004  3.72789642E+000  -1.89628502E-008    1675.86  <-- SCF
      5  -2.35764503E+004  3.72782564E+000  -1.35349126E-008    1705.98  <-- SCF
      6  -2.35764503E+004  3.72774851E+000  -1.14417214E-008    1736.18  <-- SCF
      7  -2.35764503E+004  3.72769942E+000  -3.40744556E-009    1763.70  <-- SCF
      8  -2.35764503E+004  3.72766705E+000  -3.92368613E-010    1790.31  <-- SCF
------------------------------------------------------------------------ <-- SCF
 
Final energy, E             =  -23576.44261538     eV
Final free energy (E-TS)    =  -23576.45030466     eV
(energies not corrected for finite basis set)
 
NB est. 0K energy (E-0.5TS)      =  -23576.44646002     eV
 

 ******************************** Constrained Forces ********************************
 *                                                                                  *
 *                           Cartesian components (eV/A)                            *
 * -------------------------------------------------------------------------------- *
 *                         x                    y                    z              *
 *                                                                                  *
 * P               1      0.00000(cons'd)      0.00000(cons'd)      0.00414         *
 * P               2      0.00000(cons'd)      0.00000(cons'd)      0.00045         *
 * P               3      0.00000(cons'd)      0.00000(cons'd)      0.00044         *
 * P               4      0.00000(cons'd)      0.00000(cons'd)      0.00416         *
 * P               5      0.00000(cons'd)     -0.00000(cons'd)     -0.00024         *
 * P               6      0.00000(cons'd)      0.00000(cons'd)     -0.00083         *
 * P               7      0.00000(cons'd)      0.00000(cons'd)      0.00037         *
 * P               8      0.00000(cons'd)      0.00000(cons'd)     -0.00024         *
 * P               9     -0.00000(cons'd)      0.00000(cons'd)      0.00202         *
 * P              10     -0.00000(cons'd)     -0.00000(cons'd)      0.00202         *
 * P              11      0.00000(cons'd)      0.00000(cons'd)     -0.00083         *
 * P              12      0.00000(cons'd)      0.00000(cons'd)      0.00037         *
 * In              1      0.00000(cons'd)      0.00000(cons'd)     -0.00010         *
 * In              2      0.00000(cons'd)      0.00000(cons'd)      0.00012         *
 * In              3      0.00000(cons'd)      0.00000(cons'd)     -0.00011         *
 * In              4      0.00000(cons'd)      0.00000(cons'd)      0.00016         *
 * In              5      0.00000(cons'd)      0.00000(cons'd)     -0.00669         *
 * In              6      0.00000(cons'd)      0.00000(cons'd)     -0.00664         *
 * In              7      0.00000(cons'd)      0.00000(cons'd)      0.00016         *
 * In              8      0.00000(cons'd)      0.00000(cons'd)      0.00013         *
 * In              9      0.00000(cons'd)      0.00000(cons'd)      0.00025         *
 * In             10      0.00000(cons'd)      0.00000(cons'd)      0.00031         *
 * In             11      0.00000(cons'd)      0.00000(cons'd)      0.00032         *
 * In             12      0.00000(cons'd)      0.00000(cons'd)      0.00025         *
 *                                                                                  *
 ************************************************************************************
  
 +------------+-------------+-------------+-----------------+ <-- min LBFGS
 |    Step    |   lambda    |   F.delta'  |    enthalpy     | <-- min LBFGS
 +------------+-------------+-------------+-----------------+ <-- min LBFGS
 |  previous  |    0.000000 |    0.016851 |   -23576.450259 | <-- min LBFGS
 | trial step |    1.000000 |   -0.003223 |   -23576.450305 | <-- min LBFGS
 +------------+-------------+-------------+-----------------+ <-- min LBFGS
  
 LBFGS: finished iteration     2 with enthalpy= -2.35764503E+004 eV
  
 +-----------+-----------------+-----------------+------------+-----+ <-- LBFGS
 | Parameter |      value      |    tolerance    |    units   | OK? | <-- LBFGS
 +-----------+-----------------+-----------------+------------+-----+ <-- LBFGS
 |  dE/ion   |   1.912243E-006 |   2.000000E-005 |         eV | Yes | <-- LBFGS
 |  |F|max   |   6.691018E-003 |   1.000000E-003 |       eV/A | No  | <-- LBFGS
 |  |dR|max  |   1.251719E-003 |   1.000000E-003 |          A | No  | <-- LBFGS
 +-----------+-----------------+-----------------+------------+-----+ <-- LBFGS
  

================================================================================
 Starting LBFGS iteration          3 ...
================================================================================
  
 +------------+-------------+-------------+-----------------+ <-- min LBFGS
 |    Step    |   lambda    |   F.delta'  |    enthalpy     | <-- min LBFGS
 +------------+-------------+-------------+-----------------+ <-- min LBFGS
 |  previous  |    0.000000 |    0.004754 |   -23576.450305 | <-- min LBFGS
 +------------+-------------+-------------+-----------------+ <-- min LBFGS
  

--------------------------------------------------------------------------------
 LBFGS: starting iteration         3 with trial guess (lambda=  1.000000)
--------------------------------------------------------------------------------

                           -------------------------------
                                     Cell Contents
                           -------------------------------

            xxxxxxxxxxxxxxxxxxxxxxxxxxxxxxxxxxxxxxxxxxxxxxxxxxxxxxxxxxxxxxxxx
            x  Element         Atom        Fractional coordinates of atoms  x
            x                 Number           u          v          w      x
            x---------------------------------------------------------------x
            x  P                 1         0.250000   0.071928   0.904096   x
            x  P                 2         0.250000  -0.306126   0.741501   x
            x  P                 3         0.750000   0.193874   0.741501   x
            x  P                 4         0.750000  -0.428072   0.904096   x
            x  P                 5         0.750000   0.058161   0.255785   x
            x  P                 6         0.750000   0.436699   0.417735   x
            x  P                 7         0.750000  -0.184712   0.579616   x
            x  P                 8         0.250000   0.558161   0.255785   x
            x  P                 9         0.250000   0.180177   0.093097   x
            x  P                10         0.750000   0.680177   0.093097   x
            x  P                11         0.250000  -0.063301   0.417735   x
            x  P                12         0.250000   0.315288   0.579616   x
            x  In                1         0.000000  -0.117710   0.823613   x
            x  In                2         0.500000   0.003996   0.661339   x
            x  In                3         0.500000  -0.617710   0.823613   x
            x  In                4         0.500000  -0.131760   0.175680   x
            x  In                5         0.500000   0.492090   0.010546   x
            x  In                6         0.000000  -0.007910   0.010546   x
            x  In                7         0.000000   0.368240   0.175680   x
            x  In                8         0.000000  -0.496004   0.661339   x
            x  In                9         0.500000  -0.374592   0.499456   x
            x  In               10         0.500000   0.246849   0.337535   x
            x  In               11         0.000000  -0.253151   0.337535   x
            x  In               12         0.000000   0.125408   0.499456   x
            xxxxxxxxxxxxxxxxxxxxxxxxxxxxxxxxxxxxxxxxxxxxxxxxxxxxxxxxxxxxxxxxx


------------------------------------------------------------------------ <-- SCF
SCF loop      Energy           Fermi           Energy gain       Timer   <-- SCF
                               energy          per atom          (sec)   <-- SCF
------------------------------------------------------------------------ <-- SCF
Initial  -2.35764413E+004  0.00000000E+000                      1817.04  <-- SCF
      1  -2.35764503E+004  3.72722693E+000   3.74858365E-004    1851.75  <-- SCF
      2  -2.35764503E+004  3.72722692E+000   5.27464839E-007    1895.72  <-- SCF
      3  -2.35764503E+004  3.72715727E+000  -2.87058115E-010    1921.83  <-- SCF
      4  -2.35764503E+004  3.72710839E+000  -1.05001141E-009    1947.78  <-- SCF
------------------------------------------------------------------------ <-- SCF
 
Final energy, E             =  -23576.44265658     eV
Final free energy (E-TS)    =  -23576.45030807     eV
(energies not corrected for finite basis set)
 
NB est. 0K energy (E-0.5TS)      =  -23576.44648233     eV
 

 ******************************** Constrained Forces ********************************
 *                                                                                  *
 *                           Cartesian components (eV/A)                            *
 * -------------------------------------------------------------------------------- *
 *                         x                    y                    z              *
 *                                                                                  *
 * P               1      0.00000(cons'd)      0.00000(cons'd)     -0.00091         *
 * P               2      0.00000(cons'd)      0.00000(cons'd)      0.00091         *
 * P               3      0.00000(cons'd)      0.00000(cons'd)      0.00091         *
 * P               4      0.00000(cons'd)      0.00000(cons'd)     -0.00092         *
 * P               5      0.00000(cons'd)      0.00000(cons'd)     -0.00004         *
 * P               6      0.00000(cons'd)      0.00000(cons'd)     -0.00073         *
 * P               7      0.00000(cons'd)      0.00000(cons'd)      0.00051         *
 * P               8      0.00000(cons'd)     -0.00000(cons'd)     -0.00004         *
 * P               9     -0.00000(cons'd)      0.00000(cons'd)      0.00013         *
 * P              10     -0.00000(cons'd)      0.00000(cons'd)      0.00013         *
 * P              11      0.00000(cons'd)      0.00000(cons'd)     -0.00073         *
 * P              12      0.00000(cons'd)      0.00000(cons'd)      0.00051         *
 * In              1      0.00000(cons'd)      0.00000(cons'd)     -0.00084         *
 * In              2      0.00000(cons'd)      0.00000(cons'd)     -0.00126         *
 * In              3      0.00000(cons'd)     -0.00000(cons'd)     -0.00085         *
 * In              4      0.00000(cons'd)      0.00000(cons'd)     -0.00027         *
 * In              5      0.00000(cons'd)      0.00000(cons'd)      0.00215         *
 * In              6      0.00000(cons'd)     -0.00000(cons'd)      0.00215         *
 * In              7      0.00000(cons'd)      0.00000(cons'd)     -0.00027         *
 * In              8      0.00000(cons'd)      0.00000(cons'd)     -0.00126         *
 * In              9      0.00000(cons'd)      0.00000(cons'd)     -0.00011         *
 * In             10      0.00000(cons'd)      0.00000(cons'd)      0.00047         *
 * In             11      0.00000(cons'd)      0.00000(cons'd)      0.00047         *
 * In             12      0.00000(cons'd)      0.00000(cons'd)     -0.00011         *
 *                                                                                  *
 ************************************************************************************
  
 +------------+-------------+-------------+-----------------+ <-- min LBFGS
 |    Step    |   lambda    |   F.delta'  |    enthalpy     | <-- min LBFGS
 +------------+-------------+-------------+-----------------+ <-- min LBFGS
 |  previous  |    0.000000 |    0.004754 |   -23576.450305 | <-- min LBFGS
 | trial step |    1.000000 |   -0.001636 |   -23576.450308 | <-- min LBFGS
 +------------+-------------+-------------+-----------------+ <-- min LBFGS
  
 LBFGS: finished iteration     3 with enthalpy= -2.35764503E+004 eV
  
 +-----------+-----------------+-----------------+------------+-----+ <-- LBFGS
 | Parameter |      value      |    tolerance    |    units   | OK? | <-- LBFGS
 +-----------+-----------------+-----------------+------------+-----+ <-- LBFGS
 |  dE/ion   |   1.421564E-007 |   2.000000E-005 |         eV | Yes | <-- LBFGS
 |  |F|max   |   2.151206E-003 |   1.000000E-003 |       eV/A | No  | <-- LBFGS
 |  |dR|max  |   5.257847E-004 |   1.000000E-003 |          A | Yes | <-- LBFGS
 +-----------+-----------------+-----------------+------------+-----+ <-- LBFGS
  

================================================================================
 Starting LBFGS iteration          4 ...
================================================================================
  
 +------------+-------------+-------------+-----------------+ <-- min LBFGS
 |    Step    |   lambda    |   F.delta'  |    enthalpy     | <-- min LBFGS
 +------------+-------------+-------------+-----------------+ <-- min LBFGS
 |  previous  |    0.000000 |    0.001634 |   -23576.450308 | <-- min LBFGS
 +------------+-------------+-------------+-----------------+ <-- min LBFGS
  

--------------------------------------------------------------------------------
 LBFGS: starting iteration         4 with trial guess (lambda=  1.000000)
--------------------------------------------------------------------------------

                           -------------------------------
                                     Cell Contents
                           -------------------------------

            xxxxxxxxxxxxxxxxxxxxxxxxxxxxxxxxxxxxxxxxxxxxxxxxxxxxxxxxxxxxxxxxx
            x  Element         Atom        Fractional coordinates of atoms  x
            x                 Number           u          v          w      x
            x---------------------------------------------------------------x
            x  P                 1         0.250000   0.071929   0.904095   x
            x  P                 2         0.250000  -0.306125   0.741501   x
            x  P                 3         0.750000   0.193875   0.741501   x
            x  P                 4         0.750000  -0.428071   0.904095   x
            x  P                 5         0.750000   0.058159   0.255788   x
            x  P                 6         0.750000   0.436702   0.417731   x
            x  P                 7         0.750000  -0.184711   0.579614   x
            x  P                 8         0.250000   0.558159   0.255788   x
            x  P                 9         0.250000   0.180172   0.093104   x
            x  P                10         0.750000   0.680172   0.093104   x
            x  P                11         0.250000  -0.063298   0.417731   x
            x  P                12         0.250000   0.315289   0.579614   x
            x  In                1         0.000000  -0.117706   0.823609   x
            x  In                2         0.500000   0.004002   0.661331   x
            x  In                3         0.500000  -0.617707   0.823609   x
            x  In                4         0.500000  -0.131762   0.175683   x
            x  In                5         0.500000   0.492083   0.010555   x
            x  In                6         0.000000  -0.007917   0.010555   x
            x  In                7         0.000000   0.368238   0.175683   x
            x  In                8         0.000000  -0.495998   0.661331   x
            x  In                9         0.500000  -0.374589   0.499452   x
            x  In               10         0.500000   0.246848   0.337536   x
            x  In               11         0.000000  -0.253152   0.337536   x
            x  In               12         0.000000   0.125411   0.499452   x
            xxxxxxxxxxxxxxxxxxxxxxxxxxxxxxxxxxxxxxxxxxxxxxxxxxxxxxxxxxxxxxxxx


------------------------------------------------------------------------ <-- SCF
SCF loop      Energy           Fermi           Energy gain       Timer   <-- SCF
                               energy          per atom          (sec)   <-- SCF
------------------------------------------------------------------------ <-- SCF
Initial  -2.35764426E+004  0.00000000E+000                      1974.46  <-- SCF
      1  -2.35764503E+004  3.72724317E+000   3.22010136E-004    2010.88  <-- SCF
      2  -2.35764503E+004  3.72724317E+000   8.80678054E-008    2044.32  <-- SCF
      3  -2.35764503E+004  3.72725605E+000   1.19373381E-009    2069.00  <-- SCF
      4  -2.35764503E+004  3.72727020E+000   2.75457203E-010    2093.85  <-- SCF
------------------------------------------------------------------------ <-- SCF
 
Final energy, E             =  -23576.44264990     eV
Final free energy (E-TS)    =  -23576.45030823     eV
(energies not corrected for finite basis set)
 
NB est. 0K energy (E-0.5TS)      =  -23576.44647906     eV
 

 ******************************** Constrained Forces ********************************
 *                                                                                  *
 *                           Cartesian components (eV/A)                            *
 * -------------------------------------------------------------------------------- *
 *                         x                    y                    z              *
 *                                                                                  *
 * P               1      0.00000(cons'd)      0.00000(cons'd)     -0.00034         *
 * P               2      0.00000(cons'd)      0.00000(cons'd)     -0.00013         *
 * P               3      0.00000(cons'd)      0.00000(cons'd)     -0.00013         *
 * P               4      0.00000(cons'd)      0.00000(cons'd)     -0.00035         *
 * P               5      0.00000(cons'd)     -0.00000(cons'd)      0.00011         *
 * P               6      0.00000(cons'd)     -0.00000(cons'd)      0.00003         *
 * P               7      0.00000(cons'd)      0.00000(cons'd)     -0.00009         *
 * P               8      0.00000(cons'd)      0.00000(cons'd)      0.00011         *
 * P               9      0.00000(cons'd)     -0.00000(cons'd)     -0.00001         *
 * P              10      0.00000(cons'd)     -0.00000(cons'd)     -0.00001         *
 * P              11      0.00000(cons'd)      0.00000(cons'd)      0.00003         *
 * P              12      0.00000(cons'd)      0.00000(cons'd)     -0.00009         *
 * In              1      0.00000(cons'd)      0.00000(cons'd)      0.00075         *
 * In              2      0.00000(cons'd)      0.00000(cons'd)      0.00099         *
 * In              3      0.00000(cons'd)     -0.00000(cons'd)      0.00075         *
 * In              4      0.00000(cons'd)      0.00000(cons'd)     -0.00030         *
 * In              5      0.00000(cons'd)      0.00000(cons'd)     -0.00073         *
 * In              6      0.00000(cons'd)      0.00000(cons'd)     -0.00073         *
 * In              7      0.00000(cons'd)      0.00000(cons'd)     -0.00030         *
 * In              8      0.00000(cons'd)      0.00000(cons'd)      0.00099         *
 * In              9      0.00000(cons'd)      0.00000(cons'd)      0.00041         *
 * In             10      0.00000(cons'd)      0.00000(cons'd)     -0.00068         *
 * In             11      0.00000(cons'd)      0.00000(cons'd)     -0.00068         *
 * In             12      0.00000(cons'd)      0.00000(cons'd)      0.00041         *
 *                                                                                  *
 ************************************************************************************
  
 +------------+-------------+-------------+-----------------+ <-- min LBFGS
 |    Step    |   lambda    |   F.delta'  |    enthalpy     | <-- min LBFGS
 +------------+-------------+-------------+-----------------+ <-- min LBFGS
 |  previous  |    0.000000 |    0.001634 |   -23576.450308 | <-- min LBFGS
 | trial step |    1.000000 |   -0.000922 |   -23576.450308 | <-- min LBFGS
 +------------+-------------+-------------+-----------------+ <-- min LBFGS
  
 LBFGS: finished iteration     4 with enthalpy= -2.35764503E+004 eV
  
 +-----------+-----------------+-----------------+------------+-----+ <-- LBFGS
 | Parameter |      value      |    tolerance    |    units   | OK? | <-- LBFGS
 +-----------+-----------------+-----------------+------------+-----+ <-- LBFGS
 |  dE/ion   |   6.528800E-009 |   2.000000E-005 |         eV | Yes | <-- LBFGS
 |  |F|max   |   9.903007E-004 |   1.000000E-003 |       eV/A | Yes | <-- LBFGS
 |  |dR|max  |   1.653728E-004 |   1.000000E-003 |          A | Yes | <-- LBFGS
 +-----------+-----------------+-----------------+------------+-----+ <-- LBFGS
  
 Hirshfeld supercell size:           3           3           1
Standard grid dimensions: 180 180 180
Fine grid dimensions:     180 180 180

 LBFGS: Geometry optimization completed successfully.

================================================================================
 LBFGS: Final Configuration:
================================================================================

                           -------------------------------
                                     Cell Contents
                           -------------------------------

            xxxxxxxxxxxxxxxxxxxxxxxxxxxxxxxxxxxxxxxxxxxxxxxxxxxxxxxxxxxxxxxxx
            x  Element         Atom        Fractional coordinates of atoms  x
            x                 Number           u          v          w      x
            x---------------------------------------------------------------x
            x  P                 1         0.250000   0.071929   0.904095   x
            x  P                 2         0.250000  -0.306125   0.741501   x
            x  P                 3         0.750000   0.193875   0.741501   x
            x  P                 4         0.750000  -0.428071   0.904095   x
            x  P                 5         0.750000   0.058159   0.255788   x
            x  P                 6         0.750000   0.436702   0.417731   x
            x  P                 7         0.750000  -0.184711   0.579614   x
            x  P                 8         0.250000   0.558159   0.255788   x
            x  P                 9         0.250000   0.180172   0.093104   x
            x  P                10         0.750000   0.680172   0.093104   x
            x  P                11         0.250000  -0.063298   0.417731   x
            x  P                12         0.250000   0.315289   0.579614   x
            x  In                1         0.000000  -0.117706   0.823609   x
            x  In                2         0.500000   0.004002   0.661331   x
            x  In                3         0.500000  -0.617707   0.823609   x
            x  In                4         0.500000  -0.131762   0.175683   x
            x  In                5         0.500000   0.492083   0.010555   x
            x  In                6         0.000000  -0.007917   0.010555   x
            x  In                7         0.000000   0.368238   0.175683   x
            x  In                8         0.000000  -0.495998   0.661331   x
            x  In                9         0.500000  -0.374589   0.499452   x
            x  In               10         0.500000   0.246848   0.337536   x
            x  In               11         0.000000  -0.253152   0.337536   x
            x  In               12         0.000000   0.125411   0.499452   x
            xxxxxxxxxxxxxxxxxxxxxxxxxxxxxxxxxxxxxxxxxxxxxxxxxxxxxxxxxxxxxxxxx


 LBFGS: Final Enthalpy     = -2.35764503E+004 eV
 LBFGS: Final <frequency>  =     204.22023 cm-1

 ******************* Unconstrained Forces *******************
 *                                                          *
 *               Cartesian components (eV/A)                *
 * -------------------------------------------------------- *
 *                         x            y            z      *
 *                                                          *
 * P               1     -0.02870     -1.24155     -0.00034 *
 * P               2     -0.22893     -0.15836     -0.00013 *
 * P               3     -0.22893     -0.15836     -0.00013 *
 * P               4     -0.02870     -1.24155     -0.00035 *
 * P               5     -0.00190      0.06883      0.00011 *
 * P               6     -0.00766      0.00634      0.00003 *
 * P               7     -0.03436     -0.02262     -0.00009 *
 * P               8     -0.00190      0.06883      0.00011 *
 * P               9      0.01016      0.47799     -0.00001 *
 * P              10      0.01016      0.47799     -0.00001 *
 * P              11     -0.00766      0.00633      0.00003 *
 * P              12     -0.03436     -0.02262     -0.00009 *
 * In              1      0.26331      0.37176      0.00075 *
 * In              2      0.03464      0.05701      0.00099 *
 * In              3      0.26332      0.37177      0.00075 *
 * In              4      0.15497      0.03461     -0.00030 *
 * In              5     -0.19726      0.39036     -0.00073 *
 * In              6     -0.19726      0.39036     -0.00073 *
 * In              7      0.15497      0.03461     -0.00030 *
 * In              8      0.03464      0.05701      0.00099 *
 * In              9      0.00981      0.00921      0.00041 *
 * In             10      0.02593      0.00641     -0.00068 *
 * In             11      0.02593      0.00641     -0.00068 *
 * In             12      0.00981      0.00921      0.00041 *
 *                                                          *
 ************************************************************

 ******************************** Constrained Forces ********************************
 *                                                                                  *
 *                           Cartesian components (eV/A)                            *
 * -------------------------------------------------------------------------------- *
 *                         x                    y                    z              *
 *                                                                                  *
 * P               1      0.00000(cons'd)      0.00000(cons'd)     -0.00034         *
 * P               2      0.00000(cons'd)      0.00000(cons'd)     -0.00013         *
 * P               3      0.00000(cons'd)      0.00000(cons'd)     -0.00013         *
 * P               4      0.00000(cons'd)      0.00000(cons'd)     -0.00035         *
 * P               5      0.00000(cons'd)      0.00000(cons'd)      0.00011         *
 * P               6      0.00000(cons'd)      0.00000(cons'd)      0.00003         *
 * P               7      0.00000(cons'd)      0.00000(cons'd)     -0.00009         *
 * P               8      0.00000(cons'd)      0.00000(cons'd)      0.00011         *
 * P               9     -0.00000(cons'd)      0.00000(cons'd)     -0.00001         *
 * P              10      0.00000(cons'd)     -0.00000(cons'd)     -0.00001         *
 * P              11      0.00000(cons'd)      0.00000(cons'd)      0.00003         *
 * P              12      0.00000(cons'd)      0.00000(cons'd)     -0.00009         *
 * In              1      0.00000(cons'd)      0.00000(cons'd)      0.00075         *
 * In              2      0.00000(cons'd)      0.00000(cons'd)      0.00099         *
 * In              3      0.00000(cons'd)      0.00000(cons'd)      0.00075         *
 * In              4      0.00000(cons'd)      0.00000(cons'd)     -0.00030         *
 * In              5      0.00000(cons'd)      0.00000(cons'd)     -0.00073         *
 * In              6      0.00000(cons'd)      0.00000(cons'd)     -0.00073         *
 * In              7      0.00000(cons'd)      0.00000(cons'd)     -0.00030         *
 * In              8      0.00000(cons'd)      0.00000(cons'd)      0.00099         *
 * In              9      0.00000(cons'd)      0.00000(cons'd)      0.00041         *
 * In             10      0.00000(cons'd)      0.00000(cons'd)     -0.00068         *
 * In             11      0.00000(cons'd)      0.00000(cons'd)     -0.00068         *
 * In             12      0.00000(cons'd)      0.00000(cons'd)      0.00041         *
 *                                                                                  *
 ************************************************************************************

 Pseudo atomic calculation performed for P 3s2 3p3

 Converged in 23 iterations to a total energy of -208.0292 eV

 Pseudo atomic calculation performed for In 4d10 5s2 5p1

 Converged in 42 iterations to a total energy of -1747.4501 eV
Charge spilling parameter for spin component 1 = 0.18%

            Orbital Populations       
     Ion    Atom   Orbital             Charge
  -------------------------------------------
      P     1      S                    1.738
      P     1      Px                   1.302
      P     1      Py                   1.373
      P     1      Pz                   1.265
      P     2      S                    1.732
      P     2      Px                   1.310
      P     2      Py                   1.312
      P     2      Pz                   1.319
      P     3      S                    1.732
      P     3      Px                   1.310
      P     3      Py                   1.312
      P     3      Pz                   1.319
      P     4      S                    1.738
      P     4      Px                   1.302
      P     4      Py                   1.373
      P     4      Pz                   1.265
      P     5      S                    1.728
      P     5      Px                   1.316
      P     5      Py                   1.316
      P     5      Pz                   1.320
      P     6      S                    1.727
      P     6      Px                   1.316
      P     6      Py                   1.316
      P     6      Pz                   1.322
      P     7      S                    1.727
      P     7      Px                   1.316
      P     7      Py                   1.316
      P     7      Pz                   1.322
      P     8      S                    1.728
      P     8      Px                   1.316
      P     8      Py                   1.316
      P     8      Pz                   1.320
      P     9      S                    1.744
      P     9      Px                   1.298
      P     9      Py                   1.294
      P     9      Pz                   1.314
      P    10      S                    1.744
      P    10      Px                   1.298
      P    10      Py                   1.294
      P    10      Pz                   1.314
      P    11      S                    1.727
      P    11      Px                   1.316
      P    11      Py                   1.316
      P    11      Pz                   1.322
      P    12      S                    1.727
      P    12      Px                   1.316
      P    12      Py                   1.316
      P    12      Pz                   1.322
     In     1      Dzz                  1.999
     In     1      Dzy                  1.997
     In     1      Dzx                  1.997
     In     1      Dxx-yy               1.999
     In     1      Dxy                  1.996
     In     1      S                    1.427
     In     1      Px                   0.496
     In     1      Py                   0.480
     In     1      Pz                   0.474
     In     1      S                   -0.516
     In     2      Dzz                  1.999
     In     2      Dzy                  1.997
     In     2      Dzx                  1.997
     In     2      Dxx-yy               1.999
     In     2      Dxy                  1.997
     In     2      S                    1.437
     In     2      Px                   0.493
     In     2      Py                   0.491
     In     2      Pz                   0.475
     In     2      S                   -0.571
     In     3      Dzz                  1.999
     In     3      Dzy                  1.997
     In     3      Dzx                  1.997
     In     3      Dxx-yy               1.999
     In     3      Dxy                  1.996
     In     3      S                    1.427
     In     3      Px                   0.496
     In     3      Py                   0.480
     In     3      Pz                   0.474
     In     3      S                   -0.516
     In     4      Dzz                  1.999
     In     4      Dzy                  1.997
     In     4      Dzx                  1.997
     In     4      Dxx-yy               1.999
     In     4      Dxy                  1.997
     In     4      S                    1.435
     In     4      Px                   0.495
     In     4      Py                   0.492
     In     4      Pz                   0.470
     In     4      S                   -0.522
     In     5      Dzz                  1.998
     In     5      Dzy                  1.998
     In     5      Dzx                  1.995
     In     5      Dxx-yy               1.999
     In     5      Dxy                  1.997
     In     5      S                    1.464
     In     5      Px                   0.459
     In     5      Py                   0.433
     In     5      Pz                   0.499
     In     5      S                   -0.506
     In     6      Dzz                  1.998
     In     6      Dzy                  1.998
     In     6      Dzx                  1.995
     In     6      Dxx-yy               1.999
     In     6      Dxy                  1.997
     In     6      S                    1.464
     In     6      Px                   0.459
     In     6      Py                   0.433
     In     6      Pz                   0.499
     In     6      S                   -0.506
     In     7      Dzz                  1.999
     In     7      Dzy                  1.997
     In     7      Dzx                  1.997
     In     7      Dxx-yy               1.999
     In     7      Dxy                  1.997
     In     7      S                    1.435
     In     7      Px                   0.495
     In     7      Py                   0.492
     In     7      Pz                   0.470
     In     7      S                   -0.522
     In     8      Dzz                  1.999
     In     8      Dzy                  1.997
     In     8      Dzx                  1.997
     In     8      Dxx-yy               1.999
     In     8      Dxy                  1.997
     In     8      S                    1.437
     In     8      Px                   0.493
     In     8      Py                   0.491
     In     8      Pz                   0.475
     In     8      S                   -0.571
     In     9      Dzz                  1.999
     In     9      Dzy                  1.997
     In     9      Dzx                  1.997
     In     9      Dxx-yy               1.999
     In     9      Dxy                  1.997
     In     9      S                    1.434
     In     9      Px                   0.490
     In     9      Py                   0.490
     In     9      Pz                   0.476
     In     9      S                   -0.577
     In    10      Dzz                  1.999
     In    10      Dzy                  1.997
     In    10      Dzx                  1.997
     In    10      Dxx-yy               1.999
     In    10      Dxy                  1.997
     In    10      S                    1.438
     In    10      Px                   0.490
     In    10      Py                   0.490
     In    10      Pz                   0.475
     In    10      S                   -0.584
     In    11      Dzz                  1.999
     In    11      Dzy                  1.997
     In    11      Dzx                  1.997
     In    11      Dxx-yy               1.999
     In    11      Dxy                  1.997
     In    11      S                    1.438
     In    11      Px                   0.490
     In    11      Py                   0.490
     In    11      Pz                   0.475
     In    11      S                   -0.584
     In    12      Dzz                  1.999
     In    12      Dzy                  1.997
     In    12      Dzx                  1.997
     In    12      Dxx-yy               1.999
     In    12      Dxy                  1.997
     In    12      S                    1.434
     In    12      Px                   0.490
     In    12      Py                   0.490
     In    12      Pz                   0.476
     In    12      S                   -0.577
  -------------------------------------------
                           Total:     216.000
  -------------------------------------------

     Atomic Populations (Mulliken)
     -----------------------------
Species          Ion     s       p       d       f      Total   Charge (e)
==========================================================================
  P               1     1.738   3.940   0.000   0.000   5.679    -0.679
  P               2     1.732   3.942   0.000   0.000   5.673    -0.673
  P               3     1.732   3.942   0.000   0.000   5.673    -0.673
  P               4     1.738   3.940   0.000   0.000   5.679    -0.679
  P               5     1.728   3.952   0.000   0.000   5.680    -0.680
  P               6     1.727   3.954   0.000   0.000   5.682    -0.682
  P               7     1.727   3.954   0.000   0.000   5.681    -0.681
  P               8     1.728   3.952   0.000   0.000   5.680    -0.680
  P               9     1.744   3.906   0.000   0.000   5.650    -0.650
  P              10     1.744   3.906   0.000   0.000   5.650    -0.650
  P              11     1.727   3.954   0.000   0.000   5.682    -0.682
  P              12     1.727   3.954   0.000   0.000   5.681    -0.681
  In              1     0.911   1.451   9.988   0.000  12.351     0.649
  In              2     0.866   1.459   9.988   0.000  12.313     0.687
  In              3     0.911   1.451   9.988   0.000  12.351     0.649
  In              4     0.913   1.456   9.988   0.000  12.357     0.643
  In              5     0.958   1.390   9.987   0.000  12.336     0.664
  In              6     0.958   1.390   9.987   0.000  12.336     0.664
  In              7     0.913   1.456   9.988   0.000  12.357     0.643
  In              8     0.866   1.459   9.988   0.000  12.313     0.687
  In              9     0.857   1.457   9.988   0.000  12.302     0.698
  In             10     0.854   1.455   9.988   0.000  12.297     0.703
  In             11     0.854   1.455   9.988   0.000  12.297     0.703
  In             12     0.857   1.457   9.988   0.000  12.302     0.698
==========================================================================

                 Bond                   Population      Length (A)
======================================================================
              P 1  -- In 6                   1.00        2.39350
              P 4  -- In 5                   1.00        2.39350
              P 8  -- In 7                   0.58        2.52275
              P 5  -- In 4                   0.58        2.52275
              P 8  -- In 4                   0.62        2.52276
              P 5  -- In 7                   0.62        2.52276
              P 7  -- In 9                   0.62        2.52332
              P 12 -- In 12                  0.62        2.52332
              P 12 -- In 9                   0.62        2.52332
              P 7  -- In 12                  0.62        2.52333
              P 3  -- In 2                   0.62        2.52340
              P 2  -- In 8                   0.62        2.52340
              P 2  -- In 2                   0.59        2.52340
              P 3  -- In 8                   0.59        2.52340
              P 6  -- In 10                  0.60        2.52365
              P 11 -- In 11                  0.60        2.52365
              P 11 -- In 10                  0.61        2.52365
              P 6  -- In 11                  0.61        2.52365
              P 1  -- In 1                   0.65        2.52656
              P 4  -- In 3                   0.65        2.52656
              P 1  -- In 3                   0.66        2.52656
              P 4  -- In 1                   0.66        2.52656
              P 7  -- In 8                   0.57        2.53892
              P 12 -- In 8                   0.56        2.53892
              P 7  -- In 2                   0.56        2.53892
              P 12 -- In 2                   0.57        2.53892
              P 6  -- In 12                  0.57        2.53896
              P 11 -- In 12                  0.57        2.53896
              P 6  -- In 9                   0.57        2.53896
              P 11 -- In 9                   0.57        2.53896
              P 5  -- In 11                  0.57        2.53923
              P 8  -- In 11                  0.57        2.53923
              P 5  -- In 10                  0.57        2.53923
              P 8  -- In 10                  0.57        2.53923
              P 3  -- In 1                   0.54        2.54287
              P 2  -- In 1                   0.58        2.54287
              P 3  -- In 3                   0.58        2.54287
              P 2  -- In 3                   0.54        2.54287
              P 10 -- In 5                   0.47        2.54733
              P 9  -- In 6                   0.47        2.54733
              P 9  -- In 5                   0.64        2.54733
              P 10 -- In 6                   0.64        2.54733
              P 10 -- In 4                   0.55        2.54764
              P 10 -- In 7                   0.56        2.54764
              P 9  -- In 4                   0.56        2.54764
              P 9  -- In 7                   0.55        2.54764
======================================================================

 Hirshfeld supercell size:           3           3           1
Standard grid dimensions: 180 180 180
Fine grid dimensions:     180 180 180


     Hirshfeld Analysis
     ------------------
Species   Ion     Hirshfeld Charge (e)
======================================
  P        1                -0.28
  P        2                -0.23
  P        3                -0.23
  P        4                -0.28
  P        5                -0.24
  P        6                -0.24
  P        7                -0.24
  P        8                -0.24
  P        9                -0.23
  P       10                -0.23
  P       11                -0.24
  P       12                -0.24
  In       1                 0.24
  In       2                 0.24
  In       3                 0.24
  In       4                 0.23
  In       5                 0.28
  In       6                 0.28
  In       7                 0.23
  In       8                 0.24
  In       9                 0.24
  In      10                 0.24
  In      11                 0.24
  In      12                 0.24
======================================

 
 A BibTeX formatted list of references used in this run has been written to 
 StackingFaultStructs_001_100_6.bib
 
Initialisation time =     21.67 s
Calculation time    =   2171.51 s
Finalisation time   =     53.97 s
Total time          =   2247.15 s
Peak Memory Use     = 5920592 kB
 
Overall parallel efficiency rating: Poor (36%)
 
Data was distributed by:-
G-vector (2-way); efficiency rating: Poor (44%)
k-point (40-way); efficiency rating: Satisfactory (65%)
