 +-------------------------------------------------+
 |                                                 |
 |      CCC   AA    SSS  TTTTT  EEEEE  PPPP        |
 |     C     A  A  S       T    E      P   P       |
 |     C     AAAA   SS     T    EEE    PPPP        |
 |     C     A  A     S    T    E      P           |
 |      CCC  A  A  SSS     T    EEEEE  P           |
 |                                                 |
 +-------------------------------------------------+
 |                                                 |
 | Welcome to Academic Release CASTEP version 24.1 |
 | Ab Initio Total Energy Program                  |
 |                                                 |
 | Authors:                                        |
 | M. Segall, M. Probert, C. Pickard, P. Hasnip,   |
 | S. Clark, K. Refson, J. R. Yates,               |
 | A. Bartok-Partay, M. Payne                      |
 |                                                 |
 | Contributors:                                   |
 | P. Lindan, P. Haynes, J. White, V. Milman,      |
 | N. Govind, M. Gibson, P. Tulip, V. Cocula,      |
 | B. Montanari, D. Quigley, M. Glover,            |
 | L. Bernasconi, A. Perlov, M. Plummer,           |
 | E. McNellis, J. Meyer, J. Gale, D. Jochym       |
 | J. Aarons, B. Walker, R. Gillen, D. Jones       |
 | T. Green, I. J. Bush, C. J. Armstrong,          |
 | E. J. Higgins, E. L. Brown, M. S. McFly,        |
 | J. Wilkins, B-C. Shih, P. J. P. Byrne,          |
 | R. J. Maurer, J. C. Womack, J. Dziedzic,        |
 | L. LeBlanc, T. K. Stenczel, J. Kermode,         |
 | S. Sturniolo, B. Shi, B. Durham, M. Evans,      |
 | M. J. Smith, A. Tamerus, Z. Hawkhead,           |
 | V. Ravindran, T. Hollins, S. A. Joyce,          |
 | R. T. Strong, A. M. Reilly, S. J. Donaldson     |
 |                                                 |
 | Copyright (c) 2000 - 2023                       |
 |                                                 |
 |     Distributed under license from Cambridge    |
 |     Enterprise for academic use only.           |
 |                                                 |
 | Please cite                                     |
 |                                                 |
 |     "First principles methods using CASTEP"     |
 |                                                 |
 |         Zeitschrift fuer Kristallographie       |
 |           220(5-6) pp. 567-570 (2005)           |
 |                                                 |
 | S. J. Clark, M. D. Segall, C. J. Pickard,       |
 | P. J. Hasnip, M. J. Probert, K. Refson,         |
 | M. C. Payne                                     |
 |                                                 |
 |       in all publications arising from          |
 |              your use of CASTEP                 |
 |                                                 |
 +-------------------------------------------------+
 |                                                 |
 |              http://www.castep.org              |
 |                                                 |
 +-------------------------------------------------+



 Compiled for  GNU 11.2.0 on 04-04-2024 18:39:17
 from code version 6355fd106 Castep241_branch Thu Mar 7 17:56:19 2024 +0000
 Compiler: GNU Fortran 11.2.0; Optimisation: FAST
 Comms   : MPI VERSION : CRAY MPICH version 8.1.23.14 (ANL base 3.4a2)
 MATHLIBS: default (LAPACK version 3.10.1)
 FFT Lib : fftw3 version commercial-fftw-3.3.10-sse2-avx-avx2-avx2_128
 Fundamental constants values: CODATA 2018

 Run started: Tue, 29 Apr 2025 13:52:50 +0100

 Atomic calculation performed for P: 1s2 2s2 2p6 3s2 3p3

 Converged in 47 iterations to an ae energy of -9309.074 eV

   ============================================================                
   | Pseudopotential Report - Date of generation 29-04-2025   |                
   ------------------------------------------------------------                
   | Element: P Ionic charge:  5.00 Level of theory: RSCAN    |                
   | Atomic Solver: Koelling-Harmon                           |                
   |                                                          |                
   |               Reference Electronic Structure             |                
   |         Orbital         Occupation         Energy        |                
   |            3s              2.000           -0.535        |                
   |            3p              3.000           -0.209        |                
   |                                                          |                
   |                 Pseudopotential Definition               |                
   |        Beta     l      e      Rc     scheme   norm       |                
   |          1      0   -0.535   1.807     qc      0         |                
   |          2      0    0.250   1.807     qc      0         |                
   |          3      1   -0.209   1.807     qc      0         |                
   |          4      1    0.250   1.807     qc      0         |                
   |          5      2    0.000   1.807     qc      0         |                
   |          6      2    0.250   1.807     qc      0         |                
   |         loc     3    0.000   1.807     pn      0         |                
   |                                                          |                
   | Augmentation charge Rinner = 1.263                       |                
   | Partial core correction Rc = 1.263                       |                
   ------------------------------------------------------------                
   | "3|1.8|4|4|5|30:31:32"                                   |                
   ------------------------------------------------------------                
   |      Author: Chris J. Pickard, Cambridge University      |                
   ============================================================                
 Warning: otfg_output_psp cannot write out meta-GGA pseudopotentials presently.

 Atomic calculation performed for In:
 1s2 2s2 2p6 3s2 3p6 3d10 4s2 4p6 4d10 5s2 5p1

 Converged in 84 iterations to an ae energy of -160093.328 eV

   ============================================================                
   | Pseudopotential Report - Date of generation 29-04-2025   |                
   ------------------------------------------------------------                
   | Element: In Ionic charge: 13.00 Level of theory: RSCAN   |                
   | Atomic Solver: Koelling-Harmon                           |                
   |                                                          |                
   |               Reference Electronic Structure             |                
   |         Orbital         Occupation         Energy        |                
   |            4d             10.000           -0.711        |                
   |            5s              2.000           -0.313        |                
   |            5p              1.000           -0.095        |                
   |                                                          |                
   |                 Pseudopotential Definition               |                
   |        Beta     l      e      Rc     scheme   norm       |                
   |          1      0   -0.313   2.501     qc      0         |                
   |          2      0    0.250   2.501     qc      0         |                
   |          3      1   -0.095   2.501     qc      0         |                
   |          4      1    0.250   2.501     qc      0         |                
   |          5      2   -0.711   2.207     qc      0         |                
   |          6      2    0.250   2.207     qc      0         |                
   |         loc     3    0.000   2.501     pn      0         |                
   |                                                          |                
   | Augmentation charge Rinner = 1.504                       |                
   | Partial core correction Rc = 1.504                       |                
   ------------------------------------------------------------                
   | "3|2.5|2.5|1.5|7|8|9|50:51:42U2.2U2.2"                   |                
   ------------------------------------------------------------                
   |      Author: Chris J. Pickard, Cambridge University      |                
   ============================================================                
 Warning: otfg_output_psp cannot write out meta-GGA pseudopotentials presently.

 Pseudo atomic calculation performed for P 3s2 3p3

 Converged in 23 iterations to a total energy of -208.0292 eV

 Pseudo atomic calculation performed for In 4d10 5s2 5p1

 Converged in 42 iterations to a total energy of -1747.4501 eV
 Calculation parallelised over 108 processes.
 Data is distributed by G-vector(3-way) and k-point(36-way)
 Each process may use up to 16 threads.

 ************************************ Title ************************************
 

 ***************************** General Parameters ******************************
  
 output verbosity                               : normal  (1)
 write checkpoint data to                       : In_Vacancy_Migration_3->60_Singlepoints_0.check
 type of calculation                            : single point energy
 stress calculation                             : off
 density difference calculation                 : off
 electron localisation func (ELF) calculation   : off
 Hirshfeld analysis                             : on
 polarisation (Berry phase) analysis            : off
 molecular orbital projected DOS                : off
 deltaSCF calculation                           : off
 unlimited duration calculation
 timing information                             : on
 memory usage estimate                          : on
 write extra output files                       : on
 write final potential to formatted file        : off
 write final density to formatted file          : off
 write BibTeX reference list                    : on
 write OTFG pseudopotential files               : on
 write electrostatic potential file             : on
 write bands file                               : on
 checkpoint writing                             : off
  
 output         length unit                     : A
 output           mass unit                     : amu
 output           time unit                     : ps
 output         charge unit                     : e
 output           spin unit                     : hbar/2
 output         energy unit                     : eV
 output          force unit                     : eV/A
 output       velocity unit                     : A/ps
 output       pressure unit                     : GPa
 output     inv_length unit                     : 1/A
 output      frequency unit                     : cm-1
 output force constant unit                     : eV/A**2
 output         volume unit                     : A**3
 output   IR intensity unit                     : (D/A)**2/amu
 output         dipole unit                     : D
 output         efield unit                     : eV/A/e
 output        entropy unit                     : J/mol/K
 output    efield chi2 unit                     : pm/V
  
 wavefunctions paging                           : none
 random number generator seed                   :  135250548
 data distribution                              : optimal for this architecture
 optimization strategy                          : balance speed and memory

 *********************** Exchange-Correlation Parameters ***********************
  
 using functional                               : RSCAN
 relativistic treatment                         : Koelling-Harmon
 DFT+D: Semi-empirical dispersion correction    : off

 ************************* Pseudopotential Parameters **************************
  
 pseudopotential representation                 : reciprocal space
 <beta|phi> representation                      : reciprocal space
 spin-orbit coupling                            : off

 **************************** Basis Set Parameters *****************************
  
 plane wave basis set cut-off                   :   900.0000   eV
 size of standard grid                          :     2.0000
 size of   fine   gmax                          :    30.7390   1/A
 finite basis set correction                    : none

 **************************** Electronic Parameters ****************************
  
 number of  electrons                           :  563.0    
 net charge of system                           :  0.000    
 net spin   of system                           :  1.000    
 number of  up  spins                           :  282.0    
 number of down spins                           :  281.0    
 treating system as spin-polarized
 number of bands                                :        338

 ********************* Electronic Minimization Parameters **********************
  
 Method: Treating system as metallic with density mixing treatment of electrons,
         and number of  SD  steps               :          1
         and number of  CG  steps               :          4
  
 total energy / atom convergence tol.           : 0.1000E-07   eV
 eigen-energy convergence tolerance             : 0.2234E-08   eV
 max force / atom convergence tol.              : ignored
 convergence tolerance window                   :          3   cycles
 max. number of SCF cycles                      :        100
 number of fixed-spin iterations                :         10
 smearing scheme                                : Gaussian
 smearing width                                 : 0.2000       eV
 Fermi energy convergence tolerance             : 0.2721E-13   eV
 periodic dipole correction                     : NONE

 ************************** Density Mixing Parameters **************************
  
 density-mixing scheme                          : Pulay
 max. length of mixing history                  :         20
 charge density mixing amplitude                : 0.5000    
   spin density mixing amplitude                :  2.000    
 cut-off energy for mixing                      :  900.0       eV

 *********************** Population Analysis Parameters ************************
  
 Population analysis with cutoff                :  3.000       A
 Population analysis output                     : summary and pdos components

 *******************************************************************************
  

                           -------------------------------
                                      Unit Cell
                           -------------------------------
        Real Lattice(A)                      Reciprocal Lattice(1/A)
    11.8016820    -0.0000080    -0.0000080        0.532397442   0.000000361   0.000000361
    -0.0000080    11.8016820    -0.0000080        0.000000361   0.532397442   0.000000361
    -0.0000080    -0.0000080    11.8016820        0.000000361   0.000000361   0.532397442

                       Lattice parameters(A)       Cell Angles
                    a =     11.801682          alpha =   90.000078
                    b =     11.801682          beta  =   90.000078
                    c =     11.801682          gamma =   90.000078

                       Current cell volume =          1643.734705       A**3
                                   density =             2.768402   AMU/A**3
                                           =             4.597040     g/cm^3

                           -------------------------------
                                     Cell Contents
                           -------------------------------
                         Total number of ions in cell =   63
                      Total number of species in cell =    2
                        Max number of any one species =   32

            xxxxxxxxxxxxxxxxxxxxxxxxxxxxxxxxxxxxxxxxxxxxxxxxxxxxxxxxxxxx
            x  Element    Atom        Fractional coordinates of atoms  x
            x            Number           u          v          w      x
            x----------------------------------------------------------x
            x  P            1         0.126008   0.126008   0.375680   x 
            x  P            2         0.375680   0.126008   0.126008   x 
            x  P            3         0.126008   0.375680   0.126008   x 
            x  P            4         0.384365   0.384365   0.384365   x 
            x  P            5         0.125079   0.125079   0.874921   x 
            x  P            6         0.375095   0.125925   0.624905   x 
            x  P            7         0.125925   0.375095   0.624905   x 
            x  P            8         0.375095   0.375095   0.874075   x 
            x  P            9         0.125925   0.624905   0.375095   x 
            x  P           10         0.375095   0.624905   0.125925   x 
            x  P           11         0.125079   0.874921   0.125079   x 
            x  P           12         0.375095   0.874075   0.375095   x 
            x  P           13         0.126008   0.624320   0.873992   x 
            x  P           14         0.384365   0.615635   0.615635   x 
            x  P           15         0.126008   0.873992   0.624320   x 
            x  P           16         0.375680   0.873992   0.873992   x 
            x  P           17         0.624905   0.125925   0.375095   x 
            x  P           18         0.874921   0.125079   0.125079   x 
            x  P           19         0.624905   0.375095   0.125925   x 
            x  P           20         0.874075   0.375095   0.375095   x 
            x  P           21         0.624320   0.126008   0.873992   x 
            x  P           22         0.873992   0.126008   0.624320   x 
            x  P           23         0.615635   0.384365   0.615635   x 
            x  P           24         0.873992   0.375680   0.873992   x 
            x  P           25         0.615635   0.615635   0.384365   x 
            x  P           26         0.873992   0.624320   0.126008   x 
            x  P           27         0.624320   0.873992   0.126008   x 
            x  P           28         0.873992   0.873992   0.375680   x 
            x  P           29         0.624905   0.624905   0.874075   x 
            x  P           30         0.874075   0.624905   0.624905   x 
            x  P           31         0.624905   0.874075   0.624905   x 
            x  P           32         0.874921   0.874921   0.874921   x 
            x  In           1         0.000000   0.000000   0.000000   x 
            x  In           2         0.250581   0.000027   0.250581   x 
            x  In           3         0.000027   0.250581   0.250581   x 
            x  In           4         0.250581   0.250581   0.000027   x 
            x  In           5         0.000000   0.000000   0.500000   x 
            x  In           6         0.250581  -0.000027   0.749419   x 
            x  In           7        -0.000027   0.250581   0.749419   x 
            x  In           8         0.254856   0.254856   0.497415   x 
            x  In           9         0.000000   0.500000   0.000000   x 
            x  In          10         0.254856   0.497415   0.254856   x 
            x  In          11        -0.000027   0.749419   0.250581   x 
            x  In          12         0.250581   0.749419  -0.000027   x 
            x  In          13         0.000000   0.500000   0.500000   x 
            x  In          14         0.254856   0.502586   0.745144   x 
            x  In          15         0.000027   0.749419   0.749419   x 
            x  In          16         0.254856   0.745144   0.502586   x 
            x  In          17         0.500000   0.000000   0.000000   x 
            x  In          18         0.749419  -0.000027   0.250581   x 
            x  In          19         0.497415   0.254856   0.254856   x 
            x  In          20         0.749419   0.250581  -0.000027   x 
            x  In          21         0.500000   0.000000   0.500000   x 
            x  In          22         0.749419   0.000027   0.749419   x 
            x  In          23         0.502586   0.254856   0.745144   x 
            x  In          24         0.745144   0.254856   0.502586   x 
            x  In          25         0.500000   0.500000   0.000000   x 
            x  In          26         0.745144   0.502586   0.254856   x 
            x  In          27         0.502586   0.745144   0.254856   x 
            x  In          28         0.749419   0.749419   0.000027   x 
            x  In          29         0.745144   0.497415   0.745144   x 
            x  In          30         0.497415   0.745144   0.745144   x 
            x  In          31         0.745144   0.745144   0.497415   x 
            xxxxxxxxxxxxxxxxxxxxxxxxxxxxxxxxxxxxxxxxxxxxxxxxxxxxxxxxxxxx


                         No user defined ionic velocities

                           -------------------------------
                                   Details of Species
                           -------------------------------

                               Mass of species in AMU
                                    P   30.9737600
                                    In  114.8180000

                          Electric Quadrupole Moment (Barn)
                                    P    1.0000000 No Isotope Defined
                                    In    0.7700000 Isotope115

                          Files used for pseudopotentials:
                                    P 3|1.8|4|4|5|30:31:32
                                    In 3|2.5|2.5|1.5|7|8|9|50:51:42U2.2U2.2

                           -------------------------------
                              k-Points For BZ Sampling
                           -------------------------------
                       MP grid size for SCF calculation is  4  4  4
                            with an offset of   0.125  0.125  0.125
                       Number of kpoints used =            36

                           -------------------------------
                               Symmetry and Constraints
                           -------------------------------

                      Maximum deviation from symmetry =  0.00000         ANG

                      Number of symmetry operations   =           1
                      Number of ionic constraints     =           3
                      Point group of crystal =     1: C1, 1, 1
                      Space group of crystal =   215: P-43m, P -4 2 3

             Set iprint > 1 for details on symmetry rotations/translations

                         Centre of mass is constrained
             Set iprint > 1 for details of linear ionic constraints

                         Number of cell constraints= 0
                         Cell constraints are:  1 2 3 4 5 6

                         External pressure/stress (GPa)
                          0.00000   0.00000   0.00000
                                    0.00000   0.00000
                                              0.00000
 
+---------------- MEMORY AND SCRATCH DISK ESTIMATES PER PROCESS --------------+
|                                                     Memory          Disk    |
| Baseline code, static data and system overhead      368.0 MB         0.0 MB |
| BLAS internal memory storage                          0.0 MB         0.0 MB |
| Model and support data                             4296.9 MB         0.0 MB |
| Electronic energy minimisation requirements        1299.4 MB         0.0 MB |
| Force calculation requirements                      127.4 MB         0.0 MB |
|                                               ----------------------------- |
| Approx. total storage required per process         5964.3 MB         0.0 MB |
|                                                                             |
| Requirements will fluctuate during execution and may exceed these estimates |
+-----------------------------------------------------------------------------+
Calculating approximate eigenstates for fixed initial Hamiltonian
Cut-off for approx. calculation is   89.988 eV
Improving approx. states at cut-off of  450.000 eV
Resetting cut-off to  900.000 eV
Calculating total energy with cut-off of  900.000 eV.
------------------------------------------------------------------------ <-- SCF
SCF loop      Energy           Fermi           Energy gain       Timer   <-- SCF
                               energy          per atom          (sec)   <-- SCF
------------------------------------------------------------------------ <-- SCF
Initial  -6.12887179E+004  0.00000000E+000                       420.16  <-- SCF
      1  -6.10543662E+004  1.91690798E+000  -3.71986797E+000     853.59  <-- SCF
      2  -6.10547059E+004  1.91687810E+000   5.39075757E-003    1154.58  <-- SCF
      3  -6.11182663E+004  2.24662600E+000   1.00889660E+000    1505.49  <-- SCF
      4  -6.11294028E+004  2.32161921E+000   1.76769699E-001    1981.09  <-- SCF
      5  -6.11358338E+004  2.43479871E+000   1.02078630E-001    2326.29  <-- SCF
      6  -6.11242844E+004  2.55288657E+000  -1.83323866E-001    2659.29  <-- SCF
      7  -6.11229034E+004  2.59225260E+000  -2.19202534E-002    3007.45  <-- SCF
      8  -6.11231705E+004  2.63652307E+000   4.24013007E-003    3355.60  <-- SCF
      9  -6.11238969E+004  2.65697373E+000   1.15299213E-002    3685.92  <-- SCF
     10  -6.11242679E+004  2.65407106E+000   5.88904377E-003    4016.49  <-- SCF
     11  -6.11242886E+004  2.64972009E+000   3.28399567E-004    4371.42  <-- SCF
     12  -6.11242950E+004  2.64732659E+000   1.01101057E-004    4719.59  <-- SCF
     13  -6.11242992E+004  2.64557127E+000   6.65661334E-005    5064.82  <-- SCF
     14  -6.11243003E+004  2.64578972E+000   1.78532285E-005    5432.26  <-- SCF
     15  -6.11243014E+004  2.64610035E+000   1.76532100E-005    5787.62  <-- SCF
     16  -6.11243023E+004  2.64666155E+000   1.42715112E-005    6145.42  <-- SCF
     17  -6.11243025E+004  2.64656885E+000   2.72729778E-006    6493.13  <-- SCF
     18  -6.11243026E+004  2.64609397E+000   1.18326314E-006    6812.29  <-- SCF
     19  -6.11243026E+004  2.64634269E+000   3.02942255E-007    7116.04  <-- SCF
     20  -6.11243026E+004  2.64634228E+000   1.76245077E-007    7413.87  <-- SCF
     21  -6.11243026E+004  2.64628275E+000   5.17055457E-008    7684.80  <-- SCF
     22  -6.11243026E+004  2.64631968E+000   3.23138300E-008    7946.38  <-- SCF
     23  -6.11243026E+004  2.64637031E+000   5.00314789E-009    8188.62  <-- SCF
     24  -6.11243026E+004  2.64636098E+000   1.96221135E-009    8426.81  <-- SCF
------------------------------------------------------------------------ <-- SCF
 
Integrated Spin Density     =     1.71476     hbar/2
Integrated |Spin Density|   =     2.00595     hbar/2
 
Final energy, E             =  -61124.10427333     eV
Final free energy (E-TS)    =  -61124.30260503     eV
(energies not corrected for finite basis set)
 
NB est. 0K energy (E-0.5TS)      =  -61124.20343918     eV
 

 ************************** Forces **************************
 *                                                          *
 *               Cartesian components (eV/A)                *
 * -------------------------------------------------------- *
 *                         x            y            z      *
 *                                                          *
 * P               1      0.01847      0.01847     -0.02968 *
 * P               2     -0.02968      0.01847      0.01847 *
 * P               3      0.01847     -0.02968      0.01847 *
 * P               4     -0.02575     -0.02575     -0.02575 *
 * P               5     -0.00264     -0.00264      0.00265 *
 * P               6      0.00742     -0.00135     -0.00742 *
 * P               7     -0.00135      0.00742     -0.00742 *
 * P               8      0.00741      0.00741      0.00135 *
 * P               9     -0.00135     -0.00742      0.00742 *
 * P              10      0.00742     -0.00742     -0.00134 *
 * P              11     -0.00263      0.00264     -0.00264 *
 * P              12      0.00741      0.00134      0.00741 *
 * P              13      0.01846      0.02967     -0.01846 *
 * P              14     -0.02575      0.02576      0.02575 *
 * P              15      0.01846     -0.01846      0.02967 *
 * P              16     -0.02969     -0.01847     -0.01847 *
 * P              17     -0.00742     -0.00134      0.00742 *
 * P              18      0.00264     -0.00263     -0.00264 *
 * P              19     -0.00742      0.00742     -0.00134 *
 * P              20      0.00134      0.00741      0.00741 *
 * P              21      0.02966      0.01846     -0.01846 *
 * P              22     -0.01846      0.01846      0.02967 *
 * P              23      0.02576     -0.02575      0.02575 *
 * P              24     -0.01847     -0.02968     -0.01847 *
 * P              25      0.02576      0.02576     -0.02575 *
 * P              26     -0.01846      0.02967      0.01846 *
 * P              27      0.02967     -0.01846      0.01846 *
 * P              28     -0.01847     -0.01847     -0.02968 *
 * P              29     -0.00742     -0.00743      0.00135 *
 * P              30      0.00135     -0.00742     -0.00742 *
 * P              31     -0.00742      0.00134     -0.00743 *
 * P              32      0.00263      0.00264      0.00264 *
 * In              1      0.00000      0.00000     -0.00000 *
 * In              2      0.00688     -0.01265      0.00688 *
 * In              3     -0.01265      0.00688      0.00688 *
 * In              4      0.00688      0.00688     -0.01265 *
 * In              5     -0.00000     -0.00000      0.00001 *
 * In              6      0.00688      0.01264     -0.00687 *
 * In              7      0.01264      0.00688     -0.00688 *
 * In              8     -0.02231     -0.02231      0.06422 *
 * In              9     -0.00000      0.00001     -0.00000 *
 * In             10     -0.02231      0.06423     -0.02231 *
 * In             11      0.01264     -0.00687      0.00688 *
 * In             12      0.00688     -0.00687      0.01264 *
 * In             13     -0.00000      0.00001      0.00001 *
 * In             14     -0.02231     -0.06422      0.02231 *
 * In             15     -0.01264     -0.00688     -0.00688 *
 * In             16     -0.02231      0.02231     -0.06422 *
 * In             17      0.00001      0.00000      0.00000 *
 * In             18     -0.00687      0.01264      0.00688 *
 * In             19      0.06423     -0.02231     -0.02231 *
 * In             20     -0.00687      0.00688      0.01264 *
 * In             21      0.00001     -0.00000      0.00001 *
 * In             22     -0.00687     -0.01265     -0.00688 *
 * In             23     -0.06422     -0.02231      0.02231 *
 * In             24      0.02231     -0.02231     -0.06422 *
 * In             25      0.00001      0.00001     -0.00001 *
 * In             26      0.02230     -0.06422     -0.02231 *
 * In             27     -0.06422      0.02231     -0.02231 *
 * In             28     -0.00687     -0.00688     -0.01265 *
 * In             29      0.02230      0.06422      0.02231 *
 * In             30      0.06422      0.02231      0.02231 *
 * In             31      0.02230      0.02231      0.06422 *
 *                                                          *
 ************************************************************

 Pseudo atomic calculation performed for P 3s2 3p3

 Converged in 23 iterations to a total energy of -208.0292 eV

 Pseudo atomic calculation performed for In 4d10 5s2 5p1

 Converged in 42 iterations to a total energy of -1747.4501 eV
Charge spilling parameter for spin component 1 = 0.16%
Charge spilling parameter for spin component 2 = 0.17%

                   Orbital Populations                  
  ---------------------------------------------------------------
     Ion    Atom   Orbital              Up        Down      Spin
  ---------------------------------------------------------------
      P     1      S                    0.873     0.872     0.001
      P     1      Px                   0.657     0.642     0.015
      P     1      Py                   0.657     0.642     0.015
      P     1      Pz                   0.659     0.654     0.006
      P     2      S                    0.873     0.872     0.001
      P     2      Px                   0.659     0.654     0.006
      P     2      Py                   0.657     0.642     0.015
      P     2      Pz                   0.657     0.642     0.015
      P     3      S                    0.873     0.872     0.001
      P     3      Px                   0.657     0.642     0.015
      P     3      Py                   0.659     0.654     0.006
      P     3      Pz                   0.657     0.642     0.015
      P     4      S                    0.913     0.892     0.022
      P     4      Px                   0.672     0.564     0.108
      P     4      Py                   0.672     0.564     0.108
      P     4      Pz                   0.672     0.564     0.108
      P     5      S                    0.870     0.870     0.001
      P     5      Px                   0.656     0.652     0.004
      P     5      Py                   0.656     0.652     0.004
      P     5      Pz                   0.656     0.652     0.004
      P     6      S                    0.869     0.869    -0.000
      P     6      Px                   0.654     0.656    -0.002
      P     6      Py                   0.654     0.655    -0.001
      P     6      Pz                   0.654     0.656    -0.002
      P     7      S                    0.869     0.869    -0.000
      P     7      Px                   0.654     0.655    -0.001
      P     7      Py                   0.654     0.656    -0.002
      P     7      Pz                   0.654     0.656    -0.002
      P     8      S                    0.869     0.869    -0.000
      P     8      Px                   0.654     0.656    -0.002
      P     8      Py                   0.654     0.656    -0.002
      P     8      Pz                   0.654     0.655    -0.001
      P     9      S                    0.869     0.869    -0.000
      P     9      Px                   0.654     0.655    -0.001
      P     9      Py                   0.654     0.656    -0.002
      P     9      Pz                   0.654     0.656    -0.002
      P    10      S                    0.869     0.869    -0.000
      P    10      Px                   0.654     0.656    -0.002
      P    10      Py                   0.654     0.656    -0.002
      P    10      Pz                   0.654     0.655    -0.001
      P    11      S                    0.870     0.870     0.001
      P    11      Px                   0.656     0.652     0.004
      P    11      Py                   0.656     0.652     0.004
      P    11      Pz                   0.656     0.652     0.004
      P    12      S                    0.869     0.869    -0.000
      P    12      Px                   0.654     0.656    -0.002
      P    12      Py                   0.654     0.655    -0.001
      P    12      Pz                   0.654     0.656    -0.002
      P    13      S                    0.873     0.872     0.001
      P    13      Px                   0.657     0.642     0.015
      P    13      Py                   0.659     0.654     0.006
      P    13      Pz                   0.657     0.642     0.015
      P    14      S                    0.913     0.892     0.022
      P    14      Px                   0.672     0.564     0.108
      P    14      Py                   0.672     0.564     0.108
      P    14      Pz                   0.672     0.564     0.108
      P    15      S                    0.873     0.872     0.001
      P    15      Px                   0.657     0.642     0.015
      P    15      Py                   0.657     0.642     0.015
      P    15      Pz                   0.659     0.654     0.006
      P    16      S                    0.873     0.872     0.001
      P    16      Px                   0.659     0.654     0.006
      P    16      Py                   0.657     0.642     0.015
      P    16      Pz                   0.657     0.642     0.015
      P    17      S                    0.869     0.869    -0.000
      P    17      Px                   0.654     0.656    -0.002
      P    17      Py                   0.654     0.655    -0.001
      P    17      Pz                   0.654     0.656    -0.002
      P    18      S                    0.870     0.870     0.001
      P    18      Px                   0.656     0.652     0.004
      P    18      Py                   0.656     0.652     0.004
      P    18      Pz                   0.656     0.652     0.004
      P    19      S                    0.869     0.869    -0.000
      P    19      Px                   0.654     0.656    -0.002
      P    19      Py                   0.654     0.656    -0.002
      P    19      Pz                   0.654     0.655    -0.001
      P    20      S                    0.869     0.869    -0.000
      P    20      Px                   0.654     0.655    -0.001
      P    20      Py                   0.654     0.656    -0.002
      P    20      Pz                   0.654     0.656    -0.002
      P    21      S                    0.873     0.872     0.001
      P    21      Px                   0.659     0.654     0.006
      P    21      Py                   0.657     0.642     0.015
      P    21      Pz                   0.657     0.642     0.015
      P    22      S                    0.873     0.872     0.001
      P    22      Px                   0.657     0.642     0.015
      P    22      Py                   0.657     0.642     0.015
      P    22      Pz                   0.659     0.654     0.006
      P    23      S                    0.913     0.892     0.022
      P    23      Px                   0.672     0.564     0.108
      P    23      Py                   0.672     0.564     0.108
      P    23      Pz                   0.672     0.564     0.108
      P    24      S                    0.873     0.872     0.001
      P    24      Px                   0.657     0.642     0.015
      P    24      Py                   0.659     0.654     0.006
      P    24      Pz                   0.657     0.642     0.015
      P    25      S                    0.913     0.892     0.022
      P    25      Px                   0.672     0.564     0.108
      P    25      Py                   0.672     0.564     0.108
      P    25      Pz                   0.672     0.564     0.108
      P    26      S                    0.873     0.872     0.001
      P    26      Px                   0.657     0.642     0.015
      P    26      Py                   0.659     0.654     0.006
      P    26      Pz                   0.657     0.642     0.015
      P    27      S                    0.873     0.872     0.001
      P    27      Px                   0.659     0.654     0.006
      P    27      Py                   0.657     0.642     0.015
      P    27      Pz                   0.657     0.642     0.015
      P    28      S                    0.873     0.872     0.001
      P    28      Px                   0.657     0.642     0.015
      P    28      Py                   0.657     0.642     0.015
      P    28      Pz                   0.659     0.654     0.006
      P    29      S                    0.869     0.869    -0.000
      P    29      Px                   0.654     0.656    -0.002
      P    29      Py                   0.654     0.656    -0.002
      P    29      Pz                   0.654     0.655    -0.001
      P    30      S                    0.869     0.869    -0.000
      P    30      Px                   0.654     0.655    -0.001
      P    30      Py                   0.654     0.656    -0.002
      P    30      Pz                   0.654     0.656    -0.002
      P    31      S                    0.869     0.869    -0.000
      P    31      Px                   0.654     0.656    -0.002
      P    31      Py                   0.654     0.655    -0.001
      P    31      Pz                   0.654     0.656    -0.002
      P    32      S                    0.870     0.870     0.001
      P    32      Px                   0.656     0.652     0.004
      P    32      Py                   0.656     0.652     0.004
      P    32      Pz                   0.656     0.652     0.004
     In     1      Dzz                  1.000     1.000     0.000
     In     1      Dzy                  0.998     0.998     0.000
     In     1      Dzx                  0.998     0.998     0.000
     In     1      Dxx-yy               1.000     1.000     0.000
     In     1      Dxy                  0.998     0.998     0.000
     In     1      S                    0.702     0.702     0.000
     In     1      Px                   0.240     0.240    -0.000
     In     1      Py                   0.240     0.240    -0.001
     In     1      Pz                   0.240     0.240    -0.001
     In     1      S                   -0.234    -0.234     0.000
     In     2      Dzz                  1.000     1.000     0.000
     In     2      Dzy                  0.998     0.998     0.000
     In     2      Dzx                  0.998     0.998     0.000
     In     2      Dxx-yy               1.000     1.000     0.000
     In     2      Dxy                  0.998     0.998     0.000
     In     2      S                    0.707     0.708    -0.001
     In     2      Px                   0.239     0.240    -0.001
     In     2      Py                   0.239     0.239    -0.001
     In     2      Pz                   0.239     0.240    -0.001
     In     2      S                   -0.267    -0.269     0.002
     In     3      Dzz                  1.000     1.000     0.000
     In     3      Dzy                  0.998     0.998     0.000
     In     3      Dzx                  0.998     0.998     0.000
     In     3      Dxx-yy               1.000     1.000     0.000
     In     3      Dxy                  0.998     0.998     0.000
     In     3      S                    0.707     0.708    -0.001
     In     3      Px                   0.239     0.239    -0.001
     In     3      Py                   0.239     0.240    -0.001
     In     3      Pz                   0.239     0.240    -0.001
     In     3      S                   -0.267    -0.269     0.002
     In     4      Dzz                  1.000     1.000     0.000
     In     4      Dzy                  0.998     0.998     0.000
     In     4      Dzx                  0.998     0.998     0.000
     In     4      Dxx-yy               1.000     1.000     0.000
     In     4      Dxy                  0.998     0.998     0.000
     In     4      S                    0.707     0.708    -0.001
     In     4      Px                   0.239     0.240    -0.001
     In     4      Py                   0.239     0.240    -0.001
     In     4      Pz                   0.239     0.239    -0.001
     In     4      S                   -0.267    -0.269     0.002
     In     5      Dzz                  1.000     1.000     0.000
     In     5      Dzy                  0.999     0.998     0.000
     In     5      Dzx                  0.999     0.998     0.000
     In     5      Dxx-yy               1.000     1.000     0.000
     In     5      Dxy                  0.999     0.999    -0.000
     In     5      S                    0.709     0.710    -0.001
     In     5      Px                   0.239     0.237     0.002
     In     5      Py                   0.239     0.237     0.002
     In     5      Pz                   0.243     0.240     0.003
     In     5      S                   -0.254    -0.250    -0.004
     In     6      Dzz                  1.000     1.000     0.000
     In     6      Dzy                  0.998     0.998     0.000
     In     6      Dzx                  0.998     0.998     0.000
     In     6      Dxx-yy               1.000     1.000     0.000
     In     6      Dxy                  0.998     0.998     0.000
     In     6      S                    0.707     0.708    -0.001
     In     6      Px                   0.239     0.240    -0.001
     In     6      Py                   0.239     0.239    -0.001
     In     6      Pz                   0.239     0.240    -0.001
     In     6      S                   -0.267    -0.269     0.002
     In     7      Dzz                  1.000     1.000     0.000
     In     7      Dzy                  0.998     0.998     0.000
     In     7      Dzx                  0.998     0.998     0.000
     In     7      Dxx-yy               1.000     1.000     0.000
     In     7      Dxy                  0.998     0.998     0.000
     In     7      S                    0.707     0.708    -0.001
     In     7      Px                   0.239     0.239    -0.001
     In     7      Py                   0.239     0.240    -0.001
     In     7      Pz                   0.239     0.240    -0.001
     In     7      S                   -0.267    -0.269     0.002
     In     8      Dzz                  1.000     1.000     0.000
     In     8      Dzy                  0.999     0.998     0.000
     In     8      Dzx                  0.999     0.998     0.000
     In     8      Dxx-yy               1.000     1.000     0.000
     In     8      Dxy                  0.998     0.998     0.000
     In     8      S                    0.705     0.709    -0.004
     In     8      Px                   0.238     0.239    -0.002
     In     8      Py                   0.238     0.239    -0.002
     In     8      Pz                   0.246     0.246    -0.000
     In     8      S                   -0.239    -0.236    -0.002
     In     9      Dzz                  1.000     1.000     0.000
     In     9      Dzy                  0.999     0.998     0.000
     In     9      Dzx                  0.999     0.999    -0.000
     In     9      Dxx-yy               1.000     1.000     0.000
     In     9      Dxy                  0.999     0.998     0.000
     In     9      S                    0.709     0.710    -0.001
     In     9      Px                   0.239     0.237     0.002
     In     9      Py                   0.243     0.240     0.003
     In     9      Pz                   0.239     0.237     0.002
     In     9      S                   -0.254    -0.250    -0.004
     In    10      Dzz                  1.000     1.000     0.000
     In    10      Dzy                  0.999     0.998     0.000
     In    10      Dzx                  0.998     0.998     0.000
     In    10      Dxx-yy               1.000     1.000     0.000
     In    10      Dxy                  0.999     0.998     0.000
     In    10      S                    0.705     0.709    -0.004
     In    10      Px                   0.238     0.239    -0.002
     In    10      Py                   0.246     0.246    -0.000
     In    10      Pz                   0.238     0.239    -0.002
     In    10      S                   -0.239    -0.236    -0.002
     In    11      Dzz                  1.000     1.000     0.000
     In    11      Dzy                  0.998     0.998     0.000
     In    11      Dzx                  0.998     0.998     0.000
     In    11      Dxx-yy               1.000     1.000     0.000
     In    11      Dxy                  0.998     0.998     0.000
     In    11      S                    0.707     0.708    -0.001
     In    11      Px                   0.239     0.239    -0.001
     In    11      Py                   0.239     0.240    -0.001
     In    11      Pz                   0.239     0.240    -0.001
     In    11      S                   -0.267    -0.269     0.002
     In    12      Dzz                  1.000     1.000     0.000
     In    12      Dzy                  0.998     0.998     0.000
     In    12      Dzx                  0.998     0.998     0.000
     In    12      Dxx-yy               1.000     1.000     0.000
     In    12      Dxy                  0.998     0.998     0.000
     In    12      S                    0.707     0.708    -0.001
     In    12      Px                   0.239     0.240    -0.001
     In    12      Py                   0.239     0.240    -0.001
     In    12      Pz                   0.239     0.239    -0.001
     In    12      S                   -0.267    -0.269     0.002
     In    13      Dzz                  1.000     1.000     0.000
     In    13      Dzy                  0.999     0.999    -0.000
     In    13      Dzx                  0.998     0.998    -0.000
     In    13      Dxx-yy               1.000     1.000     0.000
     In    13      Dxy                  0.998     0.998    -0.000
     In    13      S                    0.709     0.708     0.001
     In    13      Px                   0.238     0.238     0.000
     In    13      Py                   0.241     0.241     0.000
     In    13      Pz                   0.241     0.241     0.000
     In    13      S                   -0.276    -0.274    -0.002
     In    14      Dzz                  1.000     1.000     0.000
     In    14      Dzy                  0.999     0.998     0.000
     In    14      Dzx                  0.998     0.998     0.000
     In    14      Dxx-yy               1.000     1.000     0.000
     In    14      Dxy                  0.999     0.998     0.000
     In    14      S                    0.705     0.709    -0.004
     In    14      Px                   0.238     0.239    -0.002
     In    14      Py                   0.246     0.246    -0.000
     In    14      Pz                   0.238     0.239    -0.002
     In    14      S                   -0.239    -0.237    -0.002
     In    15      Dzz                  1.000     1.000     0.000
     In    15      Dzy                  0.998     0.998     0.000
     In    15      Dzx                  0.998     0.998     0.000
     In    15      Dxx-yy               1.000     1.000     0.000
     In    15      Dxy                  0.998     0.998     0.000
     In    15      S                    0.707     0.708    -0.001
     In    15      Px                   0.239     0.239    -0.001
     In    15      Py                   0.239     0.240    -0.001
     In    15      Pz                   0.239     0.240    -0.001
     In    15      S                   -0.267    -0.269     0.002
     In    16      Dzz                  1.000     1.000     0.000
     In    16      Dzy                  0.999     0.998     0.000
     In    16      Dzx                  0.999     0.998     0.000
     In    16      Dxx-yy               1.000     1.000     0.000
     In    16      Dxy                  0.998     0.998     0.000
     In    16      S                    0.705     0.709    -0.004
     In    16      Px                   0.238     0.239    -0.002
     In    16      Py                   0.238     0.239    -0.002
     In    16      Pz                   0.246     0.246    -0.000
     In    16      S                   -0.239    -0.237    -0.002
     In    17      Dzz                  1.000     1.000     0.000
     In    17      Dzy                  0.999     0.999    -0.000
     In    17      Dzx                  0.999     0.998     0.000
     In    17      Dxx-yy               1.000     1.000     0.000
     In    17      Dxy                  0.999     0.998     0.000
     In    17      S                    0.709     0.710    -0.001
     In    17      Px                   0.243     0.240     0.003
     In    17      Py                   0.239     0.237     0.002
     In    17      Pz                   0.239     0.237     0.002
     In    17      S                   -0.254    -0.250    -0.004
     In    18      Dzz                  1.000     1.000     0.000
     In    18      Dzy                  0.998     0.998     0.000
     In    18      Dzx                  0.998     0.998     0.000
     In    18      Dxx-yy               1.000     1.000     0.000
     In    18      Dxy                  0.998     0.998     0.000
     In    18      S                    0.707     0.708    -0.001
     In    18      Px                   0.239     0.240    -0.001
     In    18      Py                   0.239     0.239    -0.001
     In    18      Pz                   0.239     0.240    -0.001
     In    18      S                   -0.267    -0.269     0.002
     In    19      Dzz                  1.000     1.000     0.000
     In    19      Dzy                  0.998     0.998     0.000
     In    19      Dzx                  0.999     0.998     0.000
     In    19      Dxx-yy               1.000     1.000     0.000
     In    19      Dxy                  0.999     0.998     0.000
     In    19      S                    0.705     0.709    -0.004
     In    19      Px                   0.246     0.246    -0.000
     In    19      Py                   0.238     0.239    -0.002
     In    19      Pz                   0.238     0.239    -0.002
     In    19      S                   -0.239    -0.237    -0.002
     In    20      Dzz                  1.000     1.000     0.000
     In    20      Dzy                  0.998     0.998     0.000
     In    20      Dzx                  0.998     0.998     0.000
     In    20      Dxx-yy               1.000     1.000     0.000
     In    20      Dxy                  0.998     0.998     0.000
     In    20      S                    0.707     0.708    -0.001
     In    20      Px                   0.239     0.240    -0.001
     In    20      Py                   0.239     0.240    -0.001
     In    20      Pz                   0.239     0.239    -0.001
     In    20      S                   -0.267    -0.269     0.002
     In    21      Dzz                  1.000     1.000    -0.000
     In    21      Dzy                  0.998     0.998    -0.000
     In    21      Dzx                  0.998     0.999    -0.000
     In    21      Dxx-yy               1.000     1.000     0.000
     In    21      Dxy                  0.998     0.998    -0.000
     In    21      S                    0.709     0.708     0.001
     In    21      Px                   0.241     0.241     0.000
     In    21      Py                   0.238     0.238     0.000
     In    21      Pz                   0.241     0.241     0.000
     In    21      S                   -0.276    -0.274    -0.002
     In    22      Dzz                  1.000     1.000     0.000
     In    22      Dzy                  0.998     0.998     0.000
     In    22      Dzx                  0.998     0.998     0.000
     In    22      Dxx-yy               1.000     1.000     0.000
     In    22      Dxy                  0.998     0.998     0.000
     In    22      S                    0.707     0.708    -0.001
     In    22      Px                   0.239     0.240    -0.001
     In    22      Py                   0.239     0.239    -0.001
     In    22      Pz                   0.239     0.240    -0.001
     In    22      S                   -0.267    -0.269     0.002
     In    23      Dzz                  1.000     1.000     0.000
     In    23      Dzy                  0.998     0.998     0.000
     In    23      Dzx                  0.999     0.998     0.000
     In    23      Dxx-yy               1.000     1.000     0.000
     In    23      Dxy                  0.999     0.998     0.000
     In    23      S                    0.705     0.709    -0.004
     In    23      Px                   0.246     0.246    -0.000
     In    23      Py                   0.238     0.239    -0.002
     In    23      Pz                   0.238     0.239    -0.002
     In    23      S                   -0.239    -0.236    -0.002
     In    24      Dzz                  1.000     1.000     0.000
     In    24      Dzy                  0.999     0.998     0.000
     In    24      Dzx                  0.999     0.998     0.000
     In    24      Dxx-yy               1.000     1.000     0.000
     In    24      Dxy                  0.998     0.998     0.000
     In    24      S                    0.705     0.709    -0.004
     In    24      Px                   0.238     0.239    -0.002
     In    24      Py                   0.238     0.239    -0.002
     In    24      Pz                   0.246     0.246    -0.000
     In    24      S                   -0.239    -0.236    -0.002
     In    25      Dzz                  1.000     1.000     0.000
     In    25      Dzy                  0.998     0.998    -0.000
     In    25      Dzx                  0.998     0.998    -0.000
     In    25      Dxx-yy               1.000     1.000    -0.000
     In    25      Dxy                  0.999     0.999    -0.000
     In    25      S                    0.709     0.708     0.001
     In    25      Px                   0.241     0.241     0.000
     In    25      Py                   0.241     0.241     0.000
     In    25      Pz                   0.238     0.238     0.000
     In    25      S                   -0.276    -0.274    -0.002
     In    26      Dzz                  1.000     1.000     0.000
     In    26      Dzy                  0.999     0.998     0.000
     In    26      Dzx                  0.998     0.998     0.000
     In    26      Dxx-yy               1.000     1.000     0.000
     In    26      Dxy                  0.999     0.998     0.000
     In    26      S                    0.705     0.709    -0.004
     In    26      Px                   0.238     0.239    -0.002
     In    26      Py                   0.246     0.246    -0.000
     In    26      Pz                   0.238     0.239    -0.002
     In    26      S                   -0.239    -0.236    -0.002
     In    27      Dzz                  1.000     1.000     0.000
     In    27      Dzy                  0.998     0.998     0.000
     In    27      Dzx                  0.999     0.998     0.000
     In    27      Dxx-yy               1.000     1.000     0.000
     In    27      Dxy                  0.999     0.998     0.000
     In    27      S                    0.705     0.709    -0.004
     In    27      Px                   0.246     0.246    -0.000
     In    27      Py                   0.238     0.239    -0.002
     In    27      Pz                   0.238     0.239    -0.002
     In    27      S                   -0.239    -0.236    -0.002
     In    28      Dzz                  1.000     1.000     0.000
     In    28      Dzy                  0.998     0.998     0.000
     In    28      Dzx                  0.998     0.998     0.000
     In    28      Dxx-yy               1.000     1.000     0.000
     In    28      Dxy                  0.998     0.998     0.000
     In    28      S                    0.707     0.708    -0.001
     In    28      Px                   0.239     0.240    -0.001
     In    28      Py                   0.239     0.240    -0.001
     In    28      Pz                   0.239     0.239    -0.001
     In    28      S                   -0.267    -0.269     0.002
     In    29      Dzz                  1.000     1.000     0.000
     In    29      Dzy                  0.999     0.998     0.000
     In    29      Dzx                  0.998     0.998     0.000
     In    29      Dxx-yy               1.000     1.000     0.000
     In    29      Dxy                  0.999     0.998     0.000
     In    29      S                    0.705     0.709    -0.004
     In    29      Px                   0.238     0.239    -0.002
     In    29      Py                   0.246     0.246    -0.000
     In    29      Pz                   0.238     0.239    -0.002
     In    29      S                   -0.239    -0.236    -0.002
     In    30      Dzz                  1.000     1.000     0.000
     In    30      Dzy                  0.998     0.998     0.000
     In    30      Dzx                  0.999     0.998     0.000
     In    30      Dxx-yy               1.000     1.000     0.000
     In    30      Dxy                  0.999     0.998     0.000
     In    30      S                    0.705     0.709    -0.004
     In    30      Px                   0.246     0.246    -0.000
     In    30      Py                   0.238     0.239    -0.002
     In    30      Pz                   0.238     0.239    -0.002
     In    30      S                   -0.239    -0.236    -0.002
     In    31      Dzz                  1.000     1.000     0.000
     In    31      Dzy                  0.999     0.998     0.000
     In    31      Dzx                  0.999     0.998     0.000
     In    31      Dxx-yy               1.000     1.000     0.000
     In    31      Dxy                  0.998     0.998     0.000
     In    31      S                    0.705     0.709    -0.004
     In    31      Px                   0.238     0.239    -0.002
     In    31      Py                   0.238     0.239    -0.002
     In    31      Pz                   0.246     0.246    -0.000
     In    31      S                   -0.239    -0.236    -0.002
  ---------------------------------------------------------------
                           Total:     282.357   280.642     1.715
  ---------------------------------------------------------------

     Atomic Populations (Mulliken)
     -----------------------------
Species          Ion Spin      s       p       d       f      Total   Charge(e)   Spin(hbar/2)
==============================================================================================
  P               1   up:     0.873   1.974   0.000   0.000   2.847    -0.656        0.038
                  1   dn:     0.872   1.937   0.000   0.000   2.809
  P               2   up:     0.873   1.974   0.000   0.000   2.847    -0.656        0.038
                  2   dn:     0.872   1.937   0.000   0.000   2.809
  P               3   up:     0.873   1.974   0.000   0.000   2.847    -0.656        0.038
                  3   dn:     0.872   1.937   0.000   0.000   2.809
  P               4   up:     0.913   2.017   0.000   0.000   2.930    -0.514        0.346
                  4   dn:     0.892   1.692   0.000   0.000   2.584
  P               5   up:     0.870   1.967   0.000   0.000   2.838    -0.664        0.012
                  5   dn:     0.870   1.956   0.000   0.000   2.826
  P               6   up:     0.869   1.962   0.000   0.000   2.831    -0.666       -0.005
                  6   dn:     0.869   1.966   0.000   0.000   2.835
  P               7   up:     0.869   1.962   0.000   0.000   2.831    -0.666       -0.005
                  7   dn:     0.869   1.966   0.000   0.000   2.835
  P               8   up:     0.869   1.962   0.000   0.000   2.831    -0.666       -0.005
                  8   dn:     0.869   1.966   0.000   0.000   2.835
  P               9   up:     0.869   1.962   0.000   0.000   2.831    -0.666       -0.005
                  9   dn:     0.869   1.966   0.000   0.000   2.835
  P              10   up:     0.869   1.962   0.000   0.000   2.831    -0.666       -0.005
                 10   dn:     0.869   1.966   0.000   0.000   2.835
  P              11   up:     0.870   1.967   0.000   0.000   2.838    -0.664        0.012
                 11   dn:     0.870   1.956   0.000   0.000   2.826
  P              12   up:     0.869   1.962   0.000   0.000   2.831    -0.666       -0.005
                 12   dn:     0.869   1.966   0.000   0.000   2.835
  P              13   up:     0.873   1.974   0.000   0.000   2.847    -0.656        0.038
                 13   dn:     0.872   1.937   0.000   0.000   2.809
  P              14   up:     0.913   2.017   0.000   0.000   2.930    -0.514        0.346
                 14   dn:     0.892   1.692   0.000   0.000   2.584
  P              15   up:     0.873   1.974   0.000   0.000   2.847    -0.656        0.038
                 15   dn:     0.872   1.937   0.000   0.000   2.809
  P              16   up:     0.873   1.974   0.000   0.000   2.847    -0.656        0.038
                 16   dn:     0.872   1.937   0.000   0.000   2.809
  P              17   up:     0.869   1.962   0.000   0.000   2.831    -0.666       -0.005
                 17   dn:     0.869   1.966   0.000   0.000   2.835
  P              18   up:     0.870   1.967   0.000   0.000   2.838    -0.664        0.012
                 18   dn:     0.870   1.956   0.000   0.000   2.826
  P              19   up:     0.869   1.962   0.000   0.000   2.831    -0.666       -0.005
                 19   dn:     0.869   1.966   0.000   0.000   2.835
  P              20   up:     0.869   1.962   0.000   0.000   2.831    -0.666       -0.005
                 20   dn:     0.869   1.966   0.000   0.000   2.835
  P              21   up:     0.873   1.974   0.000   0.000   2.847    -0.656        0.038
                 21   dn:     0.872   1.937   0.000   0.000   2.809
  P              22   up:     0.873   1.974   0.000   0.000   2.847    -0.656        0.038
                 22   dn:     0.872   1.937   0.000   0.000   2.809
  P              23   up:     0.913   2.017   0.000   0.000   2.930    -0.514        0.346
                 23   dn:     0.892   1.692   0.000   0.000   2.584
  P              24   up:     0.873   1.974   0.000   0.000   2.847    -0.656        0.038
                 24   dn:     0.872   1.937   0.000   0.000   2.809
  P              25   up:     0.913   2.017   0.000   0.000   2.930    -0.514        0.346
                 25   dn:     0.892   1.692   0.000   0.000   2.584
  P              26   up:     0.873   1.974   0.000   0.000   2.847    -0.656        0.038
                 26   dn:     0.872   1.937   0.000   0.000   2.809
  P              27   up:     0.873   1.974   0.000   0.000   2.847    -0.656        0.038
                 27   dn:     0.872   1.937   0.000   0.000   2.809
  P              28   up:     0.873   1.974   0.000   0.000   2.847    -0.656        0.038
                 28   dn:     0.872   1.937   0.000   0.000   2.809
  P              29   up:     0.869   1.962   0.000   0.000   2.831    -0.666       -0.005
                 29   dn:     0.869   1.966   0.000   0.000   2.835
  P              30   up:     0.869   1.962   0.000   0.000   2.831    -0.666       -0.005
                 30   dn:     0.869   1.966   0.000   0.000   2.835
  P              31   up:     0.869   1.962   0.000   0.000   2.831    -0.666       -0.005
                 31   dn:     0.869   1.966   0.000   0.000   2.835
  P              32   up:     0.870   1.967   0.000   0.000   2.838    -0.664        0.012
                 32   dn:     0.870   1.956   0.000   0.000   2.826
  In              1   up:     0.468   0.719   4.995   0.000   6.182     0.636       -0.001
                  1   dn:     0.468   0.720   4.995   0.000   6.182
  In              2   up:     0.440   0.718   4.995   0.000   6.152     0.694       -0.001
                  2   dn:     0.439   0.720   4.995   0.000   6.154
  In              3   up:     0.440   0.718   4.995   0.000   6.152     0.694       -0.001
                  3   dn:     0.439   0.720   4.995   0.000   6.154
  In              4   up:     0.440   0.718   4.995   0.000   6.152     0.694       -0.001
                  4   dn:     0.439   0.720   4.995   0.000   6.154
  In              5   up:     0.455   0.720   4.995   0.000   6.170     0.661        0.002
                  5   dn:     0.460   0.714   4.994   0.000   6.168
  In              6   up:     0.440   0.718   4.995   0.000   6.152     0.694       -0.001
                  6   dn:     0.439   0.720   4.995   0.000   6.154
  In              7   up:     0.440   0.718   4.995   0.000   6.152     0.694       -0.001
                  7   dn:     0.439   0.720   4.995   0.000   6.154
  In              8   up:     0.466   0.722   4.995   0.000   6.183     0.626       -0.009
                  8   dn:     0.472   0.725   4.994   0.000   6.192
  In              9   up:     0.455   0.720   4.995   0.000   6.170     0.662        0.002
                  9   dn:     0.460   0.714   4.994   0.000   6.168
  In             10   up:     0.466   0.722   4.995   0.000   6.183     0.626       -0.009
                 10   dn:     0.472   0.725   4.994   0.000   6.192
  In             11   up:     0.440   0.718   4.995   0.000   6.152     0.694       -0.001
                 11   dn:     0.439   0.720   4.995   0.000   6.154
  In             12   up:     0.440   0.718   4.995   0.000   6.152     0.694       -0.001
                 12   dn:     0.439   0.720   4.995   0.000   6.154
  In             13   up:     0.433   0.720   4.995   0.000   6.148     0.704       -0.001
                 13   dn:     0.435   0.719   4.995   0.000   6.148
  In             14   up:     0.466   0.722   4.995   0.000   6.183     0.626       -0.009
                 14   dn:     0.472   0.725   4.994   0.000   6.192
  In             15   up:     0.440   0.718   4.995   0.000   6.152     0.694       -0.001
                 15   dn:     0.439   0.720   4.995   0.000   6.154
  In             16   up:     0.466   0.722   4.995   0.000   6.183     0.626       -0.009
                 16   dn:     0.472   0.725   4.994   0.000   6.192
  In             17   up:     0.455   0.720   4.995   0.000   6.170     0.662        0.002
                 17   dn:     0.460   0.714   4.994   0.000   6.168
  In             18   up:     0.440   0.718   4.995   0.000   6.152     0.694       -0.001
                 18   dn:     0.439   0.720   4.995   0.000   6.154
  In             19   up:     0.466   0.722   4.995   0.000   6.183     0.626       -0.009
                 19   dn:     0.472   0.725   4.994   0.000   6.192
  In             20   up:     0.440   0.718   4.995   0.000   6.152     0.694       -0.001
                 20   dn:     0.439   0.720   4.995   0.000   6.154
  In             21   up:     0.433   0.720   4.995   0.000   6.148     0.704       -0.001
                 21   dn:     0.435   0.719   4.995   0.000   6.148
  In             22   up:     0.440   0.718   4.995   0.000   6.152     0.694       -0.001
                 22   dn:     0.439   0.720   4.995   0.000   6.154
  In             23   up:     0.466   0.722   4.995   0.000   6.183     0.626       -0.009
                 23   dn:     0.472   0.725   4.994   0.000   6.192
  In             24   up:     0.466   0.722   4.995   0.000   6.183     0.626       -0.009
                 24   dn:     0.472   0.725   4.994   0.000   6.192
  In             25   up:     0.433   0.720   4.995   0.000   6.148     0.704       -0.001
                 25   dn:     0.435   0.719   4.995   0.000   6.148
  In             26   up:     0.466   0.722   4.995   0.000   6.183     0.626       -0.009
                 26   dn:     0.472   0.725   4.994   0.000   6.192
  In             27   up:     0.466   0.722   4.995   0.000   6.183     0.626       -0.009
                 27   dn:     0.472   0.725   4.994   0.000   6.192
  In             28   up:     0.440   0.718   4.995   0.000   6.152     0.694       -0.001
                 28   dn:     0.439   0.720   4.995   0.000   6.154
  In             29   up:     0.466   0.722   4.995   0.000   6.183     0.626       -0.009
                 29   dn:     0.472   0.725   4.994   0.000   6.192
  In             30   up:     0.466   0.722   4.995   0.000   6.183     0.626       -0.009
                 30   dn:     0.472   0.725   4.994   0.000   6.192
  In             31   up:     0.466   0.722   4.995   0.000   6.183     0.626       -0.009
                 31   dn:     0.472   0.725   4.994   0.000   6.192
==============================================================================================

                 Bond                   Population        Spin       Length (A)
================================================================================
              P 14 -- In 30                  0.74        -0.00          2.54011
              P 14 -- In 16                  0.74        -0.00          2.54011
              P 23 -- In 23                  0.74        -0.00          2.54011
              P 14 -- In 14                  0.74        -0.00          2.54011
              P 25 -- In 31                  0.74        -0.00          2.54011
              P 23 -- In 29                  0.74        -0.00          2.54011
              P 23 -- In 24                  0.74        -0.00          2.54011
              P 25 -- In 26                  0.74        -0.00          2.54011
              P 25 -- In 27                  0.74        -0.00          2.54011
              P 4  -- In 8                   0.74        -0.00          2.54012
              P 4  -- In 19                  0.74        -0.00          2.54012
              P 4  -- In 10                  0.74        -0.00          2.54012
              P 31 -- In 22                  0.67         0.00          2.55505
              P 30 -- In 15                  0.67         0.00          2.55505
              P 29 -- In 28                  0.67         0.00          2.55505
              P 19 -- In 20                  0.67         0.00          2.55505
              P 17 -- In 18                  0.67         0.00          2.55505
              P 9  -- In 11                  0.67         0.00          2.55505
              P 7  -- In 7                   0.67         0.00          2.55505
              P 6  -- In 6                   0.67         0.00          2.55505
              P 10 -- In 12                  0.67         0.00          2.55505
              P 12 -- In 2                   0.67         0.00          2.55505
              P 20 -- In 3                   0.67         0.00          2.55505
              P 8  -- In 4                   0.67         0.00          2.55505
              P 32 -- In 1                   0.64        -0.00          2.55674
              P 18 -- In 1                   0.64        -0.00          2.55674
              P 11 -- In 1                   0.64        -0.00          2.55674
              P 5  -- In 1                   0.64        -0.00          2.55675
              P 21 -- In 20                  0.65        -0.00          2.55961
              P 27 -- In 18                  0.65        -0.00          2.55961
              P 26 -- In 11                  0.65        -0.00          2.55961
              P 22 -- In 7                   0.65        -0.00          2.55961
              P 15 -- In 6                   0.65        -0.00          2.55961
              P 13 -- In 12                  0.65        -0.00          2.55961
              P 27 -- In 28                  0.65        -0.00          2.55961
              P 21 -- In 22                  0.65        -0.00          2.55961
              P 2  -- In 4                   0.65        -0.00          2.55961
              P 1  -- In 3                   0.65        -0.00          2.55961
              P 3  -- In 4                   0.65        -0.00          2.55961
              P 2  -- In 2                   0.65        -0.00          2.55961
              P 3  -- In 3                   0.65        -0.00          2.55961
              P 1  -- In 2                   0.65        -0.00          2.55961
              P 22 -- In 22                  0.65        -0.00          2.55961
              P 15 -- In 15                  0.65        -0.00          2.55961
              P 26 -- In 28                  0.65        -0.00          2.55961
              P 13 -- In 15                  0.65        -0.00          2.55961
              P 24 -- In 7                   0.65        -0.00          2.55961
              P 28 -- In 18                  0.65        -0.00          2.55961
              P 28 -- In 11                  0.65        -0.00          2.55961
              P 24 -- In 20                  0.65        -0.00          2.55961
              P 16 -- In 6                   0.65        -0.00          2.55961
              P 16 -- In 12                  0.65        -0.00          2.55961
              P 12 -- In 21                  0.65        -0.00          2.56016
              P 20 -- In 13                  0.65        -0.00          2.56016
              P 8  -- In 25                  0.65        -0.00          2.56016
              P 10 -- In 25                  0.65        -0.00          2.56016
              P 19 -- In 25                  0.65        -0.00          2.56016
              P 17 -- In 21                  0.65        -0.00          2.56016
              P 9  -- In 13                  0.65        -0.00          2.56016
              P 7  -- In 13                  0.65        -0.00          2.56016
              P 6  -- In 21                  0.65        -0.00          2.56016
              P 31 -- In 21                  0.65        -0.00          2.56016
              P 30 -- In 13                  0.65        -0.00          2.56016
              P 29 -- In 25                  0.65        -0.00          2.56016
              P 18 -- In 3                   0.65         0.00          2.56271
              P 11 -- In 2                   0.65         0.00          2.56271
              P 32 -- In 15                  0.65         0.00          2.56271
              P 5  -- In 4                   0.65         0.00          2.56271
              P 5  -- In 6                   0.65         0.00          2.56271
              P 5  -- In 7                   0.65         0.00          2.56271
              P 18 -- In 18                  0.65         0.00          2.56271
              P 11 -- In 11                  0.65         0.00          2.56271
              P 11 -- In 12                  0.65         0.00          2.56271
              P 18 -- In 20                  0.65         0.00          2.56271
              P 32 -- In 28                  0.65         0.00          2.56271
              P 32 -- In 22                  0.65         0.00          2.56271
              P 16 -- In 17                  0.63         0.00          2.56429
              P 28 -- In 5                   0.63         0.00          2.56429
              P 24 -- In 9                   0.63         0.00          2.56429
              P 3  -- In 9                   0.63         0.00          2.56429
              P 1  -- In 5                   0.63         0.00          2.56429
              P 2  -- In 17                  0.63         0.00          2.56429
              P 26 -- In 9                   0.63         0.00          2.56429
              P 22 -- In 5                   0.63         0.00          2.56429
              P 15 -- In 5                   0.63         0.00          2.56429
              P 13 -- In 9                   0.63         0.00          2.56429
              P 27 -- In 17                  0.63         0.00          2.56429
              P 21 -- In 17                  0.63         0.00          2.56429
              P 7  -- In 14                  0.64         0.00          2.56763
              P 6  -- In 23                  0.64         0.00          2.56763
              P 9  -- In 16                  0.64         0.00          2.56763
              P 19 -- In 26                  0.64         0.00          2.56763
              P 10 -- In 27                  0.64         0.00          2.56763
              P 17 -- In 24                  0.64         0.00          2.56763
              P 30 -- In 29                  0.64         0.00          2.56763
              P 30 -- In 31                  0.64         0.00          2.56763
              P 29 -- In 30                  0.64         0.00          2.56763
              P 20 -- In 26                  0.64         0.00          2.56763
              P 20 -- In 24                  0.64         0.00          2.56763
              P 12 -- In 27                  0.64         0.00          2.56763
              P 8  -- In 23                  0.64         0.00          2.56763
              P 8  -- In 14                  0.64         0.00          2.56763
              P 19 -- In 19                  0.64         0.00          2.56763
              P 7  -- In 8                   0.64         0.00          2.56763
              P 6  -- In 8                   0.64         0.00          2.56763
              P 17 -- In 19                  0.64         0.00          2.56763
              P 10 -- In 10                  0.64         0.00          2.56763
              P 9  -- In 10                  0.64         0.00          2.56763
              P 29 -- In 29                  0.64         0.00          2.56763
              P 31 -- In 30                  0.64         0.00          2.56763
              P 12 -- In 16                  0.64         0.00          2.56763
              P 31 -- In 31                  0.64         0.00          2.56763
              P 2  -- In 19                  0.61        -0.00          2.58624
              P 3  -- In 10                  0.61        -0.00          2.58624
              P 1  -- In 8                   0.61        -0.00          2.58624
              P 22 -- In 24                  0.61        -0.00          2.58624
              P 26 -- In 26                  0.61        -0.00          2.58624
              P 27 -- In 27                  0.61        -0.00          2.58624
              P 15 -- In 16                  0.61        -0.00          2.58624
              P 13 -- In 14                  0.61        -0.00          2.58624
              P 24 -- In 29                  0.61        -0.00          2.58624
              P 28 -- In 31                  0.61        -0.00          2.58624
              P 16 -- In 30                  0.61        -0.00          2.58624
              P 21 -- In 23                  0.61        -0.00          2.58624
================================================================================

 Hirshfeld supercell size:           2           2           2
Standard grid dimensions: 240 240 240
Fine grid dimensions:     240 240 240


     Hirshfeld Analysis
     ------------------
Species   Ion     Hirshfeld Charge (e)  Spin (hbar/2)
===================================================
  P        1                -0.23        0.03
  P        2                -0.23        0.03
  P        3                -0.23        0.03
  P        4                -0.19        0.28
  P        5                -0.23        0.01
  P        6                -0.24       -0.00
  P        7                -0.24       -0.00
  P        8                -0.24       -0.00
  P        9                -0.24       -0.00
  P       10                -0.24       -0.00
  P       11                -0.23        0.01
  P       12                -0.24       -0.00
  P       13                -0.23        0.03
  P       14                -0.19        0.28
  P       15                -0.23        0.03
  P       16                -0.23        0.03
  P       17                -0.24       -0.00
  P       18                -0.23        0.01
  P       19                -0.24       -0.00
  P       20                -0.24       -0.00
  P       21                -0.23        0.03
  P       22                -0.23        0.03
  P       23                -0.19        0.28
  P       24                -0.23        0.03
  P       25                -0.19        0.28
  P       26                -0.23        0.03
  P       27                -0.23        0.03
  P       28                -0.23        0.03
  P       29                -0.24       -0.00
  P       30                -0.24       -0.00
  P       31                -0.24       -0.00
  P       32                -0.23        0.01
  In       1                 0.24        0.00
  In       2                 0.24        0.00
  In       3                 0.24        0.00
  In       4                 0.24        0.00
  In       5                 0.24        0.01
  In       6                 0.24        0.00
  In       7                 0.24        0.00
  In       8                 0.23        0.02
  In       9                 0.24        0.01
  In      10                 0.23        0.02
  In      11                 0.24        0.00
  In      12                 0.24        0.00
  In      13                 0.23       -0.00
  In      14                 0.23        0.02
  In      15                 0.24        0.00
  In      16                 0.23        0.02
  In      17                 0.24        0.01
  In      18                 0.24        0.00
  In      19                 0.23        0.02
  In      20                 0.24        0.00
  In      21                 0.23       -0.00
  In      22                 0.24        0.00
  In      23                 0.23        0.02
  In      24                 0.23        0.02
  In      25                 0.23       -0.00
  In      26                 0.23        0.02
  In      27                 0.23        0.02
  In      28                 0.24        0.00
  In      29                 0.23        0.02
  In      30                 0.23        0.02
  In      31                 0.23        0.02
===================================================

 
 A BibTeX formatted list of references used in this run has been written to 
 In_Vacancy_Migration_3->60_Singlepoints_0.bib
 
Initialisation time =     30.00 s
Calculation time    =   8666.91 s
Finalisation time   =    157.36 s
Total time          =   8854.27 s
Peak Memory Use     = 9571904 kB
 
Overall parallel efficiency rating: Terrible (34%)
 
Data was distributed by:-
G-vector (3-way); efficiency rating: Poor (37%)
k-point (36-way); efficiency rating: Very good (84%)
