 +-------------------------------------------------+
 |                                                 |
 |      CCC   AA    SSS  TTTTT  EEEEE  PPPP        |
 |     C     A  A  S       T    E      P   P       |
 |     C     AAAA   SS     T    EEE    PPPP        |
 |     C     A  A     S    T    E      P           |
 |      CCC  A  A  SSS     T    EEEEE  P           |
 |                                                 |
 +-------------------------------------------------+
 |                                                 |
 | Welcome to Academic Release CASTEP version 24.1 |
 | Ab Initio Total Energy Program                  |
 |                                                 |
 | Authors:                                        |
 | M. Segall, M. Probert, C. Pickard, P. Hasnip,   |
 | S. Clark, K. Refson, J. R. Yates,               |
 | A. Bartok-Partay, M. Payne                      |
 |                                                 |
 | Contributors:                                   |
 | P. Lindan, P. Haynes, J. White, V. Milman,      |
 | N. Govind, M. Gibson, P. Tulip, V. Cocula,      |
 | B. Montanari, D. Quigley, M. Glover,            |
 | L. Bernasconi, A. Perlov, M. Plummer,           |
 | E. McNellis, J. Meyer, J. Gale, D. Jochym       |
 | J. Aarons, B. Walker, R. Gillen, D. Jones       |
 | T. Green, I. J. Bush, C. J. Armstrong,          |
 | E. J. Higgins, E. L. Brown, M. S. McFly,        |
 | J. Wilkins, B-C. Shih, P. J. P. Byrne,          |
 | R. J. Maurer, J. C. Womack, J. Dziedzic,        |
 | L. LeBlanc, T. K. Stenczel, J. Kermode,         |
 | S. Sturniolo, B. Shi, B. Durham, M. Evans,      |
 | M. J. Smith, A. Tamerus, Z. Hawkhead,           |
 | V. Ravindran, T. Hollins, S. A. Joyce,          |
 | R. T. Strong, A. M. Reilly, S. J. Donaldson     |
 |                                                 |
 | Copyright (c) 2000 - 2023                       |
 |                                                 |
 |     Distributed under license from Cambridge    |
 |     Enterprise for academic use only.           |
 |                                                 |
 | Please cite                                     |
 |                                                 |
 |     "First principles methods using CASTEP"     |
 |                                                 |
 |         Zeitschrift fuer Kristallographie       |
 |           220(5-6) pp. 567-570 (2005)           |
 |                                                 |
 | S. J. Clark, M. D. Segall, C. J. Pickard,       |
 | P. J. Hasnip, M. J. Probert, K. Refson,         |
 | M. C. Payne                                     |
 |                                                 |
 |       in all publications arising from          |
 |              your use of CASTEP                 |
 |                                                 |
 +-------------------------------------------------+
 |                                                 |
 |              http://www.castep.org              |
 |                                                 |
 +-------------------------------------------------+



 Compiled for  GNU 11.2.0 on 04-04-2024 18:39:17
 from code version 6355fd106 Castep241_branch Thu Mar 7 17:56:19 2024 +0000
 Compiler: GNU Fortran 11.2.0; Optimisation: FAST
 Comms   : MPI VERSION : CRAY MPICH version 8.1.23.14 (ANL base 3.4a2)
 MATHLIBS: default (LAPACK version 3.10.1)
 FFT Lib : fftw3 version commercial-fftw-3.3.10-sse2-avx-avx2-avx2_128
 Fundamental constants values: CODATA 2018

 Run started: Sun, 27 Apr 2025 05:18:29 +0100

 Atomic calculation performed for P: 1s2 2s2 2p6 3s2 3p3

 Converged in 47 iterations to an ae energy of -9309.074 eV

   ============================================================                
   | Pseudopotential Report - Date of generation 27-04-2025   |                
   ------------------------------------------------------------                
   | Element: P Ionic charge:  5.00 Level of theory: RSCAN    |                
   | Atomic Solver: Koelling-Harmon                           |                
   |                                                          |                
   |               Reference Electronic Structure             |                
   |         Orbital         Occupation         Energy        |                
   |            3s              2.000           -0.535        |                
   |            3p              3.000           -0.209        |                
   |                                                          |                
   |                 Pseudopotential Definition               |                
   |        Beta     l      e      Rc     scheme   norm       |                
   |          1      0   -0.535   1.807     qc      0         |                
   |          2      0    0.250   1.807     qc      0         |                
   |          3      1   -0.209   1.807     qc      0         |                
   |          4      1    0.250   1.807     qc      0         |                
   |          5      2    0.000   1.807     qc      0         |                
   |          6      2    0.250   1.807     qc      0         |                
   |         loc     3    0.000   1.807     pn      0         |                
   |                                                          |                
   | Augmentation charge Rinner = 1.263                       |                
   | Partial core correction Rc = 1.263                       |                
   ------------------------------------------------------------                
   | "3|1.8|4|4|5|30:31:32"                                   |                
   ------------------------------------------------------------                
   |      Author: Chris J. Pickard, Cambridge University      |                
   ============================================================                
 Warning: otfg_output_psp cannot write out meta-GGA pseudopotentials presently.

 Atomic calculation performed for In:
 1s2 2s2 2p6 3s2 3p6 3d10 4s2 4p6 4d10 5s2 5p1

 Converged in 84 iterations to an ae energy of -160093.328 eV

   ============================================================                
   | Pseudopotential Report - Date of generation 27-04-2025   |                
   ------------------------------------------------------------                
   | Element: In Ionic charge: 13.00 Level of theory: RSCAN   |                
   | Atomic Solver: Koelling-Harmon                           |                
   |                                                          |                
   |               Reference Electronic Structure             |                
   |         Orbital         Occupation         Energy        |                
   |            4d             10.000           -0.711        |                
   |            5s              2.000           -0.313        |                
   |            5p              1.000           -0.095        |                
   |                                                          |                
   |                 Pseudopotential Definition               |                
   |        Beta     l      e      Rc     scheme   norm       |                
   |          1      0   -0.313   2.501     qc      0         |                
   |          2      0    0.250   2.501     qc      0         |                
   |          3      1   -0.095   2.501     qc      0         |                
   |          4      1    0.250   2.501     qc      0         |                
   |          5      2   -0.711   2.207     qc      0         |                
   |          6      2    0.250   2.207     qc      0         |                
   |         loc     3    0.000   2.501     pn      0         |                
   |                                                          |                
   | Augmentation charge Rinner = 1.504                       |                
   | Partial core correction Rc = 1.504                       |                
   ------------------------------------------------------------                
   | "3|2.5|2.5|1.5|7|8|9|50:51:42U2.2U2.2"                   |                
   ------------------------------------------------------------                
   |      Author: Chris J. Pickard, Cambridge University      |                
   ============================================================                
 Warning: otfg_output_psp cannot write out meta-GGA pseudopotentials presently.

 Pseudo atomic calculation performed for P 3s2 3p3

 Converged in 23 iterations to a total energy of -208.0292 eV

 Pseudo atomic calculation performed for In 4d10 5s2 5p1

 Converged in 42 iterations to a total energy of -1747.4501 eV
 Calculation parallelised over 108 processes.
 Data is distributed by G-vector(3-way) and k-point(36-way)
 Each process may use up to 16 threads.

 ************************************ Title ************************************
 

 ***************************** General Parameters ******************************
  
 output verbosity                               : normal  (1)
 write checkpoint data to                       : P_Interstitial_Migration_Dumbbell#_Dumbbell+_Singlepoints_4.check
 type of calculation                            : single point energy
 stress calculation                             : off
 density difference calculation                 : off
 electron localisation func (ELF) calculation   : off
 Hirshfeld analysis                             : on
 polarisation (Berry phase) analysis            : off
 molecular orbital projected DOS                : off
 deltaSCF calculation                           : off
 unlimited duration calculation
 timing information                             : on
 memory usage estimate                          : on
 write extra output files                       : on
 write final potential to formatted file        : off
 write final density to formatted file          : off
 write BibTeX reference list                    : on
 write OTFG pseudopotential files               : on
 write electrostatic potential file             : on
 write bands file                               : on
 checkpoint writing                             : off
  
 output         length unit                     : A
 output           mass unit                     : amu
 output           time unit                     : ps
 output         charge unit                     : e
 output           spin unit                     : hbar/2
 output         energy unit                     : eV
 output          force unit                     : eV/A
 output       velocity unit                     : A/ps
 output       pressure unit                     : GPa
 output     inv_length unit                     : 1/A
 output      frequency unit                     : cm-1
 output force constant unit                     : eV/A**2
 output         volume unit                     : A**3
 output   IR intensity unit                     : (D/A)**2/amu
 output         dipole unit                     : D
 output         efield unit                     : eV/A/e
 output        entropy unit                     : J/mol/K
 output    efield chi2 unit                     : pm/V
  
 wavefunctions paging                           : none
 random number generator seed                   :   51829397
 data distribution                              : optimal for this architecture
 optimization strategy                          : balance speed and memory

 *********************** Exchange-Correlation Parameters ***********************
  
 using functional                               : RSCAN
 relativistic treatment                         : Koelling-Harmon
 DFT+D: Semi-empirical dispersion correction    : off

 ************************* Pseudopotential Parameters **************************
  
 pseudopotential representation                 : reciprocal space
 <beta|phi> representation                      : reciprocal space
 spin-orbit coupling                            : off

 **************************** Basis Set Parameters *****************************
  
 plane wave basis set cut-off                   :   900.0000   eV
 size of standard grid                          :     2.0000
 size of   fine   gmax                          :    30.7390   1/A
 finite basis set correction                    : none

 **************************** Electronic Parameters ****************************
  
 number of  electrons                           :  581.0    
 net charge of system                           :  0.000    
 net spin   of system                           :  1.000    
 number of  up  spins                           :  291.0    
 number of down spins                           :  290.0    
 treating system as spin-polarized
 number of bands                                :        349

 ********************* Electronic Minimization Parameters **********************
  
 Method: Treating system as metallic with density mixing treatment of electrons,
         and number of  SD  steps               :          1
         and number of  CG  steps               :          4
  
 total energy / atom convergence tol.           : 0.1000E-07   eV
 eigen-energy convergence tolerance             : 0.2234E-08   eV
 max force / atom convergence tol.              : ignored
 convergence tolerance window                   :          3   cycles
 max. number of SCF cycles                      :        100
 number of fixed-spin iterations                :         10
 smearing scheme                                : Gaussian
 smearing width                                 : 0.2000       eV
 Fermi energy convergence tolerance             : 0.2721E-13   eV
 periodic dipole correction                     : NONE

 ************************** Density Mixing Parameters **************************
  
 density-mixing scheme                          : Pulay
 max. length of mixing history                  :         20
 charge density mixing amplitude                : 0.5000    
   spin density mixing amplitude                :  2.000    
 cut-off energy for mixing                      :  900.0       eV

 *********************** Population Analysis Parameters ************************
  
 Population analysis with cutoff                :  3.000       A
 Population analysis output                     : summary and pdos components

 *******************************************************************************
  

                           -------------------------------
                                      Unit Cell
                           -------------------------------
        Real Lattice(A)                      Reciprocal Lattice(1/A)
    11.8016820    -0.0000080    -0.0000080        0.532397442   0.000000361   0.000000361
    -0.0000080    11.8016820    -0.0000080        0.000000361   0.532397442   0.000000361
    -0.0000080    -0.0000080    11.8016820        0.000000361   0.000000361   0.532397442

                       Lattice parameters(A)       Cell Angles
                    a =     11.801682          alpha =   90.000078
                    b =     11.801682          beta  =   90.000078
                    c =     11.801682          gamma =   90.000078

                       Current cell volume =          1643.734705       A**3
                                   density =             2.857097   AMU/A**3
                                           =             4.744322     g/cm^3

                           -------------------------------
                                     Cell Contents
                           -------------------------------
                         Total number of ions in cell =   65
                      Total number of species in cell =    2
                        Max number of any one species =   33

            xxxxxxxxxxxxxxxxxxxxxxxxxxxxxxxxxxxxxxxxxxxxxxxxxxxxxxxxxxxx
            x  Element    Atom        Fractional coordinates of atoms  x
            x            Number           u          v          w      x
            x----------------------------------------------------------x
            x  P            1         0.123256   0.119547   0.370969   x 
            x  P            2         0.345927   0.099067   0.098969   x 
            x  P            3         0.123256   0.371067   0.119449   x 
            x  P            4         0.359705   0.389340   0.389242   x 
            x  P            5         0.117827   0.117287   0.864423   x 
            x  P            6         0.372910   0.120806   0.620210   x 
            x  P            7         0.119673   0.371840   0.623485   x 
            x  P            8         0.373069   0.369333   0.869708   x 
            x  P            9         0.119673   0.623583   0.371742   x 
            x  P           10         0.372910   0.620309   0.120708   x 
            x  P           11         0.117827   0.864522   0.117189   x 
            x  P           12         0.373069   0.869806   0.369234   x 
            x  P           13         0.122617   0.620053   0.869570   x 
            x  P           14         0.374055   0.620583   0.620484   x 
            x  P           15         0.122617   0.869668   0.619955   x 
            x  P           16         0.374405   0.871625   0.871526   x 
            x  P           17         0.639834   0.113406   0.378103   x 
            x  P           18         0.875688   0.119668   0.119569   x 
            x  P           19         0.639834   0.378202   0.113307   x 
            x  P           20         0.875787   0.370224   0.370125   x 
            x  P           21         0.625113   0.120945   0.868911   x 
            x  P           22         0.873771   0.117905   0.622360   x 
            x  P           23         0.624996   0.369805   0.621242   x 
            x  P           24         0.874206   0.372536   0.868027   x 
            x  P           25         0.624996   0.621340   0.369706   x 
            x  P           26         0.873771   0.622459   0.117806   x 
            x  P           27         0.625113   0.869010   0.120846   x 
            x  P           28         0.874206   0.868125   0.372437   x 
            x  P           29         0.619465   0.619297   0.870893   x 
            x  P           30         0.871669   0.620869   0.620770   x 
            x  P           31         0.619465   0.870991   0.619198   x 
            x  P           32         0.871301   0.868846   0.868747   x 
            x  P           33         0.344143   0.233703   0.233604   x 
            x  In           1        -0.003392  -0.006903  -0.007002   x 
            x  In           2         0.238882  -0.014688   0.246022   x 
            x  In           3         0.000989   0.244727   0.244628   x 
            x  In           4         0.238882   0.246121  -0.014787   x 
            x  In           5        -0.002049  -0.004040   0.494986   x 
            x  In           6         0.248546  -0.007002   0.744315   x 
            x  In           7        -0.004531   0.245446   0.744356   x 
            x  In           8         0.243874   0.245898   0.500325   x 
            x  In           9        -0.002049   0.495084  -0.004138   x 
            x  In          10         0.243874   0.500423   0.245800   x 
            x  In          11        -0.004531   0.744455   0.245347   x 
            x  In          12         0.248546   0.744413  -0.007101   x 
            x  In          13        -0.002368   0.496456   0.496358   x 
            x  In          14         0.248503   0.496421   0.744952   x 
            x  In          15        -0.002053   0.744974   0.744875   x 
            x  In          16         0.248503   0.745051   0.496323   x 
            x  In          17         0.503519  -0.004441  -0.004539   x 
            x  In          18         0.755178  -0.009856   0.242766   x 
            x  In          19         0.544068   0.252412   0.252314   x 
            x  In          20         0.755178   0.242864  -0.009955   x 
            x  In          21         0.495735  -0.002223   0.492719   x 
            x  In          22         0.746546  -0.006986   0.743901   x 
            x  In          23         0.498438   0.245030   0.744767   x 
            x  In          24         0.755523   0.247945   0.500754   x 
            x  In          25         0.495735   0.492818  -0.002322   x 
            x  In          26         0.755523   0.500853   0.247847   x 
            x  In          27         0.498438   0.744866   0.244932   x 
            x  In          28         0.746546   0.744000  -0.007085   x 
            x  In          29         0.503793   0.498161   0.498063   x 
            x  In          30         0.746695   0.497163   0.746266   x 
            x  In          31         0.495409   0.745847   0.745748   x 
            x  In          32         0.746695   0.746365   0.497065   x 
            xxxxxxxxxxxxxxxxxxxxxxxxxxxxxxxxxxxxxxxxxxxxxxxxxxxxxxxxxxxx


                         No user defined ionic velocities

                           -------------------------------
                                   Details of Species
                           -------------------------------

                               Mass of species in AMU
                                    P   30.9737600
                                    In  114.8180000

                          Electric Quadrupole Moment (Barn)
                                    P    1.0000000 No Isotope Defined
                                    In    0.7700000 Isotope115

                          Files used for pseudopotentials:
                                    P 3|1.8|4|4|5|30:31:32
                                    In 3|2.5|2.5|1.5|7|8|9|50:51:42U2.2U2.2

                           -------------------------------
                              k-Points For BZ Sampling
                           -------------------------------
                       MP grid size for SCF calculation is  4  4  4
                            with an offset of   0.125  0.125  0.125
                       Number of kpoints used =            36

                           -------------------------------
                               Symmetry and Constraints
                           -------------------------------

                      Maximum deviation from symmetry =  0.00000         ANG

                      Number of symmetry operations   =           1
                      Number of ionic constraints     =           3
                      Point group of crystal =     1: C1, 1, 1
                      Space group of crystal =     8: Cm, C -2y

             Set iprint > 1 for details on symmetry rotations/translations

                         Centre of mass is constrained
             Set iprint > 1 for details of linear ionic constraints

                         Number of cell constraints= 0
                         Cell constraints are:  1 2 3 4 5 6

                         External pressure/stress (GPa)
                          0.00000   0.00000   0.00000
                                    0.00000   0.00000
                                              0.00000
 
+---------------- MEMORY AND SCRATCH DISK ESTIMATES PER PROCESS --------------+
|                                                     Memory          Disk    |
| Baseline code, static data and system overhead      368.0 MB         0.0 MB |
| BLAS internal memory storage                          0.0 MB         0.0 MB |
| Model and support data                             4327.0 MB         0.0 MB |
| Electronic energy minimisation requirements        1337.1 MB         0.0 MB |
| Force calculation requirements                      127.4 MB         0.0 MB |
|                                               ----------------------------- |
| Approx. total storage required per process         6032.2 MB         0.0 MB |
|                                                                             |
| Requirements will fluctuate during execution and may exceed these estimates |
+-----------------------------------------------------------------------------+
Calculating approximate eigenstates for fixed initial Hamiltonian
Cut-off for approx. calculation is   89.988 eV
Improving approx. states at cut-off of  450.000 eV
Resetting cut-off to  900.000 eV
Calculating total energy with cut-off of  900.000 eV.
------------------------------------------------------------------------ <-- SCF
SCF loop      Energy           Fermi           Energy gain       Timer   <-- SCF
                               energy          per atom          (sec)   <-- SCF
------------------------------------------------------------------------ <-- SCF
Initial  -6.32539470E+004  0.00000000E+000                       438.24  <-- SCF
      1  -6.30174414E+004  2.83186324E+000  -3.63854692E+000     895.62  <-- SCF
      2  -6.30177210E+004  2.83156108E+000   4.30071938E-003    1217.31  <-- SCF
      3  -6.30835521E+004  3.23568343E+000   1.01278734E+000    1568.87  <-- SCF
      4  -6.30950903E+004  3.33971498E+000   1.77510059E-001    2062.90  <-- SCF
      5  -6.31010075E+004  3.52647070E+000   9.10339906E-002    2415.04  <-- SCF
      6  -6.30896539E+004  3.73174785E+000  -1.74669990E-001    2772.76  <-- SCF
      7  -6.30883280E+004  3.80151983E+000  -2.03992570E-002    3129.03  <-- SCF
      8  -6.30884311E+004  3.86224964E+000   1.58649139E-003    3497.93  <-- SCF
      9  -6.30892748E+004  3.90107646E+000   1.29796621E-002    3851.14  <-- SCF
     10  -6.30895674E+004  3.85428684E+000   4.50123131E-003    4197.18  <-- SCF
     11  -6.30895669E+004  3.83595269E+000  -6.76643851E-006    4563.00  <-- SCF
     12  -6.30895677E+004  3.82681678E+000   1.21411788E-005    4932.98  <-- SCF
     13  -6.30895685E+004  3.82642419E+000   1.18790733E-005    5305.22  <-- SCF
     14  -6.30895687E+004  3.82573042E+000   2.57598075E-006    5667.36  <-- SCF
     15  -6.30895687E+004  3.82483804E+000   6.66225580E-007    6028.18  <-- SCF
     16  -6.30895687E+004  3.82481972E+000   2.88807921E-007    6336.46  <-- SCF
     17  -6.30895687E+004  3.82472465E+000   4.99347025E-008    6636.14  <-- SCF
     18  -6.30895687E+004  3.82487359E+000   1.95753903E-008    6884.68  <-- SCF
     19  -6.30895687E+004  3.82498181E+000   7.03146130E-009    7135.68  <-- SCF
     20  -6.30895687E+004  3.82503400E+000   5.56101302E-009    7388.26  <-- SCF
     21  -6.30895687E+004  3.82503813E+000   8.05852868E-010    7640.28  <-- SCF
------------------------------------------------------------------------ <-- SCF
 
Integrated Spin Density     =    0.976943     hbar/2
Integrated |Spin Density|   =     1.12936     hbar/2
 
Final energy, E             =  -63089.51909916     eV
Final free energy (E-TS)    =  -63089.56873255     eV
(energies not corrected for finite basis set)
 
NB est. 0K energy (E-0.5TS)      =  -63089.54391586     eV
 

 ************************** Forces **************************
 *                                                          *
 *               Cartesian components (eV/A)                *
 * -------------------------------------------------------- *
 *                         x            y            z      *
 *                                                          *
 * P               1     -0.04783     -0.05737      0.06865 *
 * P               2      0.02854     -0.04920     -0.04947 *
 * P               3     -0.04781      0.06831     -0.05727 *
 * P               4      0.39242     -0.06562     -0.06568 *
 * P               5     -0.05140      0.02032     -0.08038 *
 * P               6     -0.04059     -0.02092      0.01798 *
 * P               7     -0.01343     -0.04742      0.02524 *
 * P               8     -0.01966     -0.00664      0.01897 *
 * P               9     -0.01341      0.02555     -0.04719 *
 * P              10     -0.04059      0.01764     -0.02052 *
 * P              11     -0.05148     -0.08032      0.01991 *
 * P              12     -0.01966      0.01873     -0.00655 *
 * P              13      0.00730     -0.02263      0.02448 *
 * P              14      0.03646      0.17262      0.17298 *
 * P              15      0.00731      0.02428     -0.02231 *
 * P              16      0.02772     -0.00036     -0.00006 *
 * P              17     -0.11470      0.08656     -0.04880 *
 * P              18      0.01952     -0.01029     -0.01009 *
 * P              19     -0.11476     -0.04896      0.08675 *
 * P              20      0.04297      0.01212      0.01242 *
 * P              21     -0.03734     -0.00264      0.06607 *
 * P              22     -0.00558      0.02187     -0.00276 *
 * P              23      0.01414      0.02021      0.03017 *
 * P              24     -0.00649     -0.01419      0.02981 *
 * P              25      0.01417      0.02991      0.02036 *
 * P              26     -0.00551     -0.00271      0.02147 *
 * P              27     -0.03736      0.06611     -0.00237 *
 * P              28     -0.00653      0.03016     -0.01426 *
 * P              29      0.01502      0.01466     -0.00492 *
 * P              30     -0.01630      0.00192      0.00232 *
 * P              31      0.01499     -0.00527      0.01471 *
 * P              32     -0.02108     -0.00061     -0.00070 *
 * P              33      0.00375     -0.43032     -0.43031 *
 * In              1      0.08100      0.01673      0.01663 *
 * In              2     -0.07960     -0.07597     -0.02831 *
 * In              3     -0.03797      0.01547      0.01537 *
 * In              4     -0.07960     -0.02821     -0.07607 *
 * In              5      0.01229     -0.03368      0.02202 *
 * In              6      0.02170      0.06408      0.04303 *
 * In              7      0.02223      0.00002     -0.01650 *
 * In              8      0.10304      0.16995     -0.07844 *
 * In              9      0.01229      0.02212     -0.03377 *
 * In             10      0.10305     -0.07834      0.16985 *
 * In             11      0.02222     -0.01641     -0.00007 *
 * In             12      0.02170      0.04312      0.06398 *
 * In             13      0.05680      0.00957      0.00948 *
 * In             14      0.01101     -0.01897     -0.06202 *
 * In             15      0.00473     -0.01427     -0.01436 *
 * In             16      0.01101     -0.06193     -0.01906 *
 * In             17     -0.10974     -0.07684     -0.07693 *
 * In             18      0.01354      0.03012      0.06683 *
 * In             19     -0.00988      0.23671      0.23660 *
 * In             20      0.01354      0.06693      0.03002 *
 * In             21      0.04798     -0.01623      0.02649 *
 * In             22      0.00112      0.00294     -0.03589 *
 * In             23     -0.00521      0.00888     -0.01496 *
 * In             24      0.01657     -0.06886     -0.01476 *
 * In             25      0.04798      0.02659     -0.01633 *
 * In             26      0.01657     -0.01466     -0.06896 *
 * In             27     -0.00521     -0.01486      0.00878 *
 * In             28      0.00112     -0.03580      0.00283 *
 * In             29     -0.21468      0.07509      0.07499 *
 * In             30      0.00730     -0.01430      0.01806 *
 * In             31     -0.02703     -0.00265     -0.00274 *
 * In             32      0.00730      0.01815     -0.01440 *
 *                                                          *
 ************************************************************

 Pseudo atomic calculation performed for P 3s2 3p3

 Converged in 23 iterations to a total energy of -208.0292 eV

 Pseudo atomic calculation performed for In 4d10 5s2 5p1

 Converged in 42 iterations to a total energy of -1747.4501 eV
Charge spilling parameter for spin component 1 = 0.18%
Charge spilling parameter for spin component 2 = 0.18%

                   Orbital Populations                  
  ---------------------------------------------------------------
     Ion    Atom   Orbital              Up        Down      Spin
  ---------------------------------------------------------------
      P     1      S                    0.870     0.867     0.003
      P     1      Px                   0.656     0.647     0.009
      P     1      Py                   0.650     0.650     0.000
      P     1      Pz                   0.652     0.651     0.000
      P     2      S                    0.865     0.862     0.003
      P     2      Px                   0.686     0.680     0.006
      P     2      Py                   0.642     0.601     0.041
      P     2      Pz                   0.642     0.601     0.041
      P     3      S                    0.870     0.867     0.003
      P     3      Px                   0.656     0.647     0.009
      P     3      Py                   0.652     0.651     0.000
      P     3      Pz                   0.650     0.650    -0.000
      P     4      S                    0.875     0.872     0.003
      P     4      Px                   0.663     0.655     0.008
      P     4      Py                   0.669     0.634     0.035
      P     4      Pz                   0.669     0.634     0.035
      P     5      S                    0.867     0.865     0.002
      P     5      Px                   0.661     0.653     0.008
      P     5      Py                   0.656     0.651     0.005
      P     5      Pz                   0.663     0.654     0.008
      P     6      S                    0.867     0.867    -0.000
      P     6      Px                   0.656     0.656     0.000
      P     6      Py                   0.658     0.658     0.000
      P     6      Pz                   0.657     0.657    -0.000
      P     7      S                    0.867     0.866     0.001
      P     7      Px                   0.658     0.654     0.004
      P     7      Py                   0.657     0.654     0.003
      P     7      Pz                   0.659     0.655     0.004
      P     8      S                    0.867     0.867    -0.000
      P     8      Px                   0.655     0.654     0.000
      P     8      Py                   0.658     0.657     0.001
      P     8      Pz                   0.657     0.657    -0.000
      P     9      S                    0.867     0.866     0.001
      P     9      Px                   0.658     0.654     0.004
      P     9      Py                   0.659     0.655     0.004
      P     9      Pz                   0.657     0.654     0.003
      P    10      S                    0.867     0.867    -0.000
      P    10      Px                   0.656     0.656     0.000
      P    10      Py                   0.657     0.657    -0.000
      P    10      Pz                   0.658     0.658     0.000
      P    11      S                    0.867     0.865     0.002
      P    11      Px                   0.661     0.653     0.008
      P    11      Py                   0.663     0.654     0.008
      P    11      Pz                   0.656     0.651     0.005
      P    12      S                    0.867     0.867    -0.000
      P    12      Px                   0.655     0.654     0.000
      P    12      Py                   0.657     0.657    -0.000
      P    12      Pz                   0.658     0.657     0.001
      P    13      S                    0.867     0.867    -0.000
      P    13      Px                   0.656     0.656     0.000
      P    13      Py                   0.657     0.657    -0.000
      P    13      Pz                   0.657     0.657     0.000
      P    14      S                    0.868     0.868    -0.000
      P    14      Px                   0.654     0.654     0.000
      P    14      Py                   0.656     0.654     0.002
      P    14      Pz                   0.656     0.654     0.002
      P    15      S                    0.867     0.867    -0.000
      P    15      Px                   0.656     0.656     0.000
      P    15      Py                   0.657     0.657     0.000
      P    15      Pz                   0.657     0.657     0.000
      P    16      S                    0.868     0.868    -0.000
      P    16      Px                   0.654     0.655    -0.000
      P    16      Py                   0.655     0.655     0.000
      P    16      Pz                   0.655     0.655     0.000
      P    17      S                    0.869     0.867     0.002
      P    17      Px                   0.674     0.664     0.010
      P    17      Py                   0.647     0.644     0.003
      P    17      Pz                   0.657     0.654     0.003
      P    18      S                    0.866     0.866    -0.000
      P    18      Px                   0.659     0.659    -0.000
      P    18      Py                   0.657     0.657    -0.000
      P    18      Pz                   0.657     0.657    -0.000
      P    19      S                    0.869     0.867     0.002
      P    19      Px                   0.674     0.664     0.010
      P    19      Py                   0.657     0.654     0.003
      P    19      Pz                   0.647     0.644     0.003
      P    20      S                    0.866     0.867    -0.000
      P    20      Px                   0.659     0.659    -0.000
      P    20      Py                   0.656     0.656    -0.000
      P    20      Pz                   0.656     0.656    -0.000
      P    21      S                    0.867     0.867     0.000
      P    21      Px                   0.658     0.657     0.001
      P    21      Py                   0.658     0.657     0.001
      P    21      Pz                   0.656     0.655     0.001
      P    22      S                    0.865     0.864     0.000
      P    22      Px                   0.661     0.659     0.001
      P    22      Py                   0.655     0.654     0.001
      P    22      Pz                   0.661     0.659     0.002
      P    23      S                    0.867     0.866     0.000
      P    23      Px                   0.658     0.657     0.000
      P    23      Py                   0.656     0.656     0.000
      P    23      Pz                   0.658     0.657     0.001
      P    24      S                    0.865     0.865     0.000
      P    24      Px                   0.660     0.659     0.001
      P    24      Py                   0.655     0.654     0.001
      P    24      Pz                   0.659     0.658     0.001
      P    25      S                    0.867     0.866     0.000
      P    25      Px                   0.658     0.657     0.000
      P    25      Py                   0.658     0.657     0.001
      P    25      Pz                   0.656     0.656     0.000
      P    26      S                    0.865     0.864     0.000
      P    26      Px                   0.661     0.659     0.001
      P    26      Py                   0.661     0.659     0.002
      P    26      Pz                   0.655     0.654     0.001
      P    27      S                    0.867     0.867     0.000
      P    27      Px                   0.658     0.657     0.001
      P    27      Py                   0.656     0.655     0.001
      P    27      Pz                   0.658     0.657     0.001
      P    28      S                    0.865     0.865     0.000
      P    28      Px                   0.660     0.659     0.001
      P    28      Py                   0.659     0.658     0.001
      P    28      Pz                   0.655     0.654     0.001
      P    29      S                    0.867     0.867     0.000
      P    29      Px                   0.657     0.656     0.000
      P    29      Py                   0.656     0.656    -0.000
      P    29      Pz                   0.657     0.657     0.000
      P    30      S                    0.867     0.867    -0.000
      P    30      Px                   0.656     0.656    -0.000
      P    30      Py                   0.657     0.657     0.000
      P    30      Pz                   0.657     0.657     0.000
      P    31      S                    0.867     0.867     0.000
      P    31      Px                   0.657     0.656     0.000
      P    31      Py                   0.657     0.657     0.000
      P    31      Pz                   0.656     0.656     0.000
      P    32      S                    0.866     0.866    -0.000
      P    32      Px                   0.656     0.656    -0.000
      P    32      Py                   0.658     0.658    -0.000
      P    32      Pz                   0.658     0.658    -0.000
      P    33      S                    0.943     0.927     0.016
      P    33      Px                   0.674     0.658     0.016
      P    33      Py                   0.684     0.371     0.313
      P    33      Pz                   0.684     0.371     0.313
     In     1      Dzz                  1.000     1.000     0.000
     In     1      Dzy                  0.998     0.998     0.000
     In     1      Dzx                  0.998     0.998     0.000
     In     1      Dxx-yy               1.000     1.000     0.000
     In     1      Dxy                  0.998     0.998     0.000
     In     1      S                    0.706     0.707    -0.001
     In     1      Px                   0.237     0.237    -0.000
     In     1      Py                   0.242     0.242     0.000
     In     1      Pz                   0.242     0.242     0.000
     In     1      S                   -0.261    -0.260    -0.002
     In     2      Dzz                  1.000     0.999     0.000
     In     2      Dzy                  0.998     0.998     0.000
     In     2      Dzx                  0.998     0.998     0.000
     In     2      Dxx-yy               1.000     1.000     0.000
     In     2      Dxy                  0.999     0.999     0.000
     In     2      S                    0.699     0.697     0.002
     In     2      Px                   0.234     0.236    -0.001
     In     2      Py                   0.224     0.232    -0.009
     In     2      Pz                   0.255     0.248     0.008
     In     2      S                   -0.260    -0.260    -0.000
     In     3      Dzz                  1.000     1.000     0.000
     In     3      Dzy                  0.998     0.998    -0.000
     In     3      Dzx                  0.998     0.998     0.000
     In     3      Dxx-yy               1.000     1.000     0.000
     In     3      Dxy                  0.998     0.998     0.000
     In     3      S                    0.705     0.706    -0.001
     In     3      Px                   0.235     0.235    -0.000
     In     3      Py                   0.242     0.240     0.002
     In     3      Pz                   0.242     0.240     0.002
     In     3      S                   -0.251    -0.259     0.008
     In     4      Dzz                  1.000     1.000     0.000
     In     4      Dzy                  0.998     0.998     0.000
     In     4      Dzx                  0.999     0.999     0.000
     In     4      Dxx-yy               1.000     1.000     0.000
     In     4      Dxy                  0.998     0.998     0.000
     In     4      S                    0.699     0.697     0.002
     In     4      Px                   0.234     0.236    -0.001
     In     4      Py                   0.255     0.248     0.008
     In     4      Pz                   0.224     0.232    -0.009
     In     4      S                   -0.260    -0.260    -0.000
     In     5      Dzz                  1.000     1.000    -0.000
     In     5      Dzy                  0.998     0.998     0.000
     In     5      Dzx                  0.998     0.998    -0.000
     In     5      Dxx-yy               1.000     1.000     0.000
     In     5      Dxy                  0.998     0.998    -0.000
     In     5      S                    0.716     0.715     0.001
     In     5      Px                   0.239     0.239    -0.000
     In     5      Py                   0.245     0.242     0.002
     In     5      Pz                   0.244     0.242     0.002
     In     5      S                   -0.268    -0.268    -0.000
     In     6      Dzz                  1.000     1.000     0.000
     In     6      Dzy                  0.999     0.999     0.000
     In     6      Dzx                  0.998     0.998     0.000
     In     6      Dxx-yy               1.000     1.000     0.000
     In     6      Dxy                  0.998     0.998    -0.000
     In     6      S                    0.706     0.707    -0.001
     In     6      Px                   0.243     0.243    -0.000
     In     6      Py                   0.239     0.239    -0.000
     In     6      Pz                   0.238     0.238    -0.000
     In     6      S                   -0.264    -0.263    -0.001
     In     7      Dzz                  0.999     0.999     0.000
     In     7      Dzy                  0.998     0.998     0.000
     In     7      Dzx                  0.998     0.998     0.000
     In     7      Dxx-yy               0.999     0.999     0.000
     In     7      Dxy                  0.998     0.998     0.000
     In     7      S                    0.715     0.715     0.000
     In     7      Px                   0.240     0.240    -0.000
     In     7      Py                   0.255     0.253     0.003
     In     7      Pz                   0.240     0.240     0.000
     In     7      S                   -0.265    -0.263    -0.001
     In     8      Dzz                  1.000     1.000     0.000
     In     8      Dzy                  0.998     0.998     0.000
     In     8      Dzx                  0.999     0.999     0.000
     In     8      Dxx-yy               1.000     1.000     0.000
     In     8      Dxy                  0.998     0.998     0.000
     In     8      S                    0.700     0.700     0.000
     In     8      Px                   0.236     0.238    -0.002
     In     8      Py                   0.250     0.247     0.003
     In     8      Pz                   0.226     0.231    -0.005
     In     8      S                   -0.257    -0.259     0.002
     In     9      Dzz                  1.000     1.000    -0.000
     In     9      Dzy                  0.998     0.998     0.000
     In     9      Dzx                  0.998     0.998    -0.000
     In     9      Dxx-yy               1.000     1.000     0.000
     In     9      Dxy                  0.998     0.998    -0.000
     In     9      S                    0.716     0.715     0.001
     In     9      Px                   0.239     0.239    -0.000
     In     9      Py                   0.244     0.242     0.002
     In     9      Pz                   0.245     0.242     0.002
     In     9      S                   -0.268    -0.268    -0.000
     In    10      Dzz                  1.000     1.000     0.000
     In    10      Dzy                  0.998     0.998     0.000
     In    10      Dzx                  0.998     0.998     0.000
     In    10      Dxx-yy               1.000     1.000     0.000
     In    10      Dxy                  0.999     0.999     0.000
     In    10      S                    0.700     0.700     0.000
     In    10      Px                   0.236     0.238    -0.002
     In    10      Py                   0.226     0.231    -0.005
     In    10      Pz                   0.250     0.247     0.003
     In    10      S                   -0.257    -0.259     0.002
     In    11      Dzz                  0.999     0.999     0.000
     In    11      Dzy                  0.998     0.998     0.000
     In    11      Dzx                  0.998     0.998     0.000
     In    11      Dxx-yy               0.999     0.999     0.000
     In    11      Dxy                  0.998     0.998     0.000
     In    11      S                    0.715     0.715     0.000
     In    11      Px                   0.240     0.240    -0.000
     In    11      Py                   0.240     0.240     0.000
     In    11      Pz                   0.255     0.253     0.003
     In    11      S                   -0.265    -0.263    -0.001
     In    12      Dzz                  1.000     1.000     0.000
     In    12      Dzy                  0.999     0.999     0.000
     In    12      Dzx                  0.998     0.998    -0.000
     In    12      Dxx-yy               1.000     1.000     0.000
     In    12      Dxy                  0.998     0.998    -0.000
     In    12      S                    0.706     0.707    -0.001
     In    12      Px                   0.243     0.243    -0.000
     In    12      Py                   0.238     0.238    -0.000
     In    12      Pz                   0.239     0.239    -0.000
     In    12      S                   -0.264    -0.263    -0.001
     In    13      Dzz                  1.000     1.000     0.000
     In    13      Dzy                  0.998     0.998    -0.000
     In    13      Dzx                  0.998     0.998     0.000
     In    13      Dxx-yy               1.000     1.000     0.000
     In    13      Dxy                  0.998     0.998     0.000
     In    13      S                    0.705     0.706    -0.001
     In    13      Px                   0.238     0.239    -0.000
     In    13      Py                   0.242     0.242     0.000
     In    13      Pz                   0.242     0.242     0.000
     In    13      S                   -0.264    -0.262    -0.002
     In    14      Dzz                  1.000     1.000     0.000
     In    14      Dzy                  0.999     0.999     0.000
     In    14      Dzx                  0.998     0.998     0.000
     In    14      Dxx-yy               1.000     1.000     0.000
     In    14      Dxy                  0.998     0.998    -0.000
     In    14      S                    0.706     0.707    -0.000
     In    14      Px                   0.242     0.242     0.000
     In    14      Py                   0.239     0.240    -0.000
     In    14      Pz                   0.238     0.238    -0.000
     In    14      S                   -0.266    -0.266    -0.001
     In    15      Dzz                  1.000     1.000     0.000
     In    15      Dzy                  0.998     0.998    -0.000
     In    15      Dzx                  0.998     0.998     0.000
     In    15      Dxx-yy               1.000     1.000     0.000
     In    15      Dxy                  0.998     0.998     0.000
     In    15      S                    0.708     0.708     0.000
     In    15      Px                   0.242     0.242    -0.000
     In    15      Py                   0.240     0.240    -0.000
     In    15      Pz                   0.240     0.240    -0.000
     In    15      S                   -0.265    -0.266     0.001
     In    16      Dzz                  1.000     1.000     0.000
     In    16      Dzy                  0.999     0.998     0.000
     In    16      Dzx                  0.998     0.998    -0.000
     In    16      Dxx-yy               1.000     1.000     0.000
     In    16      Dxy                  0.998     0.998     0.000
     In    16      S                    0.706     0.707    -0.000
     In    16      Px                   0.242     0.242     0.000
     In    16      Py                   0.238     0.238    -0.000
     In    16      Pz                   0.239     0.240    -0.000
     In    16      S                   -0.266    -0.266    -0.001
     In    17      Dzz                  1.000     1.000     0.000
     In    17      Dzy                  0.999     0.999     0.000
     In    17      Dzx                  0.998     0.998     0.000
     In    17      Dxx-yy               0.999     0.999     0.000
     In    17      Dxy                  0.998     0.998     0.000
     In    17      S                    0.719     0.723    -0.004
     In    17      Px                   0.244     0.247    -0.003
     In    17      Py                   0.243     0.242     0.001
     In    17      Pz                   0.243     0.242     0.001
     In    17      S                   -0.273    -0.276     0.003
     In    18      Dzz                  1.000     1.000     0.000
     In    18      Dzy                  0.998     0.998     0.000
     In    18      Dzx                  0.998     0.998     0.000
     In    18      Dxx-yy               1.000     1.000    -0.000
     In    18      Dxy                  0.998     0.998    -0.000
     In    18      S                    0.710     0.710     0.000
     In    18      Px                   0.238     0.238    -0.000
     In    18      Py                   0.242     0.242     0.000
     In    18      Pz                   0.246     0.245     0.001
     In    18      S                   -0.270    -0.271     0.000
     In    19      Dzz                  0.999     0.999     0.000
     In    19      Dzy                  0.998     0.998    -0.000
     In    19      Dzx                  0.999     0.998     0.001
     In    19      Dxx-yy               0.998     0.998     0.000
     In    19      Dxy                  0.999     0.998     0.001
     In    19      S                    0.712     0.728    -0.016
     In    19      Px                   0.247     0.262    -0.015
     In    19      Py                   0.220     0.223    -0.003
     In    19      Pz                   0.220     0.223    -0.003
     In    19      S                   -0.243    -0.242    -0.001
     In    20      Dzz                  1.000     1.000     0.000
     In    20      Dzy                  0.998     0.998    -0.000
     In    20      Dzx                  0.998     0.998    -0.000
     In    20      Dxx-yy               1.000     1.000     0.000
     In    20      Dxy                  0.998     0.998     0.000
     In    20      S                    0.710     0.710     0.000
     In    20      Px                   0.238     0.238    -0.000
     In    20      Py                   0.246     0.245     0.001
     In    20      Pz                   0.242     0.242     0.000
     In    20      S                   -0.270    -0.271     0.000
     In    21      Dzz                  1.000     1.000     0.000
     In    21      Dzy                  0.999     0.999     0.000
     In    21      Dzx                  0.998     0.998     0.000
     In    21      Dxx-yy               1.000     1.000     0.000
     In    21      Dxy                  0.999     0.998     0.000
     In    21      S                    0.714     0.714    -0.000
     In    21      Px                   0.240     0.240    -0.000
     In    21      Py                   0.238     0.238     0.000
     In    21      Pz                   0.238     0.238     0.000
     In    21      S                   -0.266    -0.272     0.005
     In    22      Dzz                  1.000     1.000    -0.000
     In    22      Dzy                  0.998     0.998    -0.000
     In    22      Dzx                  0.998     0.998     0.000
     In    22      Dxx-yy               1.000     1.000     0.000
     In    22      Dxy                  0.998     0.998    -0.000
     In    22      S                    0.708     0.708     0.000
     In    22      Px                   0.241     0.241    -0.000
     In    22      Py                   0.242     0.241     0.001
     In    22      Pz                   0.240     0.240    -0.000
     In    22      S                   -0.266    -0.266    -0.000
     In    23      Dzz                  1.000     1.000     0.000
     In    23      Dzy                  0.999     0.999     0.000
     In    23      Dzx                  0.998     0.998    -0.000
     In    23      Dxx-yy               1.000     1.000    -0.000
     In    23      Dxy                  0.998     0.998    -0.000
     In    23      S                    0.709     0.710    -0.000
     In    23      Px                   0.240     0.240    -0.000
     In    23      Py                   0.239     0.239    -0.000
     In    23      Pz                   0.240     0.240    -0.000
     In    23      S                   -0.264    -0.264    -0.001
     In    24      Dzz                  1.000     1.000    -0.000
     In    24      Dzy                  0.998     0.998     0.000
     In    24      Dzx                  0.998     0.998    -0.000
     In    24      Dxx-yy               1.000     1.000     0.000
     In    24      Dxy                  0.998     0.998     0.000
     In    24      S                    0.708     0.707     0.000
     In    24      Px                   0.237     0.237    -0.000
     In    24      Py                   0.247     0.247     0.001
     In    24      Pz                   0.241     0.241     0.000
     In    24      S                   -0.267    -0.268     0.000
     In    25      Dzz                  1.000     1.000    -0.000
     In    25      Dzy                  0.999     0.999     0.000
     In    25      Dzx                  0.999     0.998     0.000
     In    25      Dxx-yy               1.000     1.000     0.000
     In    25      Dxy                  0.998     0.998     0.000
     In    25      S                    0.714     0.714    -0.000
     In    25      Px                   0.240     0.240    -0.000
     In    25      Py                   0.238     0.238     0.000
     In    25      Pz                   0.238     0.238     0.000
     In    25      S                   -0.266    -0.272     0.005
     In    26      Dzz                  1.000     1.000     0.000
     In    26      Dzy                  0.998     0.998     0.000
     In    26      Dzx                  0.998     0.998     0.000
     In    26      Dxx-yy               1.000     1.000     0.000
     In    26      Dxy                  0.998     0.998    -0.000
     In    26      S                    0.708     0.707     0.000
     In    26      Px                   0.237     0.237    -0.000
     In    26      Py                   0.241     0.241     0.000
     In    26      Pz                   0.247     0.247     0.001
     In    26      S                   -0.267    -0.268     0.000
     In    27      Dzz                  1.000     1.000    -0.000
     In    27      Dzy                  0.999     0.999     0.000
     In    27      Dzx                  0.998     0.998    -0.000
     In    27      Dxx-yy               1.000     1.000     0.000
     In    27      Dxy                  0.998     0.998    -0.000
     In    27      S                    0.709     0.710    -0.000
     In    27      Px                   0.240     0.240    -0.000
     In    27      Py                   0.240     0.240    -0.000
     In    27      Pz                   0.239     0.239    -0.000
     In    27      S                   -0.264    -0.264    -0.001
     In    28      Dzz                  1.000     1.000    -0.000
     In    28      Dzy                  0.998     0.998     0.000
     In    28      Dzx                  0.998     0.998    -0.000
     In    28      Dxx-yy               1.000     1.000    -0.000
     In    28      Dxy                  0.998     0.998     0.000
     In    28      S                    0.708     0.708     0.000
     In    28      Px                   0.241     0.241    -0.000
     In    28      Py                   0.240     0.240     0.000
     In    28      Pz                   0.242     0.241     0.001
     In    28      S                   -0.266    -0.266    -0.000
     In    29      Dzz                  0.999     0.999     0.000
     In    29      Dzy                  0.998     0.998     0.000
     In    29      Dzx                  0.998     0.998     0.000
     In    29      Dxx-yy               0.999     0.999     0.000
     In    29      Dxy                  0.998     0.998     0.000
     In    29      S                    0.715     0.718    -0.003
     In    29      Px                   0.256     0.258    -0.002
     In    29      Py                   0.241     0.241    -0.000
     In    29      Pz                   0.241     0.241    -0.000
     In    29      S                   -0.273    -0.275     0.002
     In    30      Dzz                  1.000     1.000     0.000
     In    30      Dzy                  0.998     0.998     0.000
     In    30      Dzx                  0.998     0.998    -0.000
     In    30      Dxx-yy               1.000     1.000     0.000
     In    30      Dxy                  0.998     0.998     0.000
     In    30      S                    0.707     0.707     0.000
     In    30      Px                   0.241     0.241    -0.000
     In    30      Py                   0.242     0.242     0.000
     In    30      Pz                   0.240     0.241    -0.000
     In    30      S                   -0.266    -0.266     0.000
     In    31      Dzz                  1.000     1.000     0.000
     In    31      Dzy                  0.998     0.998    -0.000
     In    31      Dzx                  0.998     0.998     0.000
     In    31      Dxx-yy               1.000     1.000     0.000
     In    31      Dxy                  0.998     0.998     0.000
     In    31      S                    0.710     0.711    -0.001
     In    31      Px                   0.246     0.246    -0.000
     In    31      Py                   0.242     0.242     0.000
     In    31      Pz                   0.242     0.242     0.000
     In    31      S                   -0.263    -0.263    -0.000
     In    32      Dzz                  1.000     1.000     0.000
     In    32      Dzy                  0.998     0.998    -0.000
     In    32      Dzx                  0.998     0.998    -0.000
     In    32      Dxx-yy               1.000     1.000     0.000
     In    32      Dxy                  0.998     0.998    -0.000
     In    32      S                    0.707     0.707     0.000
     In    32      Px                   0.241     0.241    -0.000
     In    32      Py                   0.240     0.241    -0.000
     In    32      Pz                   0.242     0.242     0.000
     In    32      S                   -0.266    -0.266     0.000
  ---------------------------------------------------------------
                           Total:     290.988   290.011     0.977
  ---------------------------------------------------------------

     Atomic Populations (Mulliken)
     -----------------------------
Species          Ion Spin      s       p       d       f      Total   Charge(e)   Spin(hbar/2)
==============================================================================================
  P               1   up:     0.870   1.958   0.000   0.000   2.828    -0.644        0.012
                  1   dn:     0.867   1.949   0.000   0.000   2.816
  P               2   up:     0.865   1.970   0.000   0.000   2.835    -0.579        0.091
                  2   dn:     0.862   1.882   0.000   0.000   2.744
  P               3   up:     0.870   1.958   0.000   0.000   2.828    -0.644        0.012
                  3   dn:     0.867   1.949   0.000   0.000   2.816
  P               4   up:     0.875   2.001   0.000   0.000   2.877    -0.672        0.081
                  4   dn:     0.872   1.923   0.000   0.000   2.795
  P               5   up:     0.867   1.980   0.000   0.000   2.847    -0.670        0.024
                  5   dn:     0.865   1.958   0.000   0.000   2.823
  P               6   up:     0.867   1.971   0.000   0.000   2.838    -0.675        0.000
                  6   dn:     0.867   1.970   0.000   0.000   2.838
  P               7   up:     0.867   1.974   0.000   0.000   2.842    -0.671        0.012
                  7   dn:     0.866   1.964   0.000   0.000   2.830
  P               8   up:     0.867   1.970   0.000   0.000   2.838    -0.674        0.001
                  8   dn:     0.867   1.969   0.000   0.000   2.836
  P               9   up:     0.867   1.974   0.000   0.000   2.842    -0.671        0.012
                  9   dn:     0.866   1.964   0.000   0.000   2.830
  P              10   up:     0.867   1.971   0.000   0.000   2.838    -0.675        0.000
                 10   dn:     0.867   1.970   0.000   0.000   2.838
  P              11   up:     0.867   1.980   0.000   0.000   2.847    -0.670        0.024
                 11   dn:     0.865   1.958   0.000   0.000   2.823
  P              12   up:     0.867   1.970   0.000   0.000   2.838    -0.674        0.001
                 12   dn:     0.867   1.969   0.000   0.000   2.836
  P              13   up:     0.867   1.970   0.000   0.000   2.837    -0.674        0.000
                 13   dn:     0.867   1.970   0.000   0.000   2.837
  P              14   up:     0.868   1.966   0.000   0.000   2.834    -0.664        0.003
                 14   dn:     0.868   1.962   0.000   0.000   2.830
  P              15   up:     0.867   1.970   0.000   0.000   2.837    -0.674        0.000
                 15   dn:     0.867   1.970   0.000   0.000   2.837
  P              16   up:     0.868   1.965   0.000   0.000   2.833    -0.665        0.000
                 16   dn:     0.868   1.965   0.000   0.000   2.832
  P              17   up:     0.869   1.978   0.000   0.000   2.847    -0.675        0.018
                 17   dn:     0.867   1.962   0.000   0.000   2.829
  P              18   up:     0.866   1.972   0.000   0.000   2.838    -0.677       -0.001
                 18   dn:     0.866   1.972   0.000   0.000   2.839
  P              19   up:     0.869   1.978   0.000   0.000   2.847    -0.675        0.018
                 19   dn:     0.867   1.962   0.000   0.000   2.829
  P              20   up:     0.866   1.971   0.000   0.000   2.837    -0.676       -0.001
                 20   dn:     0.867   1.972   0.000   0.000   2.838
  P              21   up:     0.867   1.972   0.000   0.000   2.839    -0.676        0.003
                 21   dn:     0.867   1.969   0.000   0.000   2.836
  P              22   up:     0.865   1.976   0.000   0.000   2.841    -0.678        0.004
                 22   dn:     0.864   1.972   0.000   0.000   2.837
  P              23   up:     0.867   1.972   0.000   0.000   2.839    -0.676        0.001
                 23   dn:     0.866   1.971   0.000   0.000   2.837
  P              24   up:     0.865   1.974   0.000   0.000   2.839    -0.676        0.003
                 24   dn:     0.865   1.972   0.000   0.000   2.837
  P              25   up:     0.867   1.972   0.000   0.000   2.839    -0.676        0.001
                 25   dn:     0.866   1.971   0.000   0.000   2.837
  P              26   up:     0.865   1.976   0.000   0.000   2.841    -0.678        0.004
                 26   dn:     0.864   1.972   0.000   0.000   2.837
  P              27   up:     0.867   1.972   0.000   0.000   2.839    -0.676        0.003
                 27   dn:     0.867   1.969   0.000   0.000   2.836
  P              28   up:     0.865   1.974   0.000   0.000   2.839    -0.676        0.003
                 28   dn:     0.865   1.972   0.000   0.000   2.837
  P              29   up:     0.867   1.969   0.000   0.000   2.837    -0.673        0.000
                 29   dn:     0.867   1.969   0.000   0.000   2.837
  P              30   up:     0.867   1.971   0.000   0.000   2.838    -0.675       -0.000
                 30   dn:     0.867   1.971   0.000   0.000   2.838
  P              31   up:     0.867   1.969   0.000   0.000   2.837    -0.673        0.000
                 31   dn:     0.867   1.969   0.000   0.000   2.837
  P              32   up:     0.866   1.971   0.000   0.000   2.838    -0.676       -0.000
                 32   dn:     0.866   1.972   0.000   0.000   2.838
  P              33   up:     0.943   2.041   0.000   0.000   2.985    -0.312        0.658
                 33   dn:     0.927   1.400   0.000   0.000   2.327
  In              1   up:     0.445   0.720   4.995   0.000   6.160     0.678       -0.003
                  1   dn:     0.448   0.720   4.995   0.000   6.163
  In              2   up:     0.439   0.713   4.995   0.000   6.146     0.708        0.000
                  2   dn:     0.437   0.715   4.994   0.000   6.146
  In              3   up:     0.454   0.719   4.995   0.000   6.168     0.676        0.011
                  3   dn:     0.447   0.714   4.995   0.000   6.156
  In              4   up:     0.439   0.713   4.995   0.000   6.146     0.707        0.000
                  4   dn:     0.437   0.715   4.994   0.000   6.146
  In              5   up:     0.448   0.728   4.994   0.000   6.170     0.665        0.006
                  5   dn:     0.447   0.723   4.994   0.000   6.165
  In              6   up:     0.442   0.720   4.995   0.000   6.157     0.684       -0.002
                  6   dn:     0.444   0.720   4.995   0.000   6.159
  In              7   up:     0.451   0.735   4.994   0.000   6.180     0.642        0.002
                  7   dn:     0.451   0.733   4.994   0.000   6.178
  In              8   up:     0.443   0.711   4.995   0.000   6.149     0.702       -0.001
                  8   dn:     0.440   0.715   4.994   0.000   6.150
  In              9   up:     0.448   0.728   4.994   0.000   6.170     0.665        0.006
                  9   dn:     0.447   0.723   4.994   0.000   6.165
  In             10   up:     0.443   0.711   4.995   0.000   6.149     0.702       -0.001
                 10   dn:     0.440   0.715   4.994   0.000   6.150
  In             11   up:     0.451   0.735   4.994   0.000   6.180     0.642        0.002
                 11   dn:     0.451   0.733   4.994   0.000   6.178
  In             12   up:     0.442   0.720   4.995   0.000   6.157     0.684       -0.002
                 12   dn:     0.444   0.720   4.995   0.000   6.159
  In             13   up:     0.441   0.722   4.995   0.000   6.158     0.682       -0.002
                 13   dn:     0.444   0.722   4.995   0.000   6.160
  In             14   up:     0.440   0.719   4.995   0.000   6.154     0.691       -0.001
                 14   dn:     0.441   0.720   4.995   0.000   6.155
  In             15   up:     0.443   0.722   4.995   0.000   6.161     0.680        0.001
                 15   dn:     0.442   0.723   4.995   0.000   6.160
  In             16   up:     0.440   0.719   4.995   0.000   6.154     0.691       -0.001
                 16   dn:     0.441   0.720   4.995   0.000   6.155
  In             17   up:     0.446   0.730   4.994   0.000   6.170     0.658       -0.002
                 17   dn:     0.446   0.731   4.994   0.000   6.172
  In             18   up:     0.440   0.725   4.994   0.000   6.160     0.682        0.001
                 18   dn:     0.440   0.724   4.994   0.000   6.158
  In             19   up:     0.470   0.687   4.993   0.000   6.149     0.665       -0.036
                 19   dn:     0.487   0.707   4.992   0.000   6.186
  In             20   up:     0.440   0.725   4.994   0.000   6.160     0.682        0.001
                 20   dn:     0.440   0.724   4.994   0.000   6.158
  In             21   up:     0.447   0.717   4.995   0.000   6.159     0.688        0.005
                 21   dn:     0.442   0.716   4.995   0.000   6.154
  In             22   up:     0.442   0.723   4.995   0.000   6.159     0.682        0.000
                 22   dn:     0.442   0.722   4.995   0.000   6.159
  In             23   up:     0.445   0.719   4.995   0.000   6.159     0.680       -0.002
                 23   dn:     0.446   0.720   4.995   0.000   6.161
  In             24   up:     0.440   0.726   4.994   0.000   6.160     0.681        0.002
                 24   dn:     0.440   0.724   4.994   0.000   6.159
  In             25   up:     0.447   0.717   4.995   0.000   6.159     0.688        0.005
                 25   dn:     0.442   0.716   4.995   0.000   6.154
  In             26   up:     0.440   0.726   4.994   0.000   6.160     0.681        0.002
                 26   dn:     0.440   0.724   4.994   0.000   6.159
  In             27   up:     0.445   0.719   4.995   0.000   6.159     0.680       -0.002
                 27   dn:     0.446   0.720   4.995   0.000   6.161
  In             28   up:     0.442   0.723   4.995   0.000   6.159     0.682        0.000
                 28   dn:     0.442   0.722   4.995   0.000   6.159
  In             29   up:     0.442   0.737   4.994   0.000   6.173     0.651       -0.003
                 29   dn:     0.443   0.739   4.994   0.000   6.176
  In             30   up:     0.441   0.723   4.995   0.000   6.159     0.683        0.000
                 30   dn:     0.441   0.723   4.995   0.000   6.158
  In             31   up:     0.447   0.730   4.994   0.000   6.171     0.656       -0.001
                 31   dn:     0.448   0.730   4.994   0.000   6.172
  In             32   up:     0.441   0.723   4.995   0.000   6.159     0.683        0.000
                 32   dn:     0.441   0.723   4.995   0.000   6.158
==============================================================================================

                 Bond                   Population        Spin       Length (A)
================================================================================
              P 2  -- P 33                   0.17        -0.07          2.24718
              P 33 -- In 19                  1.15        -0.02          2.38002
              P 19 -- In 19                  0.70        -0.00          2.48445
              P 17 -- In 19                  0.70        -0.00          2.48445
              P 4  -- In 29                  0.72        -0.00          2.48804
              P 22 -- In 24                  0.69        -0.00          2.52239
              P 26 -- In 26                  0.69        -0.00          2.52239
              P 5  -- In 7                   0.65        -0.00          2.52601
              P 11 -- In 11                  0.65        -0.00          2.52601
              P 11 -- In 2                   0.65        -0.01          2.52684
              P 5  -- In 4                   0.65        -0.01          2.52684
              P 24 -- In 20                  0.68         0.00          2.52762
              P 28 -- In 18                  0.68         0.00          2.52762
              P 22 -- In 7                   0.64        -0.00          2.53008
              P 26 -- In 11                  0.64        -0.00          2.53008
              P 9  -- In 11                  0.65        -0.00          2.53151
              P 7  -- In 7                   0.65        -0.00          2.53152
              P 2  -- In 4                   0.63         0.01          2.53183
              P 2  -- In 2                   0.63         0.01          2.53183
              P 14 -- In 31                  0.65         0.00          2.53417
              P 28 -- In 11                  0.64        -0.00          2.53533
              P 24 -- In 7                   0.64        -0.00          2.53533
              P 2  -- In 17                  0.66        -0.00          2.53841
              P 16 -- In 31                  0.64         0.00          2.53893
              P 4  -- In 8                   0.69         0.00          2.54029
              P 4  -- In 10                  0.69         0.00          2.54029
              P 23 -- In 29                  0.64        -0.00          2.54047
              P 25 -- In 29                  0.64        -0.00          2.54047
              P 3  -- In 9                   0.65        -0.00          2.54094
              P 1  -- In 5                   0.65        -0.00          2.54094
              P 25 -- In 26                  0.67         0.00          2.54228
              P 23 -- In 24                  0.67         0.00          2.54229
              P 21 -- In 20                  0.66         0.00          2.54365
              P 27 -- In 18                  0.66         0.00          2.54365
              P 7  -- In 8                   0.64        -0.01          2.54369
              P 9  -- In 10                  0.64        -0.01          2.54369
              P 6  -- In 21                  0.67         0.00          2.54424
              P 10 -- In 25                  0.67         0.00          2.54424
              P 18 -- In 18                  0.66         0.00          2.54425
              P 18 -- In 20                  0.66         0.00          2.54425
              P 20 -- In 24                  0.67         0.00          2.54433
              P 20 -- In 26                  0.67         0.00          2.54433
              P 26 -- In 9                   0.65        -0.00          2.54532
              P 22 -- In 5                   0.65        -0.00          2.54532
              P 27 -- In 17                  0.64        -0.00          2.54549
              P 21 -- In 17                  0.64        -0.00          2.54549
              P 19 -- In 26                  0.61        -0.00          2.54567
              P 17 -- In 24                  0.61        -0.00          2.54567
              P 12 -- In 2                   0.66        -0.00          2.54569
              P 8  -- In 4                   0.66        -0.00          2.54569
              P 13 -- In 12                  0.67         0.00          2.54582
              P 15 -- In 6                   0.67         0.00          2.54582
              P 26 -- In 28                  0.67         0.00          2.54643
              P 22 -- In 22                  0.67         0.00          2.54643
              P 32 -- In 28                  0.67         0.00          2.54676
              P 32 -- In 22                  0.67         0.00          2.54676
              P 32 -- In 1                   0.66         0.00          2.54705
              P 1  -- In 3                   0.66        -0.00          2.54711
              P 3  -- In 3                   0.66        -0.00          2.54711
              P 9  -- In 13                  0.68        -0.00          2.54721
              P 7  -- In 13                  0.68        -0.00          2.54721
              P 29 -- In 28                  0.67        -0.00          2.54736
              P 31 -- In 22                  0.67        -0.00          2.54736
              P 28 -- In 32                  0.67         0.00          2.54809
              P 24 -- In 30                  0.67         0.00          2.54809
              P 31 -- In 32                  0.67         0.00          2.54862
              P 29 -- In 30                  0.67         0.00          2.54862
              P 11 -- In 1                   0.67        -0.00          2.54897
              P 5  -- In 1                   0.67        -0.00          2.54897
              P 15 -- In 16                  0.66         0.00          2.54931
              P 13 -- In 14                  0.66         0.00          2.54931
              P 23 -- In 30                  0.65        -0.00          2.54932
              P 25 -- In 32                  0.65        -0.00          2.54933
              P 18 -- In 1                   0.65         0.00          2.54933
              P 10 -- In 10                  0.65         0.00          2.54957
              P 6  -- In 8                   0.65         0.00          2.54957
              P 30 -- In 30                  0.67         0.00          2.54957
              P 30 -- In 32                  0.67         0.00          2.54957
              P 14 -- In 14                  0.69         0.00          2.54959
              P 14 -- In 16                  0.69         0.00          2.54959
              P 8  -- In 25                  0.66         0.00          2.54959
              P 12 -- In 21                  0.66         0.00          2.54959
              P 24 -- In 9                   0.65        -0.00          2.54962
              P 28 -- In 5                   0.65        -0.00          2.54962
              P 13 -- In 15                  0.66        -0.00          2.55027
              P 15 -- In 15                  0.66        -0.00          2.55027
              P 10 -- In 27                  0.67         0.00          2.55045
              P 6  -- In 23                  0.67         0.00          2.55045
              P 20 -- In 13                  0.65         0.00          2.55078
              P 32 -- In 15                  0.66        -0.00          2.55113
              P 27 -- In 28                  0.64        -0.00          2.55145
              P 21 -- In 22                  0.64        -0.00          2.55145
              P 30 -- In 15                  0.66        -0.00          2.55173
              P 16 -- In 6                   0.68         0.00          2.55186
              P 16 -- In 12                  0.68         0.00          2.55186
              P 8  -- In 23                  0.66         0.00          2.55251
              P 12 -- In 27                  0.66         0.00          2.55251
              P 14 -- In 29                  0.58         0.00          2.55326
              P 19 -- In 20                  0.62        -0.00          2.55348
              P 17 -- In 18                  0.62        -0.00          2.55348
              P 30 -- In 13                  0.65         0.00          2.55374
              P 25 -- In 27                  0.67         0.00          2.55430
              P 23 -- In 23                  0.67         0.00          2.55430
              P 21 -- In 23                  0.66         0.00          2.55461
              P 27 -- In 27                  0.66         0.00          2.55461
              P 9  -- In 16                  0.67         0.00          2.55505
              P 7  -- In 14                  0.67         0.00          2.55505
              P 5  -- In 6                   0.66         0.00          2.55749
              P 11 -- In 12                  0.66         0.00          2.55749
              P 18 -- In 3                   0.65         0.00          2.55799
              P 1  -- In 2                   0.64         0.01          2.55855
              P 3  -- In 4                   0.64         0.01          2.55855
              P 29 -- In 31                  0.64         0.00          2.56033
              P 31 -- In 31                  0.64         0.00          2.56033
              P 13 -- In 9                   0.65         0.00          2.56150
              P 15 -- In 5                   0.65         0.00          2.56150
              P 20 -- In 3                   0.65         0.00          2.56329
              P 10 -- In 12                  0.64         0.00          2.56408
              P 6  -- In 6                   0.64         0.00          2.56408
              P 12 -- In 16                  0.64         0.00          2.56486
              P 8  -- In 14                  0.64         0.00          2.56486
              P 3  -- In 10                  0.63         0.00          2.56524
              P 1  -- In 8                   0.63         0.00          2.56524
              P 17 -- In 21                  0.65         0.00          2.56592
              P 19 -- In 25                  0.65         0.00          2.56592
              P 31 -- In 21                  0.63        -0.00          2.56889
              P 29 -- In 25                  0.63        -0.00          2.56889
              P 16 -- In 17                  0.61         0.00          2.56913
              P 4  -- P 33                  -0.22        -0.04          2.60409
================================================================================

 Hirshfeld supercell size:           2           2           2
Standard grid dimensions: 240 240 240
Fine grid dimensions:     240 240 240


     Hirshfeld Analysis
     ------------------
Species   Ion     Hirshfeld Charge (e)  Spin (hbar/2)
===================================================
  P        1                -0.23        0.02
  P        2                -0.20        0.10
  P        3                -0.23        0.02
  P        4                -0.26        0.07
  P        5                -0.24        0.02
  P        6                -0.23        0.00
  P        7                -0.24        0.01
  P        8                -0.23        0.00
  P        9                -0.24        0.01
  P       10                -0.23        0.00
  P       11                -0.24        0.02
  P       12                -0.23        0.00
  P       13                -0.24        0.00
  P       14                -0.24        0.00
  P       15                -0.24        0.00
  P       16                -0.24        0.00
  P       17                -0.23        0.01
  P       18                -0.24        0.00
  P       19                -0.23        0.01
  P       20                -0.24        0.00
  P       21                -0.24        0.00
  P       22                -0.24        0.00
  P       23                -0.24        0.00
  P       24                -0.24        0.00
  P       25                -0.24        0.00
  P       26                -0.24        0.00
  P       27                -0.24        0.00
  P       28                -0.24        0.00
  P       29                -0.24        0.00
  P       30                -0.24        0.00
  P       31                -0.24        0.00
  P       32                -0.24        0.00
  P       33                -0.12        0.49
  In       1                 0.24        0.00
  In       2                 0.25        0.03
  In       3                 0.25        0.00
  In       4                 0.25        0.03
  In       5                 0.24        0.00
  In       6                 0.24        0.00
  In       7                 0.23        0.00
  In       8                 0.24        0.02
  In       9                 0.24        0.00
  In      10                 0.24        0.02
  In      11                 0.23        0.00
  In      12                 0.24        0.00
  In      13                 0.24        0.00
  In      14                 0.24        0.00
  In      15                 0.24        0.00
  In      16                 0.24        0.00
  In      17                 0.23        0.01
  In      18                 0.24        0.00
  In      19                 0.25        0.03
  In      20                 0.24        0.00
  In      21                 0.25        0.00
  In      22                 0.24        0.00
  In      23                 0.24        0.00
  In      24                 0.24        0.00
  In      25                 0.25        0.00
  In      26                 0.24        0.00
  In      27                 0.24        0.00
  In      28                 0.24        0.00
  In      29                 0.22        0.00
  In      30                 0.24        0.00
  In      31                 0.23       -0.00
  In      32                 0.24        0.00
===================================================

 
 A BibTeX formatted list of references used in this run has been written to 
 P_Interstitial_Migration_Dumbbell#_Dumbbell+_Singlepoints_4.bib
 
Initialisation time =     30.74 s
Calculation time    =   7901.55 s
Finalisation time   =    176.15 s
Total time          =   8108.43 s
Peak Memory Use     = 9668904 kB
 
Overall parallel efficiency rating: Poor (35%)
 
Data was distributed by:-
G-vector (3-way); efficiency rating: Poor (37%)
k-point (36-way); efficiency rating: Very good (84%)
