 +-------------------------------------------------+
 |                                                 |
 |      CCC   AA    SSS  TTTTT  EEEEE  PPPP        |
 |     C     A  A  S       T    E      P   P       |
 |     C     AAAA   SS     T    EEE    PPPP        |
 |     C     A  A     S    T    E      P           |
 |      CCC  A  A  SSS     T    EEEEE  P           |
 |                                                 |
 +-------------------------------------------------+
 |                                                 |
 | Welcome to Academic Release CASTEP version 22.11|
 | Ab Initio Total Energy Program                  |
 |                                                 |
 | Authors:                                        |
 | M. Segall, M. Probert, C. Pickard, P. Hasnip,   |
 | S. Clark, K. Refson, J. R. Yates, M. Payne      |
 |                                                 |
 | Contributors:                                   |
 | P. Lindan, P. Haynes, J. White, V. Milman,      |
 | N. Govind, M. Gibson, P. Tulip, V. Cocula,      |
 | B. Montanari, D. Quigley, M. Glover,            |
 | L. Bernasconi, A. Perlov, M. Plummer,           |
 | E. McNellis, J. Meyer, J. Gale, D. Jochym       |
 | J. Aarons, B. Walker, R. Gillen, D. Jones       |
 | T. Green, I. J. Bush, C. J. Armstrong,          |
 | E. J. Higgins, E. L. Brown, M. S. McFly,        |
 | J. Wilkins, B-C. Shih, P. J. P. Byrne,          |
 | R. J. Maurer, J. C. Womack, J. Dziedzic,        |
 | A. Bartok-Partay, L. LeBlanc, T. K. Stenczel,   |
 | J. Kermode, S. Sturniolo, B. Shi, B. Durham     |
 | M. Evans, M. J. Smith                           |
 |                                                 |
 | Copyright (c) 2000 - 2021                       |
 |                                                 |
 |     Distributed under license from Cambridge    |
 |     Enterprise for academic use only.           |
 |                                                 |
 | Please cite                                     |
 |                                                 |
 |     "First principles methods using CASTEP"     |
 |                                                 |
 |         Zeitschrift fuer Kristallographie       |
 |           220(5-6) pp. 567-570 (2005)           |
 |                                                 |
 | S. J. Clark, M. D. Segall, C. J. Pickard,       |
 | P. J. Hasnip, M. J. Probert, K. Refson,         |
 | M. C. Payne                                     |
 |                                                 |
 |       in all publications arising from          |
 |              your use of CASTEP                 |
 |                                                 |
 +-------------------------------------------------+
 |                                                 |
 |              http://www.castep.org              |
 |                                                 |
 +-------------------------------------------------+



 Compiled for linux_x86_64_gfortran10-XT on Thu, 16 Mar 2023 13:12:36 +0000
 from code version Version unavailable
 Compiler: GNU Fortran 11.2.0; Optimisation: fast
 MATHLIBS: LibSci (LAPACK version 3.10.1)
 FFT Lib : fftw3 version commercial-fftw-3.3.10-sse2-avx-avx2-avx2_128
 Fundamental constants values: CODATA 2014

 Run started: Mon, 25 Mar 2024 19:38:00 +0000

 Atomic calculation performed for P: 1s2 2s2 2p6 3s2 3p3

 Converged in 47 iterations to an ae energy of -9309.074 eV

   ============================================================                
   | Pseudopotential Report - Date of generation 25-03-2024   |                
   ------------------------------------------------------------                
   | Element: P Ionic charge:  5.00 Level of theory: RSCAN    |                
   | Atomic Solver: Koelling-Harmon                           |                
   |                                                          |                
   |               Reference Electronic Structure             |                
   |         Orbital         Occupation         Energy        |                
   |            3s              2.000           -0.535        |                
   |            3p              3.000           -0.209        |                
   |                                                          |                
   |                 Pseudopotential Definition               |                
   |        Beta     l      e      Rc     scheme   norm       |                
   |          1      0   -0.535   1.807     qc      0         |                
   |          2      0    0.250   1.807     qc      0         |                
   |          3      1   -0.209   1.807     qc      0         |                
   |          4      1    0.250   1.807     qc      0         |                
   |          5      2    0.000   1.807     qc      0         |                
   |          6      2    0.250   1.807     qc      0         |                
   |         loc     3    0.000   1.807     pn      0         |                
   |                                                          |                
   | Augmentation charge Rinner = 1.263                       |                
   | Partial core correction Rc = 1.263                       |                
   ------------------------------------------------------------                
   | "3|1.8|4|4|5|30:31:32"                                   |                
   ------------------------------------------------------------                
   |      Author: Chris J. Pickard, Cambridge University      |                
   ============================================================                
 Warning: otfg_output_psp cannot write out meta-GGA pseudopotentials presently.

 Atomic calculation performed for In:
 1s2 2s2 2p6 3s2 3p6 3d10 4s2 4p6 4d10 5s2 5p1

 Converged in 84 iterations to an ae energy of -160093.327 eV

   ============================================================                
   | Pseudopotential Report - Date of generation 25-03-2024   |                
   ------------------------------------------------------------                
   | Element: In Ionic charge: 13.00 Level of theory: RSCAN   |                
   | Atomic Solver: Koelling-Harmon                           |                
   |                                                          |                
   |               Reference Electronic Structure             |                
   |         Orbital         Occupation         Energy        |                
   |            4d             10.000           -0.711        |                
   |            5s              2.000           -0.313        |                
   |            5p              1.000           -0.095        |                
   |                                                          |                
   |                 Pseudopotential Definition               |                
   |        Beta     l      e      Rc     scheme   norm       |                
   |          1      0   -0.313   2.501     qc      0         |                
   |          2      0    0.250   2.501     qc      0         |                
   |          3      1   -0.095   2.501     qc      0         |                
   |          4      1    0.250   2.501     qc      0         |                
   |          5      2   -0.711   2.207     qc      0         |                
   |          6      2    0.250   2.207     qc      0         |                
   |         loc     3    0.000   2.501     pn      0         |                
   |                                                          |                
   | Augmentation charge Rinner = 1.504                       |                
   | Partial core correction Rc = 1.504                       |                
   ------------------------------------------------------------                
   | "3|2.5|2.5|1.5|7|8|9|50:51:42U2.2U2.2"                   |                
   ------------------------------------------------------------                
   |      Author: Chris J. Pickard, Cambridge University      |                
   ============================================================                
 Warning: otfg_output_psp cannot write out meta-GGA pseudopotentials presently.

 Pseudo atomic calculation performed for P 3s2 3p3

 Converged in 23 iterations to a total energy of -208.0292 eV

 Pseudo atomic calculation performed for In 4d10 5s2 5p1

 Converged in 42 iterations to a total energy of -1747.4500 eV
 Calculation parallelised over 240 processes.
 Data is distributed by G-vector(6-way) and k-point(40-way)
 Each process may use up to 2 threads.

 ************************************ Title ************************************
 

 ***************************** General Parameters ******************************
  
 output verbosity                               : normal  (1)
 write checkpoint data to                       : StackingFaultStructs_(0_0_1)_(1_0_0)_6.check
 type of calculation                            : geometry optimization
 stress calculation                             : off
 density difference calculation                 : off
 electron localisation func (ELF) calculation   : off
 Hirshfeld analysis                             : on
 polarisation (Berry phase) analysis            : off
 molecular orbital projected DOS                : off
 deltaSCF calculation                           : off
 unlimited duration calculation
 timing information                             : on
 memory usage estimate                          : on
 write extra output files                       : on
 write final potential to formatted file        : off
 write final density to formatted file          : off
 write BibTeX reference list                    : on
 write OTFG pseudopotential files               : on
 write electrostatic potential file             : on
 write bands file                               : on
 checkpoint writing                             : off
  
 output         length unit                     : A
 output           mass unit                     : amu
 output           time unit                     : ps
 output         charge unit                     : e
 output           spin unit                     : hbar/2
 output         energy unit                     : eV
 output          force unit                     : eV/A
 output       velocity unit                     : A/ps
 output       pressure unit                     : GPa
 output     inv_length unit                     : 1/A
 output      frequency unit                     : cm-1
 output force constant unit                     : eV/A**2
 output         volume unit                     : A**3
 output   IR intensity unit                     : (D/A)**2/amu
 output         dipole unit                     : D
 output         efield unit                     : eV/A/e
 output        entropy unit                     : J/mol/K
 output    efield chi2 unit                     : pm/V
  
 wavefunctions paging                           : none
 random number generator seed                   : randomised (193800254)
 data distribution                              : optimal for this architecture
 optimization strategy                          : balance speed and memory

 *********************** Exchange-Correlation Parameters ***********************
  
 using functional                               : RSCAN
 relativistic treatment                         : Koelling-Harmon
 DFT+D: Semi-empirical dispersion correction    : off

 ************************* Pseudopotential Parameters **************************
  
 pseudopotential representation                 : reciprocal space
 <beta|phi> representation                      : reciprocal space
 spin-orbit coupling                            : off

 **************************** Basis Set Parameters *****************************
  
 plane wave basis set cut-off                   :   900.0000   eV
 size of standard grid                          :     2.0000
 size of   fine   gmax                          :    30.7390   1/A
 finite basis set correction                    : none

 **************************** Electronic Parameters ****************************
  
 number of  electrons                           :  216.0    
 net charge of system                           :  0.000    
 treating system as non-spin-polarized
 number of bands                                :        130

 ********************* Electronic Minimization Parameters **********************
  
 Method: Treating system as metallic with density mixing treatment of electrons,
         and number of  SD  steps               :          1
         and number of  CG  steps               :          4
  
 total energy / atom convergence tol.           : 0.1000E-07   eV
 eigen-energy convergence tolerance             : 0.2222E-08   eV
 max force / atom convergence tol.              : ignored
 convergence tolerance window                   :          3   cycles
 max. number of SCF cycles                      :         50
 number of fixed-spin iterations                :         10
 smearing scheme                                : Gaussian
 smearing width                                 : 0.2000       eV
 Fermi energy convergence tolerance             : 0.2721E-13   eV
 periodic dipole correction                     : NONE

 ************************** Density Mixing Parameters **************************
  
 density-mixing scheme                          : Pulay
 max. length of mixing history                  :         15
 charge density mixing amplitude                : 0.5000    
 cut-off energy for mixing                      :  900.0       eV

 *********************** Population Analysis Parameters ************************
  
 Population analysis with cutoff                :  3.000       A
 Population analysis output                     : summary and pdos components

 ********************** Geometry Optimization Parameters ***********************
  
 optimization method                            : LBFGS
 max. no. of LBFGS updates                      : unbounded
 preconditioned LBFGS is activated
 preconditioner type                            : EXP
     stabilization constant                     :     0.1000
     parameter A                                :     3.0000
     nearest neighbor distance                  : automatic
     cut-off distance                           : automatic
     parameter mu                               : automatic
 variable cell method                           : fixed basis quality
 max. number of steps                           :         30
 estimated bulk modulus                         :  500.0       GPa
 estimated <frequency>                          :  1668.       cm-1
 geom line minimiser                            : on
 with line minimiser tolerance                  :     0.4000
 total energy convergence tolerance             : 0.2000E-04   eV/atom
        max ionic |force| tolerance             : 0.1000E-02   eV/A
 max ionic |displacement| tolerance             : 0.1000E-02   A
   max |stress component| tolerance             : 0.1000       GPa
 convergence tolerance window                   :          2   steps
 backup results every                           :          5   steps
 write geom trajectory file                     : on

 *******************************************************************************
  

                           -------------------------------
                                      Unit Cell
                           -------------------------------
        Real Lattice(A)                      Reciprocal Lattice(1/A)
     5.9012740     0.0000000     0.0000000        1.064716756   0.000000000   0.000000000
     0.0000000     5.9012740     0.0000000        0.000000000   1.064716756  -0.245703857
     0.0000000     4.0854970    17.7038210        0.000000000   0.000000000   0.354905605

                       Lattice parameters(A)       Cell Angles
                    a =      5.901274          alpha =   77.005384
                    b =      5.901274          beta  =   90.000000
                    c =     18.169110          gamma =   90.000000

                       Current cell volume =           616.536183       A**3
                                   density =             2.837629   AMU/A**3
                                           =             4.711994     g/cm^3

                           -------------------------------
                                     Cell Contents
                           -------------------------------
                         Total number of ions in cell =   24
                      Total number of species in cell =    2
                        Max number of any one species =   12

            xxxxxxxxxxxxxxxxxxxxxxxxxxxxxxxxxxxxxxxxxxxxxxxxxxxxxxxxxxxx
            x  Element    Atom        Fractional coordinates of atoms  x
            x            Number           u          v          w      x
            x----------------------------------------------------------x
            x  P            1         0.250000   0.124413   0.903626   x 
            x  P            2         0.250000  -0.262136   0.739753   x 
            x  P            3         0.750000   0.237864   0.739753   x 
            x  P            4         0.750000  -0.375587   0.903626   x 
            x  P            5         0.750000   0.072044   0.257048   x 
            x  P            6         0.750000   0.460456   0.418229   x 
            x  P            7         0.750000  -0.151045   0.579287   x 
            x  P            8         0.250000   0.572044   0.257048   x 
            x  P            9         0.250000   0.184609   0.094454   x 
            x  P           10         0.750000   0.684609   0.094454   x 
            x  P           11         0.250000  -0.039544   0.418229   x 
            x  P           12         0.250000   0.348955   0.579287   x 
            x  In           1         0.000000  -0.069133   0.822081   x 
            x  In           2         0.500000   0.042910   0.660241   x 
            x  In           3         0.500000  -0.569133   0.822081   x 
            x  In           4         0.500000  -0.122192   0.176499   x 
            x  In           5         0.500000   0.491663   0.012042   x 
            x  In           6         0.000000  -0.008337   0.012042   x 
            x  In           7         0.000000   0.377808   0.176499   x 
            x  In           8         0.000000  -0.457090   0.660241   x 
            x  In           9         0.500000  -0.345468   0.499009   x 
            x  In          10         0.500000   0.266186   0.337731   x 
            x  In          11         0.000000  -0.233814   0.337731   x 
            x  In          12         0.000000   0.154532   0.499009   x 
            xxxxxxxxxxxxxxxxxxxxxxxxxxxxxxxxxxxxxxxxxxxxxxxxxxxxxxxxxxxx


                         No user defined ionic velocities

                           -------------------------------
                                   Details of Species
                           -------------------------------

                               Mass of species in AMU
                                    P   30.9737600
                                    In  114.8180000

                          Electric Quadrupole Moment (Barn)
                                    P    1.0000000 No Isotope Defined
                                    In    0.7700000 Isotope115

                          Files used for pseudopotentials:
                                    P 3|1.8|4|4|5|30:31:32
                                    In 3|2.5|2.5|1.5|7|8|9|50:51:42U2.2U2.2

                           -------------------------------
                              k-Points For BZ Sampling
                           -------------------------------
                       MP grid size for SCF calculation is  6  6  2
                            with an offset of   0.083  0.083  0.250
                       Number of kpoints used =            40

                           -------------------------------
                               Symmetry and Constraints
                           -------------------------------

                      Cell is a supercell containing 2 primitive cells
                      Maximum deviation from symmetry =  0.00000         ANG

                      Number of symmetry operations   =           1
                      Number of ionic constraints     =          48
                      Point group of crystal =     1: C1, 1, 1
                      Space group of crystal =     1: P1, P 1

             Set iprint > 1 for details on symmetry rotations/translations

                         Centre of mass is NOT constrained
             Set iprint > 1 for details of linear ionic constraints

                         Number of cell constraints= 6
                         Cell constraints are:  0 0 0 0 0 0

                         External pressure/stress (GPa)
                          0.00000   0.00000   0.00000
                                    0.00000   0.00000
                                              0.00000
 
+---------------- MEMORY AND SCRATCH DISK ESTIMATES PER PROCESS --------------+
|                                                     Memory          Disk    |
| Baseline code, static data and system overhead      488.0 MB         0.0 MB |
| BLAS internal memory storage                          0.0 MB         0.0 MB |
| Model and support data                              832.4 MB         0.0 MB |
| Electronic energy minimisation requirements          87.6 MB         0.0 MB |
| Force calculation requirements                       15.9 MB         0.0 MB |
|                                               ----------------------------- |
| Approx. total storage required per process         1408.0 MB         0.0 MB |
|                                                                             |
| Requirements will fluctuate during execution and may exceed these estimates |
+-----------------------------------------------------------------------------+
Calculating approximate eigenstates for fixed initial Hamiltonian
Cut-off for approx. calculation is  131.752 eV
Improving approx. states at cut-off of  450.000 eV
Resetting cut-off to  900.000 eV
Calculating total energy with cut-off of  900.000 eV.
------------------------------------------------------------------------ <-- SCF
SCF loop      Energy           Fermi           Energy gain       Timer   <-- SCF
                               energy          per atom          (sec)   <-- SCF
------------------------------------------------------------------------ <-- SCF
Initial  -2.36312917E+004  0.00000000E+000                        39.51  <-- SCF
      1  -2.35486470E+004  2.82270613E+000  -3.44353151E+000      50.17  <-- SCF
      2  -2.35486614E+004  2.82265091E+000   6.03581406E-004      59.74  <-- SCF
      3  -2.35730096E+004  3.31518061E+000   1.01450585E+000      70.22  <-- SCF
      4  -2.35770660E+004  3.37044244E+000   1.69018178E-001      82.72  <-- SCF
      5  -2.35747021E+004  3.62368491E+000  -9.84968668E-002      92.98  <-- SCF
      6  -2.35753894E+004  3.68252219E+000   2.86360779E-002     103.54  <-- SCF
      7  -2.35751254E+004  3.74409943E+000  -1.09997538E-002     114.48  <-- SCF
      8  -2.35755574E+004  3.74667635E+000   1.80018550E-002     125.16  <-- SCF
      9  -2.35757779E+004  3.71917134E+000   9.18559038E-003     135.43  <-- SCF
     10  -2.35757978E+004  3.70318307E+000   8.32099189E-004     146.30  <-- SCF
     11  -2.35757976E+004  3.71421070E+000  -1.03843613E-005     157.26  <-- SCF
     12  -2.35758024E+004  3.71068908E+000   1.98457029E-004     167.97  <-- SCF
     13  -2.35758021E+004  3.71610456E+000  -9.00231681E-006     178.97  <-- SCF
     14  -2.35758021E+004  3.71641624E+000   3.73371215E-007     189.97  <-- SCF
     15  -2.35758021E+004  3.71519448E+000  -3.82135575E-007     199.42  <-- SCF
     16  -2.35758021E+004  3.71517033E+000   1.17222185E-007     207.73  <-- SCF
     17  -2.35758021E+004  3.71525281E+000   4.35900386E-008     215.33  <-- SCF
     18  -2.35758021E+004  3.71523522E+000   3.28176899E-009     222.88  <-- SCF
     19  -2.35758021E+004  3.71521810E+000  -2.39881072E-010     230.29  <-- SCF
------------------------------------------------------------------------ <-- SCF
 
Final energy, E             =  -23575.77601266     eV
Final free energy (E-TS)    =  -23575.80214248     eV
(energies not corrected for finite basis set)
 
NB est. 0K energy (E-0.5TS)      =  -23575.78907757     eV
 
 
+---------------- MEMORY AND SCRATCH DISK ESTIMATES PER PROCESS --------------+
|                                                     Memory          Disk    |
| Model and support data                              554.6 MB         0.0 MB |
| Electronic energy minimisation requirements          87.6 MB         0.0 MB |
| Geometry minimisation requirements                  102.2 MB         0.0 MB |
|                                               ----------------------------- |
| Approx. total storage required per process          744.5 MB         0.0 MB |
|                                                                             |
| Requirements will fluctuate during execution and may exceed these estimates |
+-----------------------------------------------------------------------------+
 

 ******************************** Constrained Forces ********************************
 *                                                                                  *
 *                           Cartesian components (eV/A)                            *
 * -------------------------------------------------------------------------------- *
 *                         x                    y                    z              *
 *                                                                                  *
 * P               1     -0.00000(cons'd)     -0.00000(cons'd)      0.16165         *
 * P               2     -0.00000(cons'd)     -0.00000(cons'd)      0.11388         *
 * P               3     -0.00000(cons'd)     -0.00000(cons'd)      0.11388         *
 * P               4     -0.00000(cons'd)      0.00000(cons'd)      0.16165         *
 * P               5      0.00000(cons'd)      0.00000(cons'd)     -0.12344         *
 * P               6     -0.00000(cons'd)      0.00000(cons'd)     -0.09861         *
 * P               7     -0.00000(cons'd)      0.00000(cons'd)     -0.07019         *
 * P               8      0.00000(cons'd)      0.00000(cons'd)     -0.12344         *
 * P               9      0.00000(cons'd)      0.00000(cons'd)      0.09280         *
 * P              10      0.00000(cons'd)      0.00000(cons'd)      0.09280         *
 * P              11     -0.00000(cons'd)      0.00000(cons'd)     -0.09861         *
 * P              12     -0.00000(cons'd)      0.00000(cons'd)     -0.07019         *
 * In              1      0.00000(cons'd)      0.00000(cons'd)     -0.04982         *
 * In              2      0.00000(cons'd)      0.00000(cons'd)     -0.00655         *
 * In              3      0.00000(cons'd)      0.00000(cons'd)     -0.04982         *
 * In              4      0.00000(cons'd)     -0.00000(cons'd)      0.10881         *
 * In              5     -0.00000(cons'd)     -0.00000(cons'd)     -0.31507         *
 * In              6      0.00000(cons'd)      0.00000(cons'd)     -0.31507         *
 * In              7      0.00000(cons'd)      0.00000(cons'd)      0.10881         *
 * In              8      0.00000(cons'd)      0.00000(cons'd)     -0.00655         *
 * In              9      0.00000(cons'd)     -0.00000(cons'd)      0.07919         *
 * In             10      0.00000(cons'd)      0.00000(cons'd)      0.10733         *
 * In             11      0.00000(cons'd)     -0.00000(cons'd)      0.10733         *
 * In             12     -0.00000(cons'd)     -0.00000(cons'd)      0.07919         *
 *                                                                                  *
 ************************************************************************************
 EXP precond LBFGS => estimated nearest neighbor distance :  2.542       A
 EXP precond LBFGS => estimated cutoff distance :  5.084       A

 ************************************** Forces **************************************
 *                                                                                  *
 *                           Cartesian components (eV/A)                            *
 * -------------------------------------------------------------------------------- *
 *                         x                    y                    z              *
 *                                                                                  *
 * P               1     -0.40362(cons'd)     -1.14726(cons'd)      0.16165         *
 * P               2     -0.24688(cons'd)     -0.19395(cons'd)      0.11388         *
 * P               3     -0.24688(cons'd)     -0.19395(cons'd)      0.11388         *
 * P               4     -0.40362(cons'd)     -1.14726(cons'd)      0.16165         *
 * P               5      0.00600(cons'd)      0.06486(cons'd)     -0.12344         *
 * P               6     -0.00466(cons'd)      0.00527(cons'd)     -0.09861         *
 * P               7     -0.03773(cons'd)     -0.02750(cons'd)     -0.07019         *
 * P               8      0.00600(cons'd)      0.06486(cons'd)     -0.12344         *
 * P               9      0.08906(cons'd)      0.44411(cons'd)      0.09280         *
 * P              10      0.08906(cons'd)      0.44411(cons'd)      0.09280         *
 * P              11     -0.00466(cons'd)      0.00527(cons'd)     -0.09861         *
 * P              12     -0.03773(cons'd)     -0.02750(cons'd)     -0.07019         *
 * In              1      0.30746(cons'd)      0.42635(cons'd)     -0.04982         *
 * In              2      0.04252(cons'd)      0.06198(cons'd)     -0.00655         *
 * In              3      0.30746(cons'd)      0.42635(cons'd)     -0.04982         *
 * In              4      0.15046(cons'd)      0.05819(cons'd)      0.10881         *
 * In              5      0.06098(cons'd)      0.28734(cons'd)     -0.31507         *
 * In              6      0.06098(cons'd)      0.28734(cons'd)     -0.31507         *
 * In              7      0.15046(cons'd)      0.05819(cons'd)      0.10881         *
 * In              8      0.04252(cons'd)      0.06198(cons'd)     -0.00655         *
 * In              9      0.01085(cons'd)      0.01079(cons'd)      0.07919         *
 * In             10      0.02557(cons'd)      0.00983(cons'd)      0.10733         *
 * In             11      0.02557(cons'd)      0.00983(cons'd)      0.10733         *
 * In             12      0.01085(cons'd)      0.01079(cons'd)      0.07919         *
 *                                                                                  *
 ************************************************************************************
 doing test perturbation to get energy scale for EXP preconditioner

                           -------------------------------
                                     Cell Contents
                           -------------------------------

            xxxxxxxxxxxxxxxxxxxxxxxxxxxxxxxxxxxxxxxxxxxxxxxxxxxxxxxxxxxxxxxxx
            x  Element         Atom        Fractional coordinates of atoms  x
            x                 Number           u          v          w      x
            x---------------------------------------------------------------x
            x  P                 1         0.251409   0.126002   0.904844   x
            x  P                 2         0.251409   0.740755   0.740812   x
            x  P                 3         0.753625   0.239563   0.740812   x
            x  P                 4         0.753625   0.627194   0.904844   x
            x  P                 5         0.753625   0.072617   0.257456   x
            x  P                 6         0.753625   0.462439   0.418879   x
            x  P                 7         0.753625   0.851979   0.580155   x
            x  P                 8         0.251409   0.574193   0.257456   x
            x  P                 9         0.251409   0.185359   0.094606   x
            x  P                10         0.753625   0.686936   0.094606   x
            x  P                11         0.251409   0.963632   0.418879   x
            x  P                12         0.251409   0.350786   0.580155   x
            x  In                1         0.000000   0.934090   0.823225   x
            x  In                2         0.502664   0.043917   0.661210   x
            x  In                3         0.502664   0.433165   0.823225   x
            x  In                4         0.502664   0.880703   0.176782   x
            x  In                5         0.502664   0.493327   0.012062   x
            x  In                6         0.000000   0.994740   0.012062   x
            x  In                7         0.000000   0.379290   0.176782   x
            x  In                8         0.000000   0.545330   0.661210   x
            x  In                9         0.502664   0.657095   0.499772   x
            x  In               10         0.502664   0.267496   0.338262   x
            x  In               11         0.000000   0.768909   0.338262   x
            x  In               12         0.000000   0.155682   0.499772   x
            xxxxxxxxxxxxxxxxxxxxxxxxxxxxxxxxxxxxxxxxxxxxxxxxxxxxxxxxxxxxxxxxx


------------------------------------------------------------------------ <-- SCF
SCF loop      Energy           Fermi           Energy gain       Timer   <-- SCF
                               energy          per atom          (sec)   <-- SCF
------------------------------------------------------------------------ <-- SCF
Initial  -2.35746205E+004  0.00000000E+000                       244.26  <-- SCF
      1  -2.35756581E+004  3.69848462E+000   4.32335012E-002     254.39  <-- SCF
      2  -2.35757768E+004  3.69840783E+000   4.94391507E-003     267.11  <-- SCF
      3  -2.35757777E+004  3.69814870E+000   3.81004074E-005     277.96  <-- SCF
      4  -2.35757785E+004  3.69759505E+000   3.51011715E-005     288.96  <-- SCF
      5  -2.35757787E+004  3.69722454E+000   6.17750657E-006     300.44  <-- SCF
      6  -2.35757787E+004  3.69687024E+000   1.09481038E-006     311.55  <-- SCF
      7  -2.35757787E+004  3.69672155E+000   9.86103266E-009     321.18  <-- SCF
      8  -2.35757787E+004  3.69659051E+000  -3.38280004E-008     329.94  <-- SCF
      9  -2.35757787E+004  3.69652543E+000  -8.23948302E-009     338.31  <-- SCF
     10  -2.35757787E+004  3.69649112E+000  -2.61536107E-010     346.08  <-- SCF
     11  -2.35757787E+004  3.69648208E+000   5.32868540E-010     353.53  <-- SCF
------------------------------------------------------------------------ <-- SCF
 
Final energy, E             =  -23575.75397295     eV
Final free energy (E-TS)    =  -23575.77870790     eV
(energies not corrected for finite basis set)
 
NB est. 0K energy (E-0.5TS)      =  -23575.76634042     eV
 

 ************************************** Forces **************************************
 *                                                                                  *
 *                           Cartesian components (eV/A)                            *
 * -------------------------------------------------------------------------------- *
 *                         x                    y                    z              *
 *                                                                                  *
 * P               1     -0.31280(cons'd)     -1.11711(cons'd)      0.04428         *
 * P               2     -0.24563(cons'd)     -0.24445(cons'd)      0.14156         *
 * P               3     -0.41108(cons'd)     -0.15783(cons'd)      0.09085         *
 * P               4     -0.40025(cons'd)     -1.19944(cons'd)      0.06825         *
 * P               5     -0.14114(cons'd)      0.16717(cons'd)     -0.11949         *
 * P               6     -0.14263(cons'd)      0.00582(cons'd)     -0.09653         *
 * P               7     -0.17959(cons'd)     -0.10763(cons'd)     -0.06833         *
 * P               8      0.03603(cons'd)      0.05302(cons'd)     -0.12169         *
 * P               9      0.11526(cons'd)      0.54444(cons'd)      0.12197         *
 * P              10     -0.04906(cons'd)      0.43882(cons'd)      0.11671         *
 * P              11      0.01535(cons'd)     -0.07526(cons'd)     -0.09767         *
 * P              12     -0.01107(cons'd)     -0.01402(cons'd)     -0.06709         *
 * In              1      0.44072(cons'd)      0.37691(cons'd)     -0.08151         *
 * In              2     -0.00962(cons'd)      0.14228(cons'd)     -0.00894         *
 * In              3      0.27059(cons'd)      0.42690(cons'd)     -0.09108         *
 * In              4      0.10062(cons'd)     -0.03244(cons'd)      0.10995         *
 * In              5     -0.02697(cons'd)      0.27769(cons'd)     -0.15706         *
 * In              6      0.05444(cons'd)      0.27489(cons'd)     -0.24095         *
 * In              7      0.31295(cons'd)      0.08544(cons'd)      0.11059         *
 * In              8      0.21502(cons'd)      0.05025(cons'd)     -0.00981         *
 * In              9     -0.04425(cons'd)     -0.01426(cons'd)      0.07605         *
 * In             10      0.00300(cons'd)      0.06593(cons'd)      0.07240         *
 * In             11      0.22728(cons'd)     -0.05137(cons'd)      0.13644         *
 * In             12      0.18281(cons'd)      0.10424(cons'd)      0.07109         *
 *                                                                                  *
 ************************************************************************************
 EXP precond LBFGS => estimated parameter mu :  1.995       eV/A**2
 LBFGS: finished iteration     0 with enthalpy= -2.35758021E+004 eV
  
 +-----------+-----------------+-----------------+------------+-----+ <-- LBFGS
 | Parameter |      value      |    tolerance    |    units   | OK? | <-- LBFGS
 +-----------+-----------------+-----------------+------------+-----+ <-- LBFGS
 |  dE/ion   |   0.000000E+000 |   2.000000E-005 |         eV | No  | <-- LBFGS
 |  |F|max   |   1.266297E+000 |   1.000000E-003 |       eV/A | No  | <-- LBFGS
 |  |dR|max  |   3.789292E-015 |   1.000000E-003 |          A | No  | <-- LBFGS
 +-----------+-----------------+-----------------+------------+-----+ <-- LBFGS
  

================================================================================
 Starting LBFGS iteration          1 ...
================================================================================
  
 +------------+-------------+-------------+-----------------+ <-- min LBFGS
 |    Step    |   lambda    |   F.delta'  |    enthalpy     | <-- min LBFGS
 +------------+-------------+-------------+-----------------+ <-- min LBFGS
 |  previous  |    0.000000 |    0.310367 |   -23575.802142 | <-- min LBFGS
 +------------+-------------+-------------+-----------------+ <-- min LBFGS
  

--------------------------------------------------------------------------------
 LBFGS: starting iteration         1 with trial guess (lambda=  1.000000)
--------------------------------------------------------------------------------

                           -------------------------------
                                     Cell Contents
                           -------------------------------

            xxxxxxxxxxxxxxxxxxxxxxxxxxxxxxxxxxxxxxxxxxxxxxxxxxxxxxxxxxxxxxxxx
            x  Element         Atom        Fractional coordinates of atoms  x
            x                 Number           u          v          w      x
            x---------------------------------------------------------------x
            x  P                 1         0.250000   0.124002   0.904219   x
            x  P                 2         0.250000  -0.262745   0.740631   x
            x  P                 3         0.750000   0.237255   0.740631   x
            x  P                 4         0.750000  -0.375998   0.904219   x
            x  P                 5         0.750000   0.072410   0.256519   x
            x  P                 6         0.750000   0.460680   0.417906   x
            x  P                 7         0.750000  -0.150989   0.579206   x
            x  P                 8         0.250000   0.572410   0.256519   x
            x  P                 9         0.250000   0.184667   0.094370   x
            x  P                10         0.750000   0.684667   0.094370   x
            x  P                11         0.250000  -0.039320   0.417906   x
            x  P                12         0.250000   0.349011   0.579206   x
            x  In                1         0.000000  -0.069262   0.822268   x
            x  In                2         0.500000   0.042685   0.660566   x
            x  In                3         0.500000  -0.569262   0.822268   x
            x  In                4         0.500000  -0.122381   0.176772   x
            x  In                5         0.500000   0.492947   0.010187   x
            x  In                6         0.000000  -0.007053   0.010187   x
            x  In                7         0.000000   0.377619   0.176772   x
            x  In                8         0.000000  -0.457315   0.660566   x
            x  In                9         0.500000  -0.345695   0.499337   x
            x  In               10         0.500000   0.265986   0.338020   x
            x  In               11         0.000000  -0.234014   0.338020   x
            x  In               12        -0.000000   0.154305   0.499337   x
            xxxxxxxxxxxxxxxxxxxxxxxxxxxxxxxxxxxxxxxxxxxxxxxxxxxxxxxxxxxxxxxxx


------------------------------------------------------------------------ <-- SCF
SCF loop      Energy           Fermi           Energy gain       Timer   <-- SCF
                               energy          per atom          (sec)   <-- SCF
------------------------------------------------------------------------ <-- SCF
Initial  -2.35745786E+004  0.00000000E+000                       362.13  <-- SCF
      1  -2.35756736E+004  3.70025737E+000   4.56264141E-002     372.25  <-- SCF
      2  -2.35758120E+004  3.70018858E+000   5.76693418E-003     384.95  <-- SCF
      3  -2.35758127E+004  3.70211238E+000   2.90273826E-005     395.93  <-- SCF
      4  -2.35758132E+004  3.70597863E+000   1.93737891E-005     407.10  <-- SCF
      5  -2.35758132E+004  3.70773748E+000  -1.46761844E-008     419.13  <-- SCF
      6  -2.35758131E+004  3.70912386E+000  -2.31321559E-006     430.19  <-- SCF
      7  -2.35758131E+004  3.71039023E+000  -1.53889843E-006     441.09  <-- SCF
      8  -2.35758131E+004  3.71116336E+000  -2.77487876E-007     450.86  <-- SCF
      9  -2.35758131E+004  3.71129454E+000   1.33589653E-008     459.43  <-- SCF
     10  -2.35758131E+004  3.71134185E+000   2.07114942E-009     467.11  <-- SCF
     11  -2.35758131E+004  3.71136251E+000   4.08867684E-010     474.68  <-- SCF
------------------------------------------------------------------------ <-- SCF
 
Final energy, E             =  -23575.79376799     eV
Final free energy (E-TS)    =  -23575.81310519     eV
(energies not corrected for finite basis set)
 
NB est. 0K energy (E-0.5TS)      =  -23575.80343659     eV
 

 ******************************** Constrained Forces ********************************
 *                                                                                  *
 *                           Cartesian components (eV/A)                            *
 * -------------------------------------------------------------------------------- *
 *                         x                    y                    z              *
 *                                                                                  *
 * P               1     -0.00000(cons'd)     -0.00000(cons'd)     -0.11055         *
 * P               2      0.00000(cons'd)      0.00000(cons'd)     -0.00521         *
 * P               3      0.00000(cons'd)      0.00000(cons'd)     -0.00521         *
 * P               4     -0.00000(cons'd)     -0.00000(cons'd)     -0.11055         *
 * P               5      0.00000(cons'd)      0.00000(cons'd)      0.03649         *
 * P               6      0.00000(cons'd)      0.00000(cons'd)      0.02456         *
 * P               7     -0.00000(cons'd)      0.00000(cons'd)      0.01631         *
 * P               8      0.00000(cons'd)      0.00000(cons'd)      0.03650         *
 * P               9      0.00000(cons'd)      0.00000(cons'd)     -0.01400         *
 * P              10      0.00000(cons'd)      0.00000(cons'd)     -0.01400         *
 * P              11     -0.00000(cons'd)      0.00000(cons'd)      0.02456         *
 * P              12     -0.00000(cons'd)      0.00000(cons'd)      0.01630         *
 * In              1      0.00000(cons'd)      0.00000(cons'd)      0.00432         *
 * In              2      0.00000(cons'd)      0.00000(cons'd)      0.00519         *
 * In              3      0.00000(cons'd)      0.00000(cons'd)      0.00433         *
 * In              4     -0.00000(cons'd)      0.00000(cons'd)     -0.02404         *
 * In              5      0.00000(cons'd)      0.00000(cons'd)      0.12158         *
 * In              6      0.00000(cons'd)      0.00000(cons'd)      0.12155         *
 * In              7      0.00000(cons'd)      0.00000(cons'd)     -0.02406         *
 * In              8      0.00000(cons'd)     -0.00000(cons'd)      0.00519         *
 * In              9      0.00000(cons'd)      0.00000(cons'd)     -0.02393         *
 * In             10      0.00000(cons'd)      0.00000(cons'd)     -0.03069         *
 * In             11      0.00000(cons'd)      0.00000(cons'd)     -0.03071         *
 * In             12      0.00000(cons'd)      0.00000(cons'd)     -0.02393         *
 *                                                                                  *
 ************************************************************************************
  
 +------------+-------------+-------------+-----------------+ <-- min LBFGS
 |    Step    |   lambda    |   F.delta'  |    enthalpy     | <-- min LBFGS
 +------------+-------------+-------------+-----------------+ <-- min LBFGS
 |  previous  |    0.000000 |    0.310367 |   -23575.802142 | <-- min LBFGS
 | trial step |    1.000000 |   -0.112254 |   -23575.813105 | <-- min LBFGS
 +------------+-------------+-------------+-----------------+ <-- min LBFGS
  
 LBFGS: finished iteration     1 with enthalpy= -2.35758131E+004 eV
  
 +-----------+-----------------+-----------------+------------+-----+ <-- LBFGS
 | Parameter |      value      |    tolerance    |    units   | OK? | <-- LBFGS
 +-----------+-----------------+-----------------+------------+-----+ <-- LBFGS
 |  dE/ion   |   4.567793E-004 |   2.000000E-005 |         eV | No  | <-- LBFGS
 |  |F|max   |   1.215794E-001 |   1.000000E-003 |       eV/A | No  | <-- LBFGS
 |  |dR|max  |   3.284486E-002 |   1.000000E-003 |          A | No  | <-- LBFGS
 +-----------+-----------------+-----------------+------------+-----+ <-- LBFGS
  

================================================================================
 Starting LBFGS iteration          2 ...
================================================================================
  
 +------------+-------------+-------------+-----------------+ <-- min LBFGS
 |    Step    |   lambda    |   F.delta'  |    enthalpy     | <-- min LBFGS
 +------------+-------------+-------------+-----------------+ <-- min LBFGS
 |  previous  |    0.000000 |    0.115680 |   -23575.813105 | <-- min LBFGS
 +------------+-------------+-------------+-----------------+ <-- min LBFGS
  

--------------------------------------------------------------------------------
 LBFGS: starting iteration         2 with trial guess (lambda=  1.000000)
--------------------------------------------------------------------------------

                           -------------------------------
                                     Cell Contents
                           -------------------------------

            xxxxxxxxxxxxxxxxxxxxxxxxxxxxxxxxxxxxxxxxxxxxxxxxxxxxxxxxxxxxxxxxx
            x  Element         Atom        Fractional coordinates of atoms  x
            x                 Number           u          v          w      x
            x---------------------------------------------------------------x
            x  P                 1         0.250000   0.124308   0.903777   x
            x  P                 2         0.250000  -0.262652   0.740497   x
            x  P                 3         0.750000   0.237348   0.740497   x
            x  P                 4         0.750000  -0.375692   0.903777   x
            x  P                 5         0.750000   0.072285   0.256700   x
            x  P                 6         0.750000   0.460629   0.417980   x
            x  P                 7         0.750000  -0.150990   0.579207   x
            x  P                 8         0.250000   0.572285   0.256700   x
            x  P                 9         0.250000   0.184576   0.094501   x
            x  P                10         0.750000   0.684576   0.094501   x
            x  P                11         0.250000  -0.039371   0.417980   x
            x  P                12         0.250000   0.349010   0.579207   x
            x  In                1         0.000000  -0.069133   0.822081   x
            x  In                2         0.500000   0.042726   0.660508   x
            x  In                3         0.500000  -0.569133   0.822081   x
            x  In                4         0.500000  -0.122423   0.176833   x
            x  In                5         0.500000   0.492639   0.010632   x
            x  In                6         0.000000  -0.007361   0.010632   x
            x  In                7         0.000000   0.377577   0.176833   x
            x  In                8         0.000000  -0.457274   0.660508   x
            x  In                9         0.500000  -0.345651   0.499273   x
            x  In               10         0.500000   0.265993   0.338010   x
            x  In               11         0.000000  -0.234007   0.338010   x
            x  In               12        -0.000000   0.154349   0.499273   x
            xxxxxxxxxxxxxxxxxxxxxxxxxxxxxxxxxxxxxxxxxxxxxxxxxxxxxxxxxxxxxxxxx


------------------------------------------------------------------------ <-- SCF
SCF loop      Energy           Fermi           Energy gain       Timer   <-- SCF
                               energy          per atom          (sec)   <-- SCF
------------------------------------------------------------------------ <-- SCF
Initial  -2.35757892E+004  0.00000000E+000                       483.30  <-- SCF
      1  -2.35758123E+004  3.71702707E+000   9.61040135E-004     493.45  <-- SCF
      2  -2.35758151E+004  3.71702216E+000   1.15142342E-004     506.18  <-- SCF
      3  -2.35758150E+004  3.71729870E+000  -3.35268189E-006     517.17  <-- SCF
      4  -2.35758150E+004  3.71675694E+000  -1.40392943E-006     527.72  <-- SCF
      5  -2.35758149E+004  3.71647024E+000  -5.27861071E-007     537.58  <-- SCF
      6  -2.35758149E+004  3.71630082E+000  -3.41158190E-007     547.01  <-- SCF
      7  -2.35758149E+004  3.71615102E+000  -1.26416036E-007     556.14  <-- SCF
      8  -2.35758149E+004  3.71609790E+000  -4.24167998E-009     564.66  <-- SCF
      9  -2.35758149E+004  3.71608958E+000   1.10853155E-009     572.14  <-- SCF
------------------------------------------------------------------------ <-- SCF
 
Final energy, E             =  -23575.79364610     eV
Final free energy (E-TS)    =  -23575.81492995     eV
(energies not corrected for finite basis set)
 
NB est. 0K energy (E-0.5TS)      =  -23575.80428802     eV
 

 ******************************** Constrained Forces ********************************
 *                                                                                  *
 *                           Cartesian components (eV/A)                            *
 * -------------------------------------------------------------------------------- *
 *                         x                    y                    z              *
 *                                                                                  *
 * P               1     -0.00000(cons'd)     -0.00000(cons'd)      0.00845         *
 * P               2      0.00000(cons'd)     -0.00000(cons'd)     -0.00648         *
 * P               3      0.00000(cons'd)     -0.00000(cons'd)     -0.00648         *
 * P               4     -0.00000(cons'd)     -0.00000(cons'd)      0.00846         *
 * P               5      0.00000(cons'd)      0.00000(cons'd)      0.00462         *
 * P               6     -0.00000(cons'd)      0.00000(cons'd)      0.00235         *
 * P               7     -0.00000(cons'd)      0.00000(cons'd)      0.00191         *
 * P               8      0.00000(cons'd)      0.00000(cons'd)      0.00461         *
 * P               9      0.00000(cons'd)      0.00000(cons'd)     -0.00287         *
 * P              10      0.00000(cons'd)      0.00000(cons'd)     -0.00287         *
 * P              11     -0.00000(cons'd)      0.00000(cons'd)      0.00235         *
 * P              12      0.00000(cons'd)     -0.00000(cons'd)      0.00192         *
 * In              1      0.00000(cons'd)      0.00000(cons'd)      0.00466         *
 * In              2      0.00000(cons'd)      0.00000(cons'd)      0.00308         *
 * In              3      0.00000(cons'd)      0.00000(cons'd)      0.00466         *
 * In              4      0.00000(cons'd)      0.00000(cons'd)     -0.00295         *
 * In              5      0.00000(cons'd)      0.00000(cons'd)     -0.00724         *
 * In              6      0.00000(cons'd)      0.00000(cons'd)     -0.00722         *
 * In              7      0.00000(cons'd)      0.00000(cons'd)     -0.00294         *
 * In              8      0.00000(cons'd)      0.00000(cons'd)      0.00308         *
 * In              9     -0.00000(cons'd)      0.00000(cons'd)     -0.00264         *
 * In             10      0.00000(cons'd)      0.00000(cons'd)     -0.00291         *
 * In             11      0.00000(cons'd)      0.00000(cons'd)     -0.00290         *
 * In             12      0.00000(cons'd)      0.00000(cons'd)     -0.00264         *
 *                                                                                  *
 ************************************************************************************
  
 +------------+-------------+-------------+-----------------+ <-- min LBFGS
 |    Step    |   lambda    |   F.delta'  |    enthalpy     | <-- min LBFGS
 +------------+-------------+-------------+-----------------+ <-- min LBFGS
 |  previous  |    0.000000 |    0.115680 |   -23575.813105 | <-- min LBFGS
 | trial step |    1.000000 |   -0.006848 |   -23575.814930 | <-- min LBFGS
 +------------+-------------+-------------+-----------------+ <-- min LBFGS
  
 LBFGS: finished iteration     2 with enthalpy= -2.35758149E+004 eV
  
 +-----------+-----------------+-----------------+------------+-----+ <-- LBFGS
 | Parameter |      value      |    tolerance    |    units   | OK? | <-- LBFGS
 +-----------+-----------------+-----------------+------------+-----+ <-- LBFGS
 |  dE/ion   |   7.603172E-005 |   2.000000E-005 |         eV | No  | <-- LBFGS
 |  |F|max   |   8.456212E-003 |   1.000000E-003 |       eV/A | No  | <-- LBFGS
 |  |dR|max  |   7.886878E-003 |   1.000000E-003 |          A | No  | <-- LBFGS
 +-----------+-----------------+-----------------+------------+-----+ <-- LBFGS
  

================================================================================
 Starting LBFGS iteration          3 ...
================================================================================
  
 +------------+-------------+-------------+-----------------+ <-- min LBFGS
 |    Step    |   lambda    |   F.delta'  |    enthalpy     | <-- min LBFGS
 +------------+-------------+-------------+-----------------+ <-- min LBFGS
 |  previous  |    0.000000 |    0.010022 |   -23575.814930 | <-- min LBFGS
 +------------+-------------+-------------+-----------------+ <-- min LBFGS
  

--------------------------------------------------------------------------------
 LBFGS: starting iteration         3 with trial guess (lambda=  1.000000)
--------------------------------------------------------------------------------

                           -------------------------------
                                     Cell Contents
                           -------------------------------

            xxxxxxxxxxxxxxxxxxxxxxxxxxxxxxxxxxxxxxxxxxxxxxxxxxxxxxxxxxxxxxxxx
            x  Element         Atom        Fractional coordinates of atoms  x
            x                 Number           u          v          w      x
            x---------------------------------------------------------------x
            x  P                 1         0.250000   0.124279   0.903819   x
            x  P                 2         0.250000  -0.262647   0.740490   x
            x  P                 3         0.750000   0.237353   0.740490   x
            x  P                 4         0.750000  -0.375721   0.903820   x
            x  P                 5         0.750000   0.072282   0.256704   x
            x  P                 6         0.750000   0.460624   0.417988   x
            x  P                 7         0.750000  -0.151005   0.579229   x
            x  P                 8         0.250000   0.572282   0.256704   x
            x  P                 9         0.250000   0.184606   0.094458   x
            x  P                10         0.750000   0.684606   0.094458   x
            x  P                11         0.250000  -0.039376   0.417988   x
            x  P                12         0.250000   0.348995   0.579229   x
            x  In                1         0.000000  -0.069161   0.822121   x
            x  In                2         0.500000   0.042708   0.660534   x
            x  In                3         0.500000  -0.569161   0.822121   x
            x  In                4         0.500000  -0.122397   0.176795   x
            x  In                5         0.500000   0.492660   0.010602   x
            x  In                6         0.000000  -0.007340   0.010602   x
            x  In                7         0.000000   0.377603   0.176795   x
            x  In                8         0.000000  -0.457292   0.660534   x
            x  In                9         0.500000  -0.345647   0.499269   x
            x  In               10         0.500000   0.266006   0.337992   x
            x  In               11         0.000000  -0.233994   0.337992   x
            x  In               12        -0.000000   0.154353   0.499269   x
            xxxxxxxxxxxxxxxxxxxxxxxxxxxxxxxxxxxxxxxxxxxxxxxxxxxxxxxxxxxxxxxxx


------------------------------------------------------------------------ <-- SCF
SCF loop      Energy           Fermi           Energy gain       Timer   <-- SCF
                               energy          per atom          (sec)   <-- SCF
------------------------------------------------------------------------ <-- SCF
Initial  -2.35757906E+004  0.00000000E+000                       580.73  <-- SCF
      1  -2.35758149E+004  3.71525751E+000   1.01149330E-003     591.04  <-- SCF
      2  -2.35758149E+004  3.71525746E+000   2.31777784E-006     603.77  <-- SCF
      3  -2.35758149E+004  3.71510672E+000  -6.16420883E-009     613.15  <-- SCF
      4  -2.35758149E+004  3.71495844E+000  -1.09937972E-009     621.67  <-- SCF
------------------------------------------------------------------------ <-- SCF
 
Final energy, E             =  -23575.79378406     eV
Final free energy (E-TS)    =  -23575.81494863     eV
(energies not corrected for finite basis set)
 
NB est. 0K energy (E-0.5TS)      =  -23575.80436635     eV
 

 ******************************** Constrained Forces ********************************
 *                                                                                  *
 *                           Cartesian components (eV/A)                            *
 * -------------------------------------------------------------------------------- *
 *                         x                    y                    z              *
 *                                                                                  *
 * P               1      0.00000(cons'd)      0.00000(cons'd)      0.00063         *
 * P               2     -0.00000(cons'd)      0.00000(cons'd)      0.00145         *
 * P               3      0.00000(cons'd)      0.00000(cons'd)      0.00145         *
 * P               4     -0.00000(cons'd)     -0.00000(cons'd)      0.00063         *
 * P               5      0.00000(cons'd)      0.00000(cons'd)     -0.00123         *
 * P               6      0.00000(cons'd)      0.00000(cons'd)     -0.00089         *
 * P               7      0.00000(cons'd)      0.00000(cons'd)     -0.00008         *
 * P               8      0.00000(cons'd)      0.00000(cons'd)     -0.00124         *
 * P               9      0.00000(cons'd)      0.00000(cons'd)     -0.00040         *
 * P              10      0.00000(cons'd)      0.00000(cons'd)     -0.00040         *
 * P              11     -0.00000(cons'd)      0.00000(cons'd)     -0.00089         *
 * P              12      0.00000(cons'd)     -0.00000(cons'd)     -0.00008         *
 * In              1      0.00000(cons'd)      0.00000(cons'd)     -0.00177         *
 * In              2      0.00000(cons'd)      0.00000(cons'd)     -0.00134         *
 * In              3     -0.00000(cons'd)     -0.00000(cons'd)     -0.00177         *
 * In              4      0.00000(cons'd)      0.00000(cons'd)      0.00109         *
 * In              5      0.00000(cons'd)      0.00000(cons'd)     -0.00017         *
 * In              6      0.00000(cons'd)      0.00000(cons'd)     -0.00017         *
 * In              7      0.00000(cons'd)      0.00000(cons'd)      0.00109         *
 * In              8      0.00000(cons'd)      0.00000(cons'd)     -0.00134         *
 * In              9     -0.00000(cons'd)      0.00000(cons'd)      0.00118         *
 * In             10      0.00000(cons'd)      0.00000(cons'd)      0.00153         *
 * In             11      0.00000(cons'd)      0.00000(cons'd)      0.00153         *
 * In             12      0.00000(cons'd)      0.00000(cons'd)      0.00118         *
 *                                                                                  *
 ************************************************************************************
  
 +------------+-------------+-------------+-----------------+ <-- min LBFGS
 |    Step    |   lambda    |   F.delta'  |    enthalpy     | <-- min LBFGS
 +------------+-------------+-------------+-----------------+ <-- min LBFGS
 |  previous  |    0.000000 |    0.010022 |   -23575.814930 | <-- min LBFGS
 | trial step |    1.000000 |   -0.001223 |   -23575.814949 | <-- min LBFGS
 +------------+-------------+-------------+-----------------+ <-- min LBFGS
  
 LBFGS: finished iteration     3 with enthalpy= -2.35758149E+004 eV
  
 +-----------+-----------------+-----------------+------------+-----+ <-- LBFGS
 | Parameter |      value      |    tolerance    |    units   | OK? | <-- LBFGS
 +-----------+-----------------+-----------------+------------+-----+ <-- LBFGS
 |  dE/ion   |   7.785998E-007 |   2.000000E-005 |         eV | Yes | <-- LBFGS
 |  |F|max   |   1.773814E-003 |   1.000000E-003 |       eV/A | No  | <-- LBFGS
 |  |dR|max  |   7.571796E-004 |   1.000000E-003 |          A | Yes | <-- LBFGS
 +-----------+-----------------+-----------------+------------+-----+ <-- LBFGS
  

================================================================================
 Starting LBFGS iteration          4 ...
================================================================================
  
 +------------+-------------+-------------+-----------------+ <-- min LBFGS
 |    Step    |   lambda    |   F.delta'  |    enthalpy     | <-- min LBFGS
 +------------+-------------+-------------+-----------------+ <-- min LBFGS
 |  previous  |    0.000000 |    0.002234 |   -23575.814949 | <-- min LBFGS
 +------------+-------------+-------------+-----------------+ <-- min LBFGS
  

--------------------------------------------------------------------------------
 LBFGS: starting iteration         4 with trial guess (lambda=  1.000000)
--------------------------------------------------------------------------------

                           -------------------------------
                                     Cell Contents
                           -------------------------------

            xxxxxxxxxxxxxxxxxxxxxxxxxxxxxxxxxxxxxxxxxxxxxxxxxxxxxxxxxxxxxxxxx
            x  Element         Atom        Fractional coordinates of atoms  x
            x                 Number           u          v          w      x
            x---------------------------------------------------------------x
            x  P                 1         0.250000   0.124280   0.903818   x
            x  P                 2         0.250000  -0.262647   0.740490   x
            x  P                 3         0.750000   0.237353   0.740490   x
            x  P                 4         0.750000  -0.375720   0.903818   x
            x  P                 5         0.750000   0.072282   0.256704   x
            x  P                 6         0.750000   0.460623   0.417990   x
            x  P                 7         0.750000  -0.151005   0.579229   x
            x  P                 8         0.250000   0.572282   0.256704   x
            x  P                 9         0.250000   0.184607   0.094457   x
            x  P                10         0.750000   0.684607   0.094457   x
            x  P                11         0.250000  -0.039377   0.417990   x
            x  P                12         0.250000   0.348995   0.579229   x
            x  In                1         0.000000  -0.069154   0.822112   x
            x  In                2         0.500000   0.042712   0.660527   x
            x  In                3         0.500000  -0.569154   0.822112   x
            x  In                4         0.500000  -0.122400   0.176800   x
            x  In                5         0.500000   0.492662   0.010599   x
            x  In                6         0.000000  -0.007338   0.010599   x
            x  In                7         0.000000   0.377600   0.176800   x
            x  In                8         0.000000  -0.457288   0.660527   x
            x  In                9         0.500000  -0.345652   0.499275   x
            x  In               10         0.500000   0.266000   0.338000   x
            x  In               11         0.000000  -0.234000   0.338000   x
            x  In               12        -0.000000   0.154348   0.499275   x
            xxxxxxxxxxxxxxxxxxxxxxxxxxxxxxxxxxxxxxxxxxxxxxxxxxxxxxxxxxxxxxxxx


------------------------------------------------------------------------ <-- SCF
SCF loop      Energy           Fermi           Energy gain       Timer   <-- SCF
                               energy          per atom          (sec)   <-- SCF
------------------------------------------------------------------------ <-- SCF
Initial  -2.35757927E+004  0.00000000E+000                       630.26  <-- SCF
      1  -2.35758149E+004  3.71496333E+000   9.28093541E-004     640.39  <-- SCF
      2  -2.35758149E+004  3.71496333E+000   1.23911141E-007     650.97  <-- SCF
      3  -2.35758149E+004  3.71496478E+000   1.87612520E-009     658.26  <-- SCF
      4  -2.35758149E+004  3.71495766E+000   6.69114801E-010     665.55  <-- SCF
------------------------------------------------------------------------ <-- SCF
 
Final energy, E             =  -23575.79378901     eV
Final free energy (E-TS)    =  -23575.81494899     eV
(energies not corrected for finite basis set)
 
NB est. 0K energy (E-0.5TS)      =  -23575.80436900     eV
 

 ******************************** Constrained Forces ********************************
 *                                                                                  *
 *                           Cartesian components (eV/A)                            *
 * -------------------------------------------------------------------------------- *
 *                         x                    y                    z              *
 *                                                                                  *
 * P               1     -0.00000(cons'd)      0.00000(cons'd)     -0.00082         *
 * P               2     -0.00000(cons'd)      0.00000(cons'd)      0.00050         *
 * P               3     -0.00000(cons'd)      0.00000(cons'd)      0.00050         *
 * P               4      0.00000(cons'd)      0.00000(cons'd)     -0.00082         *
 * P               5      0.00000(cons'd)      0.00000(cons'd)     -0.00020         *
 * P               6     -0.00000(cons'd)      0.00000(cons'd)     -0.00016         *
 * P               7      0.00000(cons'd)     -0.00000(cons'd)     -0.00038         *
 * P               8      0.00000(cons'd)      0.00000(cons'd)     -0.00020         *
 * P               9      0.00000(cons'd)      0.00000(cons'd)      0.00080         *
 * P              10      0.00000(cons'd)      0.00000(cons'd)      0.00080         *
 * P              11     -0.00000(cons'd)      0.00000(cons'd)     -0.00016         *
 * P              12      0.00000(cons'd)     -0.00000(cons'd)     -0.00038         *
 * In              1      0.00000(cons'd)      0.00000(cons'd)      0.00094         *
 * In              2      0.00000(cons'd)      0.00000(cons'd)      0.00080         *
 * In              3     -0.00000(cons'd)      0.00000(cons'd)      0.00094         *
 * In              4      0.00000(cons'd)      0.00000(cons'd)     -0.00053         *
 * In              5      0.00000(cons'd)      0.00000(cons'd)      0.00038         *
 * In              6      0.00000(cons'd)     -0.00000(cons'd)      0.00038         *
 * In              7     -0.00000(cons'd)      0.00000(cons'd)     -0.00053         *
 * In              8      0.00000(cons'd)      0.00000(cons'd)      0.00080         *
 * In              9      0.00000(cons'd)      0.00000(cons'd)     -0.00053         *
 * In             10      0.00000(cons'd)      0.00000(cons'd)     -0.00081         *
 * In             11      0.00000(cons'd)      0.00000(cons'd)     -0.00081         *
 * In             12     -0.00000(cons'd)      0.00000(cons'd)     -0.00053         *
 *                                                                                  *
 ************************************************************************************
  
 +------------+-------------+-------------+-----------------+ <-- min LBFGS
 |    Step    |   lambda    |   F.delta'  |    enthalpy     | <-- min LBFGS
 +------------+-------------+-------------+-----------------+ <-- min LBFGS
 |  previous  |    0.000000 |    0.002234 |   -23575.814949 | <-- min LBFGS
 | trial step |    1.000000 |   -0.001260 |   -23575.814949 | <-- min LBFGS
 +------------+-------------+-------------+-----------------+ <-- min LBFGS
  
 LBFGS: finished iteration     4 with enthalpy= -2.35758149E+004 eV
  
 +-----------+-----------------+-----------------+------------+-----+ <-- LBFGS
 | Parameter |      value      |    tolerance    |    units   | OK? | <-- LBFGS
 +-----------+-----------------+-----------------+------------+-----+ <-- LBFGS
 |  dE/ion   |   1.469004E-008 |   2.000000E-005 |         eV | Yes | <-- LBFGS
 |  |F|max   |   9.400645E-004 |   1.000000E-003 |       eV/A | Yes | <-- LBFGS
 |  |dR|max  |   1.700532E-004 |   1.000000E-003 |          A | Yes | <-- LBFGS
 +-----------+-----------------+-----------------+------------+-----+ <-- LBFGS
  
 LBFGS: Geometry optimization completed successfully.

================================================================================
 LBFGS: Final Configuration:
================================================================================

                           -------------------------------
                                     Cell Contents
                           -------------------------------

            xxxxxxxxxxxxxxxxxxxxxxxxxxxxxxxxxxxxxxxxxxxxxxxxxxxxxxxxxxxxxxxxx
            x  Element         Atom        Fractional coordinates of atoms  x
            x                 Number           u          v          w      x
            x---------------------------------------------------------------x
            x  P                 1         0.250000   0.124280   0.903818   x
            x  P                 2         0.250000  -0.262647   0.740490   x
            x  P                 3         0.750000   0.237353   0.740490   x
            x  P                 4         0.750000  -0.375720   0.903818   x
            x  P                 5         0.750000   0.072282   0.256704   x
            x  P                 6         0.750000   0.460623   0.417990   x
            x  P                 7         0.750000  -0.151005   0.579229   x
            x  P                 8         0.250000   0.572282   0.256704   x
            x  P                 9         0.250000   0.184607   0.094457   x
            x  P                10         0.750000   0.684607   0.094457   x
            x  P                11         0.250000  -0.039377   0.417990   x
            x  P                12         0.250000   0.348995   0.579229   x
            x  In                1         0.000000  -0.069154   0.822112   x
            x  In                2         0.500000   0.042712   0.660527   x
            x  In                3         0.500000  -0.569154   0.822112   x
            x  In                4         0.500000  -0.122400   0.176800   x
            x  In                5         0.500000   0.492662   0.010599   x
            x  In                6         0.000000  -0.007338   0.010599   x
            x  In                7         0.000000   0.377600   0.176800   x
            x  In                8         0.000000  -0.457288   0.660527   x
            x  In                9         0.500000  -0.345652   0.499275   x
            x  In               10         0.500000   0.266000   0.338000   x
            x  In               11         0.000000  -0.234000   0.338000   x
            x  In               12        -0.000000   0.154348   0.499275   x
            xxxxxxxxxxxxxxxxxxxxxxxxxxxxxxxxxxxxxxxxxxxxxxxxxxxxxxxxxxxxxxxxx


 LBFGS: Final Enthalpy     = -2.35758149E+004 eV
 LBFGS: Final <frequency>  =     358.70171 cm-1

 ******************* Unconstrained Forces *******************
 *                                                          *
 *               Cartesian components (eV/A)                *
 * -------------------------------------------------------- *
 *                         x            y            z      *
 *                                                          *
 * P               1     -0.29236     -1.12747     -0.00082 *
 * P               2     -0.24923     -0.19524      0.00050 *
 * P               3     -0.24923     -0.19524      0.00050 *
 * P               4     -0.29236     -1.12747     -0.00082 *
 * P               5      0.00617      0.06705     -0.00020 *
 * P               6     -0.00491      0.00572     -0.00016 *
 * P               7     -0.03790     -0.02768     -0.00038 *
 * P               8      0.00617      0.06705     -0.00020 *
 * P               9      0.07903      0.44829      0.00080 *
 * P              10      0.07903      0.44829      0.00080 *
 * P              11     -0.00491      0.00572     -0.00016 *
 * P              12     -0.03790     -0.02768     -0.00038 *
 * In              1      0.30754      0.42115      0.00094 *
 * In              2      0.04295      0.06261      0.00080 *
 * In              3      0.30754      0.42116      0.00094 *
 * In              4      0.15492      0.05918     -0.00053 *
 * In              5     -0.04354      0.26570      0.00038 *
 * In              6     -0.04354      0.26570      0.00038 *
 * In              7      0.15492      0.05918     -0.00053 *
 * In              8      0.04295      0.06261      0.00080 *
 * In              9      0.01099      0.01075     -0.00053 *
 * In             10      0.02633      0.00995     -0.00081 *
 * In             11      0.02633      0.00995     -0.00081 *
 * In             12      0.01099      0.01075     -0.00053 *
 *                                                          *
 ************************************************************

 ******************************** Constrained Forces ********************************
 *                                                                                  *
 *                           Cartesian components (eV/A)                            *
 * -------------------------------------------------------------------------------- *
 *                         x                    y                    z              *
 *                                                                                  *
 * P               1     -0.00000(cons'd)      0.00000(cons'd)     -0.00082         *
 * P               2     -0.00000(cons'd)      0.00000(cons'd)      0.00050         *
 * P               3     -0.00000(cons'd)      0.00000(cons'd)      0.00050         *
 * P               4      0.00000(cons'd)      0.00000(cons'd)     -0.00082         *
 * P               5      0.00000(cons'd)      0.00000(cons'd)     -0.00020         *
 * P               6     -0.00000(cons'd)      0.00000(cons'd)     -0.00016         *
 * P               7      0.00000(cons'd)     -0.00000(cons'd)     -0.00038         *
 * P               8      0.00000(cons'd)      0.00000(cons'd)     -0.00020         *
 * P               9      0.00000(cons'd)      0.00000(cons'd)      0.00080         *
 * P              10      0.00000(cons'd)      0.00000(cons'd)      0.00080         *
 * P              11     -0.00000(cons'd)      0.00000(cons'd)     -0.00016         *
 * P              12      0.00000(cons'd)     -0.00000(cons'd)     -0.00038         *
 * In              1      0.00000(cons'd)      0.00000(cons'd)      0.00094         *
 * In              2      0.00000(cons'd)      0.00000(cons'd)      0.00080         *
 * In              3     -0.00000(cons'd)      0.00000(cons'd)      0.00094         *
 * In              4      0.00000(cons'd)      0.00000(cons'd)     -0.00053         *
 * In              5      0.00000(cons'd)      0.00000(cons'd)      0.00038         *
 * In              6      0.00000(cons'd)     -0.00000(cons'd)      0.00038         *
 * In              7     -0.00000(cons'd)      0.00000(cons'd)     -0.00053         *
 * In              8      0.00000(cons'd)      0.00000(cons'd)      0.00080         *
 * In              9      0.00000(cons'd)      0.00000(cons'd)     -0.00053         *
 * In             10      0.00000(cons'd)      0.00000(cons'd)     -0.00081         *
 * In             11      0.00000(cons'd)      0.00000(cons'd)     -0.00081         *
 * In             12     -0.00000(cons'd)      0.00000(cons'd)     -0.00053         *
 *                                                                                  *
 ************************************************************************************

 Pseudo atomic calculation performed for P 3s2 3p3

 Converged in 23 iterations to a total energy of -208.0292 eV

 Pseudo atomic calculation performed for In 4d10 5s2 5p1

 Converged in 42 iterations to a total energy of -1747.4500 eV
Charge spilling parameter for spin component 1 = 0.20%

            Orbital Populations       
     Ion    Atom   Orbital             Charge
  -------------------------------------------
      P     1      S                    1.744
      P     1      Px                   1.297
      P     1      Py                   1.376
      P     1      Pz                   1.263
      P     2      S                    1.732
      P     2      Px                   1.310
      P     2      Py                   1.312
      P     2      Pz                   1.319
      P     3      S                    1.732
      P     3      Px                   1.310
      P     3      Py                   1.312
      P     3      Pz                   1.319
      P     4      S                    1.744
      P     4      Px                   1.297
      P     4      Py                   1.376
      P     4      Pz                   1.263
      P     5      S                    1.728
      P     5      Px                   1.316
      P     5      Py                   1.316
      P     5      Pz                   1.321
      P     6      S                    1.726
      P     6      Px                   1.316
      P     6      Py                   1.317
      P     6      Pz                   1.323
      P     7      S                    1.726
      P     7      Px                   1.316
      P     7      Py                   1.316
      P     7      Pz                   1.323
      P     8      S                    1.728
      P     8      Px                   1.316
      P     8      Py                   1.316
      P     8      Pz                   1.321
      P     9      S                    1.749
      P     9      Px                   1.290
      P     9      Py                   1.287
      P     9      Pz                   1.310
      P    10      S                    1.749
      P    10      Px                   1.290
      P    10      Py                   1.287
      P    10      Pz                   1.310
      P    11      S                    1.726
      P    11      Px                   1.316
      P    11      Py                   1.317
      P    11      Pz                   1.323
      P    12      S                    1.726
      P    12      Px                   1.316
      P    12      Py                   1.316
      P    12      Pz                   1.323
     In     1      Dzz                  1.999
     In     1      Dzy                  1.997
     In     1      Dzx                  1.997
     In     1      Dxx-yy               1.999
     In     1      Dxy                  1.996
     In     1      S                    1.425
     In     1      Px                   0.495
     In     1      Py                   0.479
     In     1      Pz                   0.467
     In     1      S                   -0.503
     In     2      Dzz                  1.999
     In     2      Dzy                  1.997
     In     2      Dzx                  1.997
     In     2      Dxx-yy               1.999
     In     2      Dxy                  1.997
     In     2      S                    1.439
     In     2      Px                   0.495
     In     2      Py                   0.493
     In     2      Pz                   0.473
     In     2      S                   -0.578
     In     3      Dzz                  1.999
     In     3      Dzy                  1.997
     In     3      Dzx                  1.997
     In     3      Dxx-yy               1.999
     In     3      Dxy                  1.996
     In     3      S                    1.425
     In     3      Px                   0.495
     In     3      Py                   0.479
     In     3      Pz                   0.467
     In     3      S                   -0.503
     In     4      Dzz                  1.999
     In     4      Dzy                  1.997
     In     4      Dzx                  1.997
     In     4      Dxx-yy               1.999
     In     4      Dxy                  1.997
     In     4      S                    1.437
     In     4      Px                   0.498
     In     4      Py                   0.495
     In     4      Pz                   0.468
     In     4      S                   -0.517
     In     5      Dzz                  1.998
     In     5      Dzy                  1.998
     In     5      Dzx                  1.995
     In     5      Dxx-yy               1.999
     In     5      Dxy                  1.997
     In     5      S                    1.465
     In     5      Px                   0.462
     In     5      Py                   0.438
     In     5      Pz                   0.488
     In     5      S                   -0.496
     In     6      Dzz                  1.998
     In     6      Dzy                  1.998
     In     6      Dzx                  1.995
     In     6      Dxx-yy               1.999
     In     6      Dxy                  1.997
     In     6      S                    1.465
     In     6      Px                   0.462
     In     6      Py                   0.438
     In     6      Pz                   0.488
     In     6      S                   -0.496
     In     7      Dzz                  1.999
     In     7      Dzy                  1.997
     In     7      Dzx                  1.997
     In     7      Dxx-yy               1.999
     In     7      Dxy                  1.997
     In     7      S                    1.437
     In     7      Px                   0.498
     In     7      Py                   0.495
     In     7      Pz                   0.468
     In     7      S                   -0.517
     In     8      Dzz                  1.999
     In     8      Dzy                  1.997
     In     8      Dzx                  1.997
     In     8      Dxx-yy               1.999
     In     8      Dxy                  1.997
     In     8      S                    1.439
     In     8      Px                   0.495
     In     8      Py                   0.493
     In     8      Pz                   0.473
     In     8      S                   -0.578
     In     9      Dzz                  1.999
     In     9      Dzy                  1.997
     In     9      Dzx                  1.997
     In     9      Dxx-yy               1.999
     In     9      Dxy                  1.997
     In     9      S                    1.435
     In     9      Px                   0.491
     In     9      Py                   0.491
     In     9      Pz                   0.475
     In     9      S                   -0.580
     In    10      Dzz                  1.999
     In    10      Dzy                  1.997
     In    10      Dzx                  1.997
     In    10      Dxx-yy               1.999
     In    10      Dxy                  1.997
     In    10      S                    1.440
     In    10      Px                   0.491
     In    10      Py                   0.491
     In    10      Pz                   0.474
     In    10      S                   -0.591
     In    11      Dzz                  1.999
     In    11      Dzy                  1.997
     In    11      Dzx                  1.997
     In    11      Dxx-yy               1.999
     In    11      Dxy                  1.997
     In    11      S                    1.440
     In    11      Px                   0.491
     In    11      Py                   0.491
     In    11      Pz                   0.474
     In    11      S                   -0.591
     In    12      Dzz                  1.999
     In    12      Dzy                  1.997
     In    12      Dzx                  1.997
     In    12      Dxx-yy               1.999
     In    12      Dxy                  1.997
     In    12      S                    1.435
     In    12      Px                   0.491
     In    12      Py                   0.491
     In    12      Pz                   0.475
     In    12      S                   -0.580
  -------------------------------------------
                           Total:     216.000
  -------------------------------------------

     Atomic Populations (Mulliken)
     -----------------------------
Species          Ion     s       p       d       f      Total   Charge (e)
==========================================================================
  P               1     1.744   3.937   0.000   0.000   5.681    -0.681
  P               2     1.732   3.941   0.000   0.000   5.672    -0.672
  P               3     1.732   3.941   0.000   0.000   5.672    -0.672
  P               4     1.744   3.937   0.000   0.000   5.681    -0.681
  P               5     1.728   3.952   0.000   0.000   5.680    -0.680
  P               6     1.726   3.956   0.000   0.000   5.683    -0.683
  P               7     1.726   3.955   0.000   0.000   5.682    -0.682
  P               8     1.728   3.952   0.000   0.000   5.680    -0.680
  P               9     1.749   3.887   0.000   0.000   5.635    -0.635
  P              10     1.749   3.887   0.000   0.000   5.635    -0.635
  P              11     1.726   3.956   0.000   0.000   5.683    -0.683
  P              12     1.726   3.955   0.000   0.000   5.682    -0.682
  In              1     0.922   1.441   9.988   0.000  12.351     0.649
  In              2     0.861   1.461   9.988   0.000  12.310     0.690
  In              3     0.922   1.441   9.988   0.000  12.351     0.649
  In              4     0.920   1.461   9.988   0.000  12.369     0.631
  In              5     0.969   1.387   9.988   0.000  12.344     0.656
  In              6     0.969   1.387   9.988   0.000  12.344     0.656
  In              7     0.920   1.461   9.988   0.000  12.369     0.631
  In              8     0.861   1.461   9.988   0.000  12.310     0.690
  In              9     0.855   1.458   9.988   0.000  12.301     0.699
  In             10     0.849   1.456   9.988   0.000  12.293     0.707
  In             11     0.849   1.456   9.988   0.000  12.293     0.707
  In             12     0.855   1.458   9.988   0.000  12.301     0.699
==========================================================================

                 Bond                   Population      Length (A)
======================================================================
              P 1  -- In 6                   0.99        2.42202
              P 4  -- In 5                   0.99        2.42202
              P 5  -- In 4                   0.58        2.52076
              P 8  -- In 7                   0.58        2.52076
              P 8  -- In 4                   0.61        2.52076
              P 5  -- In 7                   0.61        2.52076
              P 7  -- In 9                   0.61        2.52126
              P 12 -- In 12                  0.61        2.52126
              P 12 -- In 9                   0.62        2.52126
              P 7  -- In 12                  0.62        2.52126
              P 3  -- In 2                   0.62        2.52135
              P 2  -- In 8                   0.62        2.52135
              P 2  -- In 2                   0.58        2.52135
              P 3  -- In 8                   0.58        2.52135
              P 6  -- In 10                  0.60        2.52161
              P 11 -- In 11                  0.60        2.52161
              P 11 -- In 10                  0.61        2.52161
              P 6  -- In 11                  0.61        2.52161
              P 6  -- In 12                  0.58        2.53457
              P 11 -- In 12                  0.58        2.53457
              P 6  -- In 9                   0.58        2.53457
              P 11 -- In 9                   0.58        2.53457
              P 5  -- In 11                  0.57        2.53468
              P 8  -- In 11                  0.58        2.53468
              P 5  -- In 10                  0.58        2.53468
              P 8  -- In 10                  0.57        2.53468
              P 12 -- In 8                   0.57        2.53470
              P 12 -- In 2                   0.57        2.53470
              P 7  -- In 8                   0.57        2.53470
              P 7  -- In 2                   0.57        2.53470
              P 3  -- In 1                   0.54        2.53795
              P 2  -- In 1                   0.58        2.53795
              P 3  -- In 3                   0.58        2.53795
              P 2  -- In 3                   0.54        2.53795
              P 1  -- In 1                   0.63        2.53880
              P 4  -- In 3                   0.63        2.53880
              P 1  -- In 3                   0.63        2.53881
              P 4  -- In 1                   0.63        2.53881
              P 10 -- In 7                   0.56        2.54525
              P 9  -- In 7                   0.55        2.54525
              P 10 -- In 4                   0.55        2.54525
              P 9  -- In 4                   0.56        2.54525
              P 10 -- In 5                   0.46        2.56070
              P 9  -- In 6                   0.46        2.56070
              P 9  -- In 5                   0.63        2.56070
              P 10 -- In 6                   0.63        2.56070
======================================================================


     Hirshfeld Analysis
     ------------------
Species   Ion     Hirshfeld Charge (e)
======================================
  P        1                -0.29
  P        2                -0.23
  P        3                -0.23
  P        4                -0.29
  P        5                -0.24
  P        6                -0.24
  P        7                -0.24
  P        8                -0.24
  P        9                -0.23
  P       10                -0.23
  P       11                -0.24
  P       12                -0.24
  In       1                 0.24
  In       2                 0.24
  In       3                 0.24
  In       4                 0.23
  In       5                 0.28
  In       6                 0.28
  In       7                 0.23
  In       8                 0.24
  In       9                 0.24
  In      10                 0.24
  In      11                 0.24
  In      12                 0.24
======================================

 
 A BibTeX formatted list of references used in this run has been written to 
 StackingFaultStructs_(0_0_1)_(1_0_0)_6.bib
 
Initialisation time =     19.55 s
Calculation time    =    660.71 s
Finalisation time   =      0.93 s
Total time          =    681.19 s
Peak Memory Use     = 2201240 kB
 
Overall parallel efficiency rating: Mediocre (55%)
 
Data was distributed by:-
G-vector (6-way); efficiency rating: Mediocre (59%)
k-point (40-way); efficiency rating: Very good (87%)
