 +-------------------------------------------------+
 |                                                 |
 |      CCC   AA    SSS  TTTTT  EEEEE  PPPP        |
 |     C     A  A  S       T    E      P   P       |
 |     C     AAAA   SS     T    EEE    PPPP        |
 |     C     A  A     S    T    E      P           |
 |      CCC  A  A  SSS     T    EEEEE  P           |
 |                                                 |
 +-------------------------------------------------+
 |                                                 |
 | Welcome to Academic Release CASTEP version 22.11|
 | Ab Initio Total Energy Program                  |
 |                                                 |
 | Authors:                                        |
 | M. Segall, M. Probert, C. Pickard, P. Hasnip,   |
 | S. Clark, K. Refson, J. R. Yates, M. Payne      |
 |                                                 |
 | Contributors:                                   |
 | P. Lindan, P. Haynes, J. White, V. Milman,      |
 | N. Govind, M. Gibson, P. Tulip, V. Cocula,      |
 | B. Montanari, D. Quigley, M. Glover,            |
 | L. Bernasconi, A. Perlov, M. Plummer,           |
 | E. McNellis, J. Meyer, J. Gale, D. Jochym       |
 | J. Aarons, B. Walker, R. Gillen, D. Jones       |
 | T. Green, I. J. Bush, C. J. Armstrong,          |
 | E. J. Higgins, E. L. Brown, M. S. McFly,        |
 | J. Wilkins, B-C. Shih, P. J. P. Byrne,          |
 | R. J. Maurer, J. C. Womack, J. Dziedzic,        |
 | A. Bartok-Partay, L. LeBlanc, T. K. Stenczel,   |
 | J. Kermode, S. Sturniolo, B. Shi, B. Durham     |
 | M. Evans, M. J. Smith                           |
 |                                                 |
 | Copyright (c) 2000 - 2021                       |
 |                                                 |
 |     Distributed under license from Cambridge    |
 |     Enterprise for academic use only.           |
 |                                                 |
 | Please cite                                     |
 |                                                 |
 |     "First principles methods using CASTEP"     |
 |                                                 |
 |         Zeitschrift fuer Kristallographie       |
 |           220(5-6) pp. 567-570 (2005)           |
 |                                                 |
 | S. J. Clark, M. D. Segall, C. J. Pickard,       |
 | P. J. Hasnip, M. J. Probert, K. Refson,         |
 | M. C. Payne                                     |
 |                                                 |
 |       in all publications arising from          |
 |              your use of CASTEP                 |
 |                                                 |
 +-------------------------------------------------+
 |                                                 |
 |              http://www.castep.org              |
 |                                                 |
 +-------------------------------------------------+



 Compiled for linux_x86_64_gfortran10-XT on Thu, 16 Mar 2023 13:12:36 +0000
 from code version Version unavailable
 Compiler: GNU Fortran 11.2.0; Optimisation: fast
 MATHLIBS: LibSci (LAPACK version 3.10.1)
 FFT Lib : fftw3 version commercial-fftw-3.3.10-sse2-avx-avx2-avx2_128
 Fundamental constants values: CODATA 2014

 Run started: Mon, 17 Jul 2023 00:17:54 +0100

 Atomic calculation performed for P: 1s2 2s2 2p6 3s2 3p3

 Converged in 47 iterations to an ae energy of -9309.074 eV

   ============================================================                
   | Pseudopotential Report - Date of generation 17-07-2023   |                
   ------------------------------------------------------------                
   | Element: P Ionic charge:  5.00 Level of theory: RSCAN    |                
   | Atomic Solver: Koelling-Harmon                           |                
   |                                                          |                
   |               Reference Electronic Structure             |                
   |         Orbital         Occupation         Energy        |                
   |            3s              2.000           -0.535        |                
   |            3p              3.000           -0.209        |                
   |                                                          |                
   |                 Pseudopotential Definition               |                
   |        Beta     l      e      Rc     scheme   norm       |                
   |          1      0   -0.535   1.807     qc      0         |                
   |          2      0    0.250   1.807     qc      0         |                
   |          3      1   -0.209   1.807     qc      0         |                
   |          4      1    0.250   1.807     qc      0         |                
   |          5      2    0.000   1.807     qc      0         |                
   |          6      2    0.250   1.807     qc      0         |                
   |         loc     3    0.000   1.807     pn      0         |                
   |                                                          |                
   | Augmentation charge Rinner = 1.263                       |                
   | Partial core correction Rc = 1.263                       |                
   ------------------------------------------------------------                
   | "3|1.8|4|4|5|30:31:32"                                   |                
   ------------------------------------------------------------                
   |      Author: Chris J. Pickard, Cambridge University      |                
   ============================================================                
 Warning: otfg_output_psp cannot write out meta-GGA pseudopotentials presently.

 Atomic calculation performed for In:
 1s2 2s2 2p6 3s2 3p6 3d10 4s2 4p6 4d10 5s2 5p1

 Converged in 84 iterations to an ae energy of -160093.327 eV

   ============================================================                
   | Pseudopotential Report - Date of generation 17-07-2023   |                
   ------------------------------------------------------------                
   | Element: In Ionic charge: 13.00 Level of theory: RSCAN   |                
   | Atomic Solver: Koelling-Harmon                           |                
   |                                                          |                
   |               Reference Electronic Structure             |                
   |         Orbital         Occupation         Energy        |                
   |            4d             10.000           -0.711        |                
   |            5s              2.000           -0.313        |                
   |            5p              1.000           -0.095        |                
   |                                                          |                
   |                 Pseudopotential Definition               |                
   |        Beta     l      e      Rc     scheme   norm       |                
   |          1      0   -0.313   2.501     qc      0         |                
   |          2      0    0.250   2.501     qc      0         |                
   |          3      1   -0.095   2.501     qc      0         |                
   |          4      1    0.250   2.501     qc      0         |                
   |          5      2   -0.711   2.207     qc      0         |                
   |          6      2    0.250   2.207     qc      0         |                
   |         loc     3    0.000   2.501     pn      0         |                
   |                                                          |                
   | Augmentation charge Rinner = 1.504                       |                
   | Partial core correction Rc = 1.504                       |                
   ------------------------------------------------------------                
   | "3|2.5|2.5|1.5|7|8|9|50:51:42U2.2U2.2"                   |                
   ------------------------------------------------------------                
   |      Author: Chris J. Pickard, Cambridge University      |                
   ============================================================                
 Warning: otfg_output_psp cannot write out meta-GGA pseudopotentials presently.

 Pseudo atomic calculation performed for P 3s2 3p3

 Converged in 23 iterations to a total energy of -208.0300 eV

 Pseudo atomic calculation performed for In 4d10 5s2 5p1

 Converged in 42 iterations to a total energy of -1747.4733 eV
 Calculation parallelised over 1536 processes.
 Data is distributed by G-vector(3-way) and k-point(512-way)

 ************************************ Title ************************************
 

 ***************************** General Parameters ******************************
  
 output verbosity                               : normal  (1)
 write checkpoint data to                       : ZB_Bulk.check
 type of calculation                            : geometry optimization
 stress calculation                             : off
 density difference calculation                 : off
 electron localisation func (ELF) calculation   : off
 Hirshfeld analysis                             : off
 polarisation (Berry phase) analysis            : off
 molecular orbital projected DOS                : off
 deltaSCF calculation                           : off
 unlimited duration calculation
 timing information                             : on
 memory usage estimate                          : on
 write extra output files                       : on
 write final potential to formatted file        : off
 write final density to formatted file          : off
 write BibTeX reference list                    : on
 write OTFG pseudopotential files               : on
 write electrostatic potential file             : on
 write bands file                               : on
 checkpoint writing                             : off
  
 output         length unit                     : A
 output           mass unit                     : amu
 output           time unit                     : ps
 output         charge unit                     : e
 output           spin unit                     : hbar/2
 output         energy unit                     : eV
 output          force unit                     : eV/A
 output       velocity unit                     : A/ps
 output       pressure unit                     : GPa
 output     inv_length unit                     : 1/A
 output      frequency unit                     : cm-1
 output force constant unit                     : eV/A**2
 output         volume unit                     : A**3
 output   IR intensity unit                     : (D/A)**2/amu
 output         dipole unit                     : D
 output         efield unit                     : eV/A/e
 output        entropy unit                     : J/mol/K
 output    efield chi2 unit                     : pm/V
  
 wavefunctions paging                           : none
 random number generator seed                   : randomised (1754598)
 data distribution                              : optimal for this architecture
 optimization strategy                          : balance speed and memory

 *********************** Exchange-Correlation Parameters ***********************
  
 using functional                               : RSCAN
 relativistic treatment                         : Koelling-Harmon
 DFT+D: Semi-empirical dispersion correction    : off

 ************************* Pseudopotential Parameters **************************
  
 pseudopotential representation                 : reciprocal space
 <beta|phi> representation                      : reciprocal space
 spin-orbit coupling                            : off

 **************************** Basis Set Parameters *****************************
  
 plane wave basis set cut-off                   :  1200.0000   eV
 size of standard grid                          :     2.0000
 size of   fine   gmax                          :    35.4943   1/A
 finite basis set correction                    : automatic
 number of sample energies                      :          3
           sample  spacing                      :     5.0000   eV

 **************************** Electronic Parameters ****************************
  
 number of  electrons                           :  72.00    
 net charge of system                           :  0.000    
 treating system as non-spin-polarized
 number of bands                                :         43

 ********************* Electronic Minimization Parameters **********************
  
 Method: Treating system as metallic with density mixing treatment of electrons,
         and number of  SD  steps               :          1
         and number of  CG  steps               :          4
  
 total energy / atom convergence tol.           : 0.1000E-07   eV
 eigen-energy convergence tolerance             : 0.2222E-08   eV
 max force / atom convergence tol.              : ignored
 convergence tolerance window                   :          3   cycles
 max. number of SCF cycles                      :         50
 number of fixed-spin iterations                :         10
 smearing scheme                                : Gaussian
 smearing width                                 : 0.2000       eV
 Fermi energy convergence tolerance             : 0.2721E-13   eV
 periodic dipole correction                     : NONE

 ************************** Density Mixing Parameters **************************
  
 density-mixing scheme                          : Pulay
 max. length of mixing history                  :         15
 charge density mixing amplitude                : 0.5000    
 cut-off energy for mixing                      :  1200.       eV

 *********************** Population Analysis Parameters ************************
  
 Population analysis with cutoff                :  3.000       A
 Population analysis output                     : summary and pdos components

 ********************** Geometry Optimization Parameters ***********************
  
 optimization method                            : LBFGS
 max. no. of LBFGS updates                      : unbounded
 variable cell method                           : fixed basis quality
 max. number of steps                           :         20
 estimated bulk modulus                         :  500.0       GPa
 estimated <frequency>                          :  1668.       cm-1
 geom line minimiser                            : on
 with line minimiser tolerance                  :     0.4000
 total energy convergence tolerance             : 0.2000E-04   eV/atom
        max ionic |force| tolerance             : 0.1000E-02   eV/A
 max ionic |displacement| tolerance             : 0.1000E-02   A
   max |stress component| tolerance             : 0.1000E-03   GPa
 convergence tolerance window                   :          2   steps
 backup results every                           :          5   steps
 write geom trajectory file                     : on

 *******************************************************************************
  

                           -------------------------------
                                      Unit Cell
                           -------------------------------
        Real Lattice(A)                      Reciprocal Lattice(1/A)
     5.9012740     0.0000000     0.0000000        1.064716756   0.000000000   0.000000000
     0.0000000     5.9012740     0.0000000        0.000000000   1.064716756   0.000000000
     0.0000000     0.0000000     5.9012740        0.000000000   0.000000000   1.064716756

                       Lattice parameters(A)       Cell Angles
                    a =      5.901274          alpha =   90.000000
                    b =      5.901274          beta  =   90.000000
                    c =      5.901274          gamma =   90.000000

                       Current cell volume =           205.512073       A**3
                                   density =             2.837629   AMU/A**3
                                           =             4.711994     g/cm^3

                           -------------------------------
                                     Cell Contents
                           -------------------------------
                         Total number of ions in cell =    8
                      Total number of species in cell =    2
                        Max number of any one species =    4

            xxxxxxxxxxxxxxxxxxxxxxxxxxxxxxxxxxxxxxxxxxxxxxxxxxxxxxxxxxxx
            x  Element    Atom        Fractional coordinates of atoms  x
            x            Number           u          v          w      x
            x----------------------------------------------------------x
            x  P            1         0.250000   0.250000   0.750000   x 
            x  P            2         0.750000   0.250000   0.250000   x 
            x  P            3         0.250000   0.750000   0.250000   x 
            x  P            4         0.750000   0.750000   0.750000   x 
            x  In           1         0.000000   0.000000   0.000000   x 
            x  In           2         0.500000   0.000000   0.500000   x 
            x  In           3         0.000000   0.500000   0.500000   x 
            x  In           4         0.500000   0.500000   0.000000   x 
            xxxxxxxxxxxxxxxxxxxxxxxxxxxxxxxxxxxxxxxxxxxxxxxxxxxxxxxxxxxx


                         No user defined ionic velocities

                           -------------------------------
                                   Details of Species
                           -------------------------------

                               Mass of species in AMU
                                    P   30.9737600
                                    In  114.8180000

                          Electric Quadrupole Moment (Barn)
                                    P    1.0000000 No Isotope Defined
                                    In    0.7700000 Isotope115

                          Files used for pseudopotentials:
                                    P 3|1.8|4|4|5|30:31:32
                                    In 3|2.5|2.5|1.5|7|8|9|50:51:42U2.2U2.2

                           -------------------------------
                              k-Points For BZ Sampling
                           -------------------------------
                       MP grid size for SCF calculation is  8  8  8
                            with an offset of   0.083  0.083  0.083
                       Number of kpoints used =           512

                           -------------------------------
                               Symmetry and Constraints
                           -------------------------------

                      Cell is a supercell containing 4 primitive cells
                      Maximum deviation from symmetry =  0.00000         ANG

                      Number of symmetry operations   =           1
                      Number of ionic constraints     =           3
                      Point group of crystal =     1: C1, 1, 1
                      Space group of crystal =   216: F-43m, F -4 2 3

             Set iprint > 1 for details on symmetry rotations/translations

                         Centre of mass is constrained
             Set iprint > 1 for details of linear ionic constraints

                         Number of cell constraints= 0
                         Cell constraints are:  1 2 3 4 5 6

                         External pressure/stress (GPa)
                          0.00000   0.00000   0.00000
                                    0.00000   0.00000
                                              0.00000
 
+---------------- MEMORY AND SCRATCH DISK ESTIMATES PER PROCESS --------------+
|                                                     Memory          Disk    |
| Baseline code, static data and system overhead      898.0 MB         0.0 MB |
| BLAS internal memory storage                          0.0 MB         0.0 MB |
| Model and support data                              876.1 MB         0.0 MB |
| Electronic energy minimisation requirements          49.6 MB         0.0 MB |
| Force calculation requirements                       18.4 MB         0.0 MB |
|                                               ----------------------------- |
| Approx. total storage required per process         1823.7 MB         0.0 MB |
|                                                                             |
| Requirements will fluctuate during execution and may exceed these estimates |
+-----------------------------------------------------------------------------+
Calculating finite basis set correction with  3 cut-off energies.
Calculating total energy with cut-off of 1190.000 eV.
Calculating approximate eigenstates for fixed initial Hamiltonian
Cut-off for approx. calculation is  175.361 eV
Improving approx. states at cut-off of  594.997 eV
Resetting cut-off to 1189.994 eV
------------------------------------------------------------------------ <-- SCF
SCF loop      Energy           Fermi           Energy gain       Timer   <-- SCF
                               energy          per atom          (sec)   <-- SCF
------------------------------------------------------------------------ <-- SCF
Initial  -7.87888000E+003  0.00000000E+000                        48.39  <-- SCF
      1  -7.85064835E+003  2.61980546E+000  -3.52895628E+000      65.44  <-- SCF
      2  -7.85064939E+003  2.61977429E+000   1.29168398E-004      81.50  <-- SCF
      3  -7.85909059E+003  2.92330863E+000   1.05515000E+000     101.97  <-- SCF
      4  -7.86046944E+003  2.99782608E+000   1.72356171E-001     123.61  <-- SCF
      5  -7.85983918E+003  3.34599629E+000  -7.87821896E-002     144.01  <-- SCF
      6  -7.85976750E+003  3.39457008E+000  -8.96016641E-003     164.47  <-- SCF
      7  -7.85972120E+003  3.43815022E+000  -5.78693346E-003     185.65  <-- SCF
      8  -7.85994081E+003  3.49474778E+000   2.74515702E-002     206.10  <-- SCF
      9  -7.85994037E+003  3.44239637E+000  -5.58397772E-005     226.72  <-- SCF
     10  -7.85994044E+003  3.45332436E+000   8.85697350E-006     247.81  <-- SCF
     11  -7.85994036E+003  3.45387335E+000  -9.66919083E-006     268.89  <-- SCF
     12  -7.85994044E+003  3.45147143E+000   9.52622023E-006     290.18  <-- SCF
     13  -7.85994045E+003  3.45141718E+000   1.18493123E-006     308.73  <-- SCF
     14  -7.85994045E+003  3.45131683E+000   1.05119727E-008     325.19  <-- SCF
     15  -7.85994045E+003  3.45137173E+000  -3.66801490E-009     341.22  <-- SCF
     16  -7.85994045E+003  3.45138905E+000   6.97214787E-010     357.00  <-- SCF
------------------------------------------------------------------------ <-- SCF
 
Final energy, E             =  -7859.940446557     eV
Final free energy (E-TS)    =  -7859.940447218     eV
(energies not corrected for finite basis set)
 
NB est. 0K energy (E-0.5TS)      =  -7859.940446887     eV
 
Calculating total energy with cut-off of 1195.000 eV.
------------------------------------------------------------------------ <-- SCF
SCF loop      Energy           Fermi           Energy gain       Timer   <-- SCF
                               energy          per atom          (sec)   <-- SCF
------------------------------------------------------------------------ <-- SCF
Initial  -7.85994045E+003  0.00000000E+000                       369.25  <-- SCF
      1  -7.85994050E+003  3.45142101E+000   7.22555258E-006     385.78  <-- SCF
      2  -7.85994050E+003  3.45142101E+000   3.61561745E-011     401.18  <-- SCF
      3  -7.85994050E+003  3.45141060E+000   1.85943278E-009     416.58  <-- SCF
      4  -7.85994050E+003  3.45140302E+000   7.03595289E-010     431.95  <-- SCF
------------------------------------------------------------------------ <-- SCF
 
Final energy, E             =  -7859.940503726     eV
Final free energy (E-TS)    =  -7859.940504388     eV
(energies not corrected for finite basis set)
 
NB est. 0K energy (E-0.5TS)      =  -7859.940504057     eV
 
Calculating total energy with cut-off of 1200.000 eV.
------------------------------------------------------------------------ <-- SCF
SCF loop      Energy           Fermi           Energy gain       Timer   <-- SCF
                               energy          per atom          (sec)   <-- SCF
------------------------------------------------------------------------ <-- SCF
Initial  -7.85994050E+003  0.00000000E+000                       444.14  <-- SCF
      1  -7.85994056E+003  3.45140333E+000   6.64091284E-006     460.52  <-- SCF
      2  -7.85994056E+003  3.45140333E+000   1.50811851E-011     475.77  <-- SCF
      3  -7.85994056E+003  3.45140347E+000   1.81921629E-009     490.98  <-- SCF
      4  -7.85994056E+003  3.45140358E+000   6.99341621E-010     506.17  <-- SCF
------------------------------------------------------------------------ <-- SCF
 
Final energy, E             =  -7859.940556213     eV
Final free energy (E-TS)    =  -7859.940556874     eV
(energies not corrected for finite basis set)
 
NB est. 0K energy (E-0.5TS)      =  -7859.940556543     eV
 
 For future reference: finite basis dEtot/dlog(Ecut) =      -0.013083eV
 Total energy corrected for finite basis set =   -7859.940557 eV
 
+---------------- MEMORY AND SCRATCH DISK ESTIMATES PER PROCESS --------------+
|                                                     Memory          Disk    |
| Model and support data                              553.7 MB         0.0 MB |
| Electronic energy minimisation requirements          49.6 MB         0.0 MB |
| Geometry minimisation requirements                   56.3 MB         0.0 MB |
|                                               ----------------------------- |
| Approx. total storage required per process          659.5 MB         0.0 MB |
|                                                                             |
| Requirements will fluctuate during execution and may exceed these estimates |
+-----------------------------------------------------------------------------+
 

 ************************************** Forces **************************************
 *                                                                                  *
 *                           Cartesian components (eV/A)                            *
 * -------------------------------------------------------------------------------- *
 *                         x                    y                    z              *
 *                                                                                  *
 * P               1     -0.00001             -0.00001             -0.00001         *
 * P               2     -0.00001             -0.00001             -0.00001         *
 * P               3     -0.00001             -0.00001             -0.00001         *
 * P               4     -0.00001             -0.00001             -0.00001         *
 * In              1      0.00001              0.00001              0.00001         *
 * In              2      0.00001              0.00001              0.00001         *
 * In              3      0.00001              0.00001              0.00001         *
 * In              4      0.00001              0.00001              0.00001         *
 *                                                                                  *
 ************************************************************************************

 ***************** Stress Tensor *****************
 *                                               *
 *          Cartesian components (GPa)           *
 * --------------------------------------------- *
 *             x             y             z     *
 *                                               *
 *  x      0.016690      0.000022      0.000022  *
 *  y      0.000022      0.016690      0.000022  *
 *  z      0.000022      0.000022      0.016690  *
 *                                               *
 *  Pressure:   -0.0167                          *
 *                                               *
 *************************************************
 LBFGS: finished iteration     0 with enthalpy= -7.85994056E+003 eV
  
 +-----------+-----------------+-----------------+------------+-----+ <-- LBFGS
 | Parameter |      value      |    tolerance    |    units   | OK? | <-- LBFGS
 +-----------+-----------------+-----------------+------------+-----+ <-- LBFGS
 |  dE/ion   |   0.000000E+000 |   2.000000E-005 |         eV | No  | <-- LBFGS
 |  |F|max   |   1.731577E-005 |   1.000000E-003 |       eV/A | Yes | <-- LBFGS
 |  |dR|max  |   0.000000E+000 |   1.000000E-003 |          A | No  | <-- LBFGS
 |   Smax    |   1.668995E-002 |   1.000000E-004 |        GPa | No  | <-- LBFGS
 +-----------+-----------------+-----------------+------------+-----+ <-- LBFGS
  

================================================================================
 Starting LBFGS iteration          1 ...
================================================================================
  
 +------------+-------------+-------------+-----------------+ <-- min LBFGS
 |    Step    |   lambda    |   F.delta'  |    enthalpy     | <-- min LBFGS
 +------------+-------------+-------------+-----------------+ <-- min LBFGS
 |  previous  |    0.000000 |    0.001363 |    -7859.940557 | <-- min LBFGS
 +------------+-------------+-------------+-----------------+ <-- min LBFGS
  

--------------------------------------------------------------------------------
 LBFGS: starting iteration         1 with trial guess (lambda=  1.000000)
--------------------------------------------------------------------------------

                           -------------------------------
                                      Unit Cell
                           -------------------------------
        Real Lattice(A)              Reciprocal Lattice(1/A)
     5.9012083    -0.0000001    -0.0000001        1.064728602   0.000000015   0.000000015
    -0.0000001     5.9012083    -0.0000001        0.000000015   1.064728602   0.000000015
    -0.0000001    -0.0000001     5.9012083        0.000000015   0.000000015   1.064728602

                       Lattice parameters(A)       Cell Angles
                    a =      5.901208          alpha =   90.000002
                    b =      5.901208          beta  =   90.000002
                    c =      5.901208          gamma =   90.000002

                Current cell volume =           205.505213 A**3
                            density =             2.837724 amu/A**3
                                    =             4.712151 g/cm^3

                           -------------------------------
                                     Cell Contents
                           -------------------------------

            xxxxxxxxxxxxxxxxxxxxxxxxxxxxxxxxxxxxxxxxxxxxxxxxxxxxxxxxxxxxxxxxx
            x  Element         Atom        Fractional coordinates of atoms  x
            x                 Number           u          v          w      x
            x---------------------------------------------------------------x
            x  P                 1         0.250000   0.250000   0.750000   x
            x  P                 2         0.750000   0.250000   0.250000   x
            x  P                 3         0.250000   0.750000   0.250000   x
            x  P                 4         0.750000   0.750000   0.750000   x
            x  In                1         0.000000   0.000000   0.000000   x
            x  In                2         0.500000   0.000000   0.500000   x
            x  In                3         0.000000   0.500000   0.500000   x
            x  In                4         0.500000   0.500000   0.000000   x
            xxxxxxxxxxxxxxxxxxxxxxxxxxxxxxxxxxxxxxxxxxxxxxxxxxxxxxxxxxxxxxxxx


------------------------------------------------------------------------ <-- SCF
SCF loop      Energy           Fermi           Energy gain       Timer   <-- SCF
                               energy          per atom          (sec)   <-- SCF
------------------------------------------------------------------------ <-- SCF
Initial  -7.85994056E+003  0.00000000E+000                       635.97  <-- SCF
      1  -7.85994056E+003  3.45196666E+000   3.17973253E-007     652.54  <-- SCF
      2  -7.85994056E+003  3.45196666E+000   9.09318121E-010     667.69  <-- SCF
      3  -7.85994056E+003  3.45187188E+000  -1.01158982E-007     685.78  <-- SCF
      4  -7.85994056E+003  3.45182145E+000  -6.49651050E-009     700.95  <-- SCF
      5  -7.85994056E+003  3.45178660E+000  -2.67594361E-010     716.17  <-- SCF
------------------------------------------------------------------------ <-- SCF
 
Final energy, E             =  -7859.940556764     eV
Final free energy (E-TS)    =  -7859.940557424     eV
(energies not corrected for finite basis set)
 
NB est. 0K energy (E-0.5TS)      =  -7859.940557094     eV
 

 ************************************** Forces **************************************
 *                                                                                  *
 *                           Cartesian components (eV/A)                            *
 * -------------------------------------------------------------------------------- *
 *                         x                    y                    z              *
 *                                                                                  *
 * P               1     -0.00001             -0.00001             -0.00001         *
 * P               2     -0.00001             -0.00001             -0.00001         *
 * P               3     -0.00001             -0.00001             -0.00001         *
 * P               4     -0.00001             -0.00001             -0.00001         *
 * In              1      0.00001              0.00001              0.00001         *
 * In              2      0.00001              0.00001              0.00001         *
 * In              3      0.00001              0.00001              0.00001         *
 * In              4      0.00001              0.00001              0.00001         *
 *                                                                                  *
 ************************************************************************************

 ***************** Stress Tensor *****************
 *                                               *
 *          Cartesian components (GPa)           *
 * --------------------------------------------- *
 *             x             y             z     *
 *                                               *
 *  x      0.014876      0.000020      0.000020  *
 *  y      0.000020      0.014876      0.000019  *
 *  z      0.000020      0.000019      0.014876  *
 *                                               *
 *  Pressure:   -0.0149                          *
 *                                               *
 *************************************************
  
 +------------+-------------+-------------+-----------------+ <-- min LBFGS
 |    Step    |   lambda    |   F.delta'  |    enthalpy     | <-- min LBFGS
 +------------+-------------+-------------+-----------------+ <-- min LBFGS
 |  previous  |    0.000000 |    0.001363 |    -7859.940557 | <-- min LBFGS
 | trial step |    1.000000 |    0.001215 |    -7859.940558 | <-- min LBFGS
 +------------+-------------+-------------+-----------------+ <-- min LBFGS
  

--------------------------------------------------------------------------------
 LBFGS: improving iteration         1 with line minimization (lambda=  9.198500)
--------------------------------------------------------------------------------

                           -------------------------------
                                      Unit Cell
                           -------------------------------
        Real Lattice(A)              Reciprocal Lattice(1/A)
     5.9006700    -0.0000008    -0.0000008        1.064825739   0.000000141   0.000000141
    -0.0000008     5.9006700    -0.0000008        0.000000141   1.064825739   0.000000141
    -0.0000008    -0.0000008     5.9006700        0.000000141   0.000000141   1.064825739

                       Lattice parameters(A)       Cell Angles
                    a =      5.900670          alpha =   90.000015
                    b =      5.900670          beta  =   90.000015
                    c =      5.900670          gamma =   90.000015

                Current cell volume =           205.448978 A**3
                            density =             2.838501 amu/A**3
                                    =             4.713441 g/cm^3

                           -------------------------------
                                     Cell Contents
                           -------------------------------

            xxxxxxxxxxxxxxxxxxxxxxxxxxxxxxxxxxxxxxxxxxxxxxxxxxxxxxxxxxxxxxxxx
            x  Element         Atom        Fractional coordinates of atoms  x
            x                 Number           u          v          w      x
            x---------------------------------------------------------------x
            x  P                 1         0.250000   0.250000   0.750000   x
            x  P                 2         0.750000   0.250000   0.250000   x
            x  P                 3         0.250000   0.750000   0.250000   x
            x  P                 4         0.750000   0.750000   0.750000   x
            x  In                1         0.000000   0.000000   0.000000   x
            x  In                2         0.500000   0.000000   0.500000   x
            x  In                3         0.000000   0.500000   0.500000   x
            x  In                4         0.500000   0.500000   0.000000   x
            xxxxxxxxxxxxxxxxxxxxxxxxxxxxxxxxxxxxxxxxxxxxxxxxxxxxxxxxxxxxxxxxx


------------------------------------------------------------------------ <-- SCF
SCF loop      Energy           Fermi           Energy gain       Timer   <-- SCF
                               energy          per atom          (sec)   <-- SCF
------------------------------------------------------------------------ <-- SCF
Initial  -7.85994049E+003  0.00000000E+000                       845.95  <-- SCF
      1  -7.85994062E+003  3.45640551E+000   1.58947843E-005     862.43  <-- SCF
      2  -7.85994062E+003  3.45640551E+000   7.27746453E-008     883.18  <-- SCF
      3  -7.85994056E+003  3.45562630E+000  -6.79516359E-006     903.61  <-- SCF
      4  -7.85994056E+003  3.45518306E+000  -4.42151151E-007     925.41  <-- SCF
      5  -7.85994056E+003  3.45498199E+000  -2.35950941E-008     940.68  <-- SCF
      6  -7.85994056E+003  3.45490892E+000  -1.81206239E-009     955.79  <-- SCF
      7  -7.85994056E+003  3.45491292E+000   1.32443741E-010     970.96  <-- SCF
------------------------------------------------------------------------ <-- SCF
 
Final energy, E             =  -7859.940559918     eV
Final free energy (E-TS)    =  -7859.940560564     eV
(energies not corrected for finite basis set)
 
NB est. 0K energy (E-0.5TS)      =  -7859.940560241     eV
 

 ************************************** Forces **************************************
 *                                                                                  *
 *                           Cartesian components (eV/A)                            *
 * -------------------------------------------------------------------------------- *
 *                         x                    y                    z              *
 *                                                                                  *
 * P               1     -0.00001             -0.00001             -0.00001         *
 * P               2     -0.00001             -0.00001             -0.00001         *
 * P               3     -0.00001             -0.00001             -0.00001         *
 * P               4     -0.00001             -0.00001             -0.00001         *
 * In              1      0.00001              0.00001              0.00001         *
 * In              2      0.00001              0.00001              0.00001         *
 * In              3      0.00001              0.00001              0.00001         *
 * In              4      0.00001              0.00001              0.00001         *
 *                                                                                  *
 ************************************************************************************

 ***************** Stress Tensor *****************
 *                                               *
 *          Cartesian components (GPa)           *
 * --------------------------------------------- *
 *             x             y             z     *
 *                                               *
 *  x     -0.002969      0.000009      0.000009  *
 *  y      0.000009     -0.002969      0.000009  *
 *  z      0.000009      0.000009     -0.002969  *
 *                                               *
 *  Pressure:    0.0030                          *
 *                                               *
 *************************************************
  
 +------------+-------------+-------------+-----------------+ <-- min LBFGS
 |    Step    |   lambda    |   F.delta'  |    enthalpy     | <-- min LBFGS
 +------------+-------------+-------------+-----------------+ <-- min LBFGS
 |  previous  |    0.000000 |    0.001363 |    -7859.940557 | <-- min LBFGS
 | trial step |    1.000000 |    0.001215 |    -7859.940558 | <-- min LBFGS
 |  line step |    9.198500 |   -0.000242 |    -7859.940561 | <-- min LBFGS
 +------------+-------------+-------------+-----------------+ <-- min LBFGS
  
 LBFGS: finished iteration     1 with enthalpy= -7.85994056E+003 eV
  
 +-----------+-----------------+-----------------+------------+-----+ <-- LBFGS
 | Parameter |      value      |    tolerance    |    units   | OK? | <-- LBFGS
 +-----------+-----------------+-----------------+------------+-----+ <-- LBFGS
 |  dE/ion   |   4.742930E-007 |   2.000000E-005 |         eV | Yes | <-- LBFGS
 |  |F|max   |   1.688891E-005 |   1.000000E-003 |       eV/A | Yes | <-- LBFGS
 |  |dR|max  |   2.135860E-007 |   1.000000E-003 |          A | Yes | <-- LBFGS
 |   Smax    |   2.969045E-003 |   1.000000E-004 |        GPa | No  | <-- LBFGS
 +-----------+-----------------+-----------------+------------+-----+ <-- LBFGS
  

================================================================================
 Starting LBFGS iteration          2 ...
================================================================================
  
 +------------+-------------+-------------+-----------------+ <-- min LBFGS
 |    Step    |   lambda    |   F.delta'  |    enthalpy     | <-- min LBFGS
 +------------+-------------+-------------+-----------------+ <-- min LBFGS
 |  previous  |    0.000000 |    0.000242 |    -7859.940561 | <-- min LBFGS
 +------------+-------------+-------------+-----------------+ <-- min LBFGS
  

--------------------------------------------------------------------------------
 LBFGS: starting iteration         2 with trial guess (lambda=  1.000000)
--------------------------------------------------------------------------------

                           -------------------------------
                                      Unit Cell
                           -------------------------------
        Real Lattice(A)              Reciprocal Lattice(1/A)
     5.9007612    -0.0000007    -0.0000007        1.064809281   0.000000127   0.000000127
    -0.0000007     5.9007612    -0.0000007        0.000000127   1.064809281   0.000000127
    -0.0000007    -0.0000007     5.9007612        0.000000127   0.000000127   1.064809281

                       Lattice parameters(A)       Cell Angles
                    a =      5.900761          alpha =   90.000014
                    b =      5.900761          beta  =   90.000014
                    c =      5.900761          gamma =   90.000014

                Current cell volume =           205.458504 A**3
                            density =             2.838369 amu/A**3
                                    =             4.713222 g/cm^3

                           -------------------------------
                                     Cell Contents
                           -------------------------------

            xxxxxxxxxxxxxxxxxxxxxxxxxxxxxxxxxxxxxxxxxxxxxxxxxxxxxxxxxxxxxxxxx
            x  Element         Atom        Fractional coordinates of atoms  x
            x                 Number           u          v          w      x
            x---------------------------------------------------------------x
            x  P                 1         0.250000   0.250000   0.750000   x
            x  P                 2         0.750000   0.250000   0.250000   x
            x  P                 3         0.250000   0.750000   0.250000   x
            x  P                 4         0.750000   0.750000   0.750000   x
            x  In                1         0.000000   0.000000   0.000000   x
            x  In                2         0.500000   0.000000   0.500000   x
            x  In                3         0.000000   0.500000   0.500000   x
            x  In                4         0.500000   0.500000   0.000000   x
            xxxxxxxxxxxxxxxxxxxxxxxxxxxxxxxxxxxxxxxxxxxxxxxxxxxxxxxxxxxxxxxxx


------------------------------------------------------------------------ <-- SCF
SCF loop      Energy           Fermi           Energy gain       Timer   <-- SCF
                               energy          per atom          (sec)   <-- SCF
------------------------------------------------------------------------ <-- SCF
Initial  -7.85994056E+003  0.00000000E+000                      1100.41  <-- SCF
      1  -7.85994056E+003  3.45412431E+000   5.87646691E-007    1116.90  <-- SCF
      2  -7.85994056E+003  3.45412431E+000   2.03924691E-009    1132.03  <-- SCF
      3  -7.85994056E+003  3.45425712E+000  -1.99643375E-007    1151.03  <-- SCF
      4  -7.85994056E+003  3.45432935E+000  -1.29323096E-008    1166.18  <-- SCF
      5  -7.85994056E+003  3.45437531E+000  -5.38475647E-010    1181.30  <-- SCF
      6  -7.85994056E+003  3.45437140E+000   5.39442389E-011    1196.45  <-- SCF
------------------------------------------------------------------------ <-- SCF
 
Final energy, E             =  -7859.940559853     eV
Final free energy (E-TS)    =  -7859.940560501     eV
(energies not corrected for finite basis set)
 
NB est. 0K energy (E-0.5TS)      =  -7859.940560177     eV
 

 ************************************** Forces **************************************
 *                                                                                  *
 *                           Cartesian components (eV/A)                            *
 * -------------------------------------------------------------------------------- *
 *                         x                    y                    z              *
 *                                                                                  *
 * P               1     -0.00001             -0.00001             -0.00001         *
 * P               2     -0.00001             -0.00001             -0.00001         *
 * P               3     -0.00001             -0.00001             -0.00001         *
 * P               4     -0.00001             -0.00001             -0.00001         *
 * In              1      0.00001              0.00001              0.00001         *
 * In              2      0.00001              0.00001              0.00001         *
 * In              3      0.00001              0.00001              0.00001         *
 * In              4      0.00001              0.00001              0.00001         *
 *                                                                                  *
 ************************************************************************************

 ***************** Stress Tensor *****************
 *                                               *
 *          Cartesian components (GPa)           *
 * --------------------------------------------- *
 *             x             y             z     *
 *                                               *
 *  x     -0.001886      0.000010      0.000010  *
 *  y      0.000010     -0.001886      0.000010  *
 *  z      0.000010      0.000010     -0.001886  *
 *                                               *
 *  Pressure:    0.0019                          *
 *                                               *
 *************************************************
  
 +------------+-------------+-------------+-----------------+ <-- min LBFGS
 |    Step    |   lambda    |   F.delta'  |    enthalpy     | <-- min LBFGS
 +------------+-------------+-------------+-----------------+ <-- min LBFGS
 |  previous  |    0.000000 |    0.000242 |    -7859.940561 | <-- min LBFGS
 | trial step |    1.000000 |    0.000154 |    -7859.940561 | <-- min LBFGS
 +------------+-------------+-------------+-----------------+ <-- min LBFGS
  

--------------------------------------------------------------------------------
 LBFGS: improving iteration         2 with line minimization (lambda=  2.741936)
--------------------------------------------------------------------------------

                           -------------------------------
                                      Unit Cell
                           -------------------------------
        Real Lattice(A)              Reciprocal Lattice(1/A)
     5.9009201    -0.0000006    -0.0000006        1.064780615   0.000000103   0.000000103
    -0.0000006     5.9009201    -0.0000006        0.000000103   1.064780615   0.000000103
    -0.0000006    -0.0000006     5.9009201        0.000000103   0.000000103   1.064780615

                       Lattice parameters(A)       Cell Angles
                    a =      5.900920          alpha =   90.000011
                    b =      5.900920          beta  =   90.000011
                    c =      5.900920          gamma =   90.000011

                Current cell volume =           205.475098 A**3
                            density =             2.838140 amu/A**3
                                    =             4.712842 g/cm^3

                           -------------------------------
                                     Cell Contents
                           -------------------------------

            xxxxxxxxxxxxxxxxxxxxxxxxxxxxxxxxxxxxxxxxxxxxxxxxxxxxxxxxxxxxxxxxx
            x  Element         Atom        Fractional coordinates of atoms  x
            x                 Number           u          v          w      x
            x---------------------------------------------------------------x
            x  P                 1         0.250000   0.250000   0.750000   x
            x  P                 2         0.750000   0.250000   0.250000   x
            x  P                 3         0.250000   0.750000   0.250000   x
            x  P                 4         0.750000   0.750000   0.750000   x
            x  In                1         0.000000   0.000000   0.000000   x
            x  In                2         0.500000   0.000000   0.500000   x
            x  In                3         0.000000   0.500000   0.500000   x
            x  In                4         0.500000   0.500000   0.000000   x
            xxxxxxxxxxxxxxxxxxxxxxxxxxxxxxxxxxxxxxxxxxxxxxxxxxxxxxxxxxxxxxxxx


------------------------------------------------------------------------ <-- SCF
SCF loop      Energy           Fermi           Energy gain       Timer   <-- SCF
                               energy          per atom          (sec)   <-- SCF
------------------------------------------------------------------------ <-- SCF
Initial  -7.85994055E+003  0.00000000E+000                      1326.19  <-- SCF
      1  -7.85994057E+003  3.45302187E+000   1.57804088E-006    1342.62  <-- SCF
      2  -7.85994057E+003  3.45302187E+000   6.29658812E-009    1358.51  <-- SCF
      3  -7.85994056E+003  3.45324858E+000  -5.89279712E-007    1378.87  <-- SCF
      4  -7.85994056E+003  3.45337706E+000  -3.87333170E-008    1394.01  <-- SCF
      5  -7.85994056E+003  3.45344592E+000  -1.33990529E-009    1409.08  <-- SCF
      6  -7.85994056E+003  3.45344213E+000   1.97602194E-010    1424.18  <-- SCF
------------------------------------------------------------------------ <-- SCF
 
Final energy, E             =  -7859.940559687     eV
Final free energy (E-TS)    =  -7859.940560340     eV
(energies not corrected for finite basis set)
 
NB est. 0K energy (E-0.5TS)      =  -7859.940560013     eV
 

 ************************************** Forces **************************************
 *                                                                                  *
 *                           Cartesian components (eV/A)                            *
 * -------------------------------------------------------------------------------- *
 *                         x                    y                    z              *
 *                                                                                  *
 * P               1     -0.00001             -0.00001             -0.00001         *
 * P               2     -0.00001             -0.00001             -0.00001         *
 * P               3     -0.00001             -0.00001             -0.00001         *
 * P               4     -0.00001             -0.00001             -0.00001         *
 * In              1      0.00001              0.00001              0.00001         *
 * In              2      0.00001              0.00001              0.00001         *
 * In              3      0.00001              0.00001              0.00001         *
 * In              4      0.00001              0.00001              0.00001         *
 *                                                                                  *
 ************************************************************************************

 ***************** Stress Tensor *****************
 *                                               *
 *          Cartesian components (GPa)           *
 * --------------------------------------------- *
 *             x             y             z     *
 *                                               *
 *  x      0.002258      0.000013      0.000013  *
 *  y      0.000013      0.002258      0.000013  *
 *  z      0.000013      0.000013      0.002258  *
 *                                               *
 *  Pressure:   -0.0023                          *
 *                                               *
 *************************************************
  
 +------------+-------------+-------------+-----------------+ <-- min LBFGS
 |    Step    |   lambda    |   F.delta'  |    enthalpy     | <-- min LBFGS
 +------------+-------------+-------------+-----------------+ <-- min LBFGS
 |  previous  |    0.000000 |    0.000242 |    -7859.940561 | <-- min LBFGS
 | trial step |    1.000000 |    0.000154 |    -7859.940561 | <-- min LBFGS
 |  line step |    2.741936 |   -0.000184 |    -7859.940560 | <-- min LBFGS
 +------------+-------------+-------------+-----------------+ <-- min LBFGS
  
 LBFGS: reverting to earlier configuration

                           -------------------------------
                                      Unit Cell
                           -------------------------------
        Real Lattice(A)              Reciprocal Lattice(1/A)
     5.9007612    -0.0000007    -0.0000007        1.064809281   0.000000127   0.000000127
    -0.0000007     5.9007612    -0.0000007        0.000000127   1.064809281   0.000000127
    -0.0000007    -0.0000007     5.9007612        0.000000127   0.000000127   1.064809281

                       Lattice parameters(A)       Cell Angles
                    a =      5.900761          alpha =   90.000014
                    b =      5.900761          beta  =   90.000014
                    c =      5.900761          gamma =   90.000014

                Current cell volume =           205.458504 A**3
                            density =             2.838369 amu/A**3
                                    =             4.713222 g/cm^3

                           -------------------------------
                                     Cell Contents
                           -------------------------------

            xxxxxxxxxxxxxxxxxxxxxxxxxxxxxxxxxxxxxxxxxxxxxxxxxxxxxxxxxxxxxxxxx
            x  Element         Atom        Fractional coordinates of atoms  x
            x                 Number           u          v          w      x
            x---------------------------------------------------------------x
            x  P                 1         0.250000   0.250000   0.750000   x
            x  P                 2         0.750000   0.250000   0.250000   x
            x  P                 3         0.250000   0.750000   0.250000   x
            x  P                 4         0.750000   0.750000   0.750000   x
            x  In                1         0.000000   0.000000   0.000000   x
            x  In                2         0.500000   0.000000   0.500000   x
            x  In                3         0.000000   0.500000   0.500000   x
            x  In                4         0.500000   0.500000   0.000000   x
            xxxxxxxxxxxxxxxxxxxxxxxxxxxxxxxxxxxxxxxxxxxxxxxxxxxxxxxxxxxxxxxxx


 LBFGS: finished iteration     2 with enthalpy= -7.85994056E+003 eV
  
 +-----------+-----------------+-----------------+------------+-----+ <-- LBFGS
 | Parameter |      value      |    tolerance    |    units   | OK? | <-- LBFGS
 +-----------+-----------------+-----------------+------------+-----+ <-- LBFGS
 |  dE/ion   |   4.774549E-009 |   2.000000E-005 |         eV | Yes | <-- LBFGS
 |  |F|max   |   1.726464E-005 |   1.000000E-003 |       eV/A | Yes | <-- LBFGS
 |  |dR|max  |   9.704828E-009 |   1.000000E-003 |          A | Yes | <-- LBFGS
 |   Smax    |   1.886171E-003 |   1.000000E-004 |        GPa | No  | <-- LBFGS
 +-----------+-----------------+-----------------+------------+-----+ <-- LBFGS
  

================================================================================
 Starting LBFGS iteration          3 ...
================================================================================
  
 +------------+-------------+-------------+-----------------+ <-- min LBFGS
 |    Step    |   lambda    |   F.delta'  |    enthalpy     | <-- min LBFGS
 +------------+-------------+-------------+-----------------+ <-- min LBFGS
 |  previous  |    0.000000 |    0.000154 |    -7859.940561 | <-- min LBFGS
 +------------+-------------+-------------+-----------------+ <-- min LBFGS
  

--------------------------------------------------------------------------------
 LBFGS: starting iteration         3 with trial guess (lambda=  1.000000)
--------------------------------------------------------------------------------

                           -------------------------------
                                      Unit Cell
                           -------------------------------
        Real Lattice(A)              Reciprocal Lattice(1/A)
     5.9009201    -0.0000006    -0.0000006        1.064780615   0.000000111   0.000000111
    -0.0000006     5.9009201    -0.0000006        0.000000111   1.064780615   0.000000111
    -0.0000006    -0.0000006     5.9009201        0.000000111   0.000000111   1.064780615

                       Lattice parameters(A)       Cell Angles
                    a =      5.900920          alpha =   90.000012
                    b =      5.900920          beta  =   90.000012
                    c =      5.900920          gamma =   90.000012

                Current cell volume =           205.475098 A**3
                            density =             2.838140 amu/A**3
                                    =             4.712842 g/cm^3

                           -------------------------------
                                     Cell Contents
                           -------------------------------

            xxxxxxxxxxxxxxxxxxxxxxxxxxxxxxxxxxxxxxxxxxxxxxxxxxxxxxxxxxxxxxxxx
            x  Element         Atom        Fractional coordinates of atoms  x
            x                 Number           u          v          w      x
            x---------------------------------------------------------------x
            x  P                 1         0.250000   0.250000   0.750000   x
            x  P                 2         0.750000   0.250000   0.250000   x
            x  P                 3         0.250000   0.750000   0.250000   x
            x  P                 4         0.750000   0.750000   0.750000   x
            x  In                1         0.000000   0.000000   0.000000   x
            x  In                2         0.500000   0.000000   0.500000   x
            x  In                3         0.000000   0.500000   0.500000   x
            x  In                4         0.500000   0.500000   0.000000   x
            xxxxxxxxxxxxxxxxxxxxxxxxxxxxxxxxxxxxxxxxxxxxxxxxxxxxxxxxxxxxxxxxx


------------------------------------------------------------------------ <-- SCF
SCF loop      Energy           Fermi           Energy gain       Timer   <-- SCF
                               energy          per atom          (sec)   <-- SCF
------------------------------------------------------------------------ <-- SCF
Initial  -7.85994055E+003  0.00000000E+000                      1560.45  <-- SCF
      1  -7.85994057E+003  3.45302183E+000   1.57804320E-006    1576.94  <-- SCF
      2  -7.85994057E+003  3.45302183E+000   6.29678147E-009    1592.84  <-- SCF
      3  -7.85994056E+003  3.45324856E+000  -5.89281453E-007    1613.26  <-- SCF
      4  -7.85994056E+003  3.45337704E+000  -3.87317702E-008    1628.42  <-- SCF
      5  -7.85994056E+003  3.45344590E+000  -1.33545827E-009    1643.54  <-- SCF
      6  -7.85994056E+003  3.45344210E+000   1.93348527E-010    1658.65  <-- SCF
------------------------------------------------------------------------ <-- SCF
 
Final energy, E             =  -7859.940559687     eV
Final free energy (E-TS)    =  -7859.940560340     eV
(energies not corrected for finite basis set)
 
NB est. 0K energy (E-0.5TS)      =  -7859.940560013     eV
 

 ************************************** Forces **************************************
 *                                                                                  *
 *                           Cartesian components (eV/A)                            *
 * -------------------------------------------------------------------------------- *
 *                         x                    y                    z              *
 *                                                                                  *
 * P               1     -0.00001             -0.00001             -0.00001         *
 * P               2     -0.00001             -0.00001             -0.00001         *
 * P               3     -0.00001             -0.00001             -0.00001         *
 * P               4     -0.00001             -0.00001             -0.00001         *
 * In              1      0.00001              0.00001              0.00001         *
 * In              2      0.00001              0.00001              0.00001         *
 * In              3      0.00001              0.00001              0.00001         *
 * In              4      0.00001              0.00001              0.00001         *
 *                                                                                  *
 ************************************************************************************

 ***************** Stress Tensor *****************
 *                                               *
 *          Cartesian components (GPa)           *
 * --------------------------------------------- *
 *             x             y             z     *
 *                                               *
 *  x      0.002258      0.000012      0.000012  *
 *  y      0.000012      0.002258      0.000012  *
 *  z      0.000012      0.000012      0.002258  *
 *                                               *
 *  Pressure:   -0.0023                          *
 *                                               *
 *************************************************
  
 +------------+-------------+-------------+-----------------+ <-- min LBFGS
 |    Step    |   lambda    |   F.delta'  |    enthalpy     | <-- min LBFGS
 +------------+-------------+-------------+-----------------+ <-- min LBFGS
 |  previous  |    0.000000 |    0.000154 |    -7859.940561 | <-- min LBFGS
 | trial step |    1.000000 |   -0.000184 |    -7859.940560 | <-- min LBFGS
 +------------+-------------+-------------+-----------------+ <-- min LBFGS
  

--------------------------------------------------------------------------------
 LBFGS: improving iteration         3 with line minimization (lambda=  0.455110)
--------------------------------------------------------------------------------

                           -------------------------------
                                      Unit Cell
                           -------------------------------
        Real Lattice(A)              Reciprocal Lattice(1/A)
     5.9008335    -0.0000007    -0.0000007        1.064796235   0.000000120   0.000000120
    -0.0000007     5.9008335    -0.0000007        0.000000120   1.064796235   0.000000120
    -0.0000007    -0.0000007     5.9008335        0.000000120   0.000000120   1.064796235

                       Lattice parameters(A)       Cell Angles
                    a =      5.900834          alpha =   90.000013
                    b =      5.900834          beta  =   90.000013
                    c =      5.900834          gamma =   90.000013

                Current cell volume =           205.466056 A**3
                            density =             2.838265 amu/A**3
                                    =             4.713049 g/cm^3

                           -------------------------------
                                     Cell Contents
                           -------------------------------

            xxxxxxxxxxxxxxxxxxxxxxxxxxxxxxxxxxxxxxxxxxxxxxxxxxxxxxxxxxxxxxxxx
            x  Element         Atom        Fractional coordinates of atoms  x
            x                 Number           u          v          w      x
            x---------------------------------------------------------------x
            x  P                 1         0.250000   0.250000   0.750000   x
            x  P                 2         0.750000   0.250000   0.250000   x
            x  P                 3         0.250000   0.750000   0.250000   x
            x  P                 4         0.750000   0.750000   0.750000   x
            x  In                1         0.000000   0.000000   0.000000   x
            x  In                2         0.500000   0.000000   0.500000   x
            x  In                3         0.000000   0.500000   0.500000   x
            x  In                4         0.500000   0.500000   0.000000   x
            xxxxxxxxxxxxxxxxxxxxxxxxxxxxxxxxxxxxxxxxxxxxxxxxxxxxxxxxxxxxxxxxx


------------------------------------------------------------------------ <-- SCF
SCF loop      Energy           Fermi           Energy gain       Timer   <-- SCF
                               energy          per atom          (sec)   <-- SCF
------------------------------------------------------------------------ <-- SCF
Initial  -7.85994056E+003  0.00000000E+000                      1788.39  <-- SCF
      1  -7.85994056E+003  3.45421202E+000   5.05919815E-007    1804.91  <-- SCF
      2  -7.85994056E+003  3.45421202E+000   1.72621565E-009    1819.99  <-- SCF
      3  -7.85994056E+003  3.45408069E+000  -1.82234467E-007    1838.97  <-- SCF
      4  -7.85994056E+003  3.45400927E+000  -1.20896967E-008    1853.99  <-- SCF
      5  -7.85994056E+003  3.45396523E+000  -5.18174052E-010    1869.08  <-- SCF
      6  -7.85994056E+003  3.45396902E+000   4.64036464E-011    1884.15  <-- SCF
------------------------------------------------------------------------ <-- SCF
 
Final energy, E             =  -7859.940559742     eV
Final free energy (E-TS)    =  -7859.940560392     eV
(energies not corrected for finite basis set)
 
NB est. 0K energy (E-0.5TS)      =  -7859.940560067     eV
 

 ************************************** Forces **************************************
 *                                                                                  *
 *                           Cartesian components (eV/A)                            *
 * -------------------------------------------------------------------------------- *
 *                         x                    y                    z              *
 *                                                                                  *
 * P               1     -0.00001             -0.00001             -0.00001         *
 * P               2     -0.00001             -0.00001             -0.00001         *
 * P               3     -0.00001             -0.00001             -0.00001         *
 * P               4     -0.00001             -0.00001             -0.00001         *
 * In              1      0.00001              0.00001              0.00001         *
 * In              2      0.00001              0.00001              0.00001         *
 * In              3      0.00001              0.00001              0.00001         *
 * In              4      0.00001              0.00001              0.00001         *
 *                                                                                  *
 ************************************************************************************

 ***************** Stress Tensor *****************
 *                                               *
 *          Cartesian components (GPa)           *
 * --------------------------------------------- *
 *             x             y             z     *
 *                                               *
 *  x      0.002024      0.000011      0.000011  *
 *  y      0.000011      0.002024      0.000011  *
 *  z      0.000011      0.000011      0.002024  *
 *                                               *
 *  Pressure:   -0.0020                          *
 *                                               *
 *************************************************
  
 +------------+-------------+-------------+-----------------+ <-- min LBFGS
 |    Step    |   lambda    |   F.delta'  |    enthalpy     | <-- min LBFGS
 +------------+-------------+-------------+-----------------+ <-- min LBFGS
 |  previous  |    0.000000 |    0.000154 |    -7859.940561 | <-- min LBFGS
 | trial step |    1.000000 |   -0.000184 |    -7859.940560 | <-- min LBFGS
 |  line step |    0.455110 |   -0.000165 |    -7859.940560 | <-- min LBFGS
 +------------+-------------+-------------+-----------------+ <-- min LBFGS
  

--------------------------------------------------------------------------------
 LBFGS: improving iteration         3 with quad minimization (lambda=  0.006412)
--------------------------------------------------------------------------------

                           -------------------------------
                                      Unit Cell
                           -------------------------------
        Real Lattice(A)              Reciprocal Lattice(1/A)
     5.9007622    -0.0000007    -0.0000007        1.064809098   0.000000127   0.000000127
    -0.0000007     5.9007622    -0.0000007        0.000000127   1.064809098   0.000000127
    -0.0000007    -0.0000007     5.9007622        0.000000127   0.000000127   1.064809098

                       Lattice parameters(A)       Cell Angles
                    a =      5.900762          alpha =   90.000014
                    b =      5.900762          beta  =   90.000014
                    c =      5.900762          gamma =   90.000014

                Current cell volume =           205.458610 A**3
                            density =             2.838367 amu/A**3
                                    =             4.713220 g/cm^3

                           -------------------------------
                                     Cell Contents
                           -------------------------------

            xxxxxxxxxxxxxxxxxxxxxxxxxxxxxxxxxxxxxxxxxxxxxxxxxxxxxxxxxxxxxxxxx
            x  Element         Atom        Fractional coordinates of atoms  x
            x                 Number           u          v          w      x
            x---------------------------------------------------------------x
            x  P                 1         0.250000   0.250000   0.750000   x
            x  P                 2         0.750000   0.250000   0.250000   x
            x  P                 3         0.250000   0.750000   0.250000   x
            x  P                 4         0.750000   0.750000   0.750000   x
            x  In                1         0.000000   0.000000   0.000000   x
            x  In                2         0.500000   0.000000   0.500000   x
            x  In                3         0.000000   0.500000   0.500000   x
            x  In                4         0.500000   0.500000   0.000000   x
            xxxxxxxxxxxxxxxxxxxxxxxxxxxxxxxxxxxxxxxxxxxxxxxxxxxxxxxxxxxxxxxxx


------------------------------------------------------------------------ <-- SCF
SCF loop      Energy           Fermi           Energy gain       Timer   <-- SCF
                               energy          per atom          (sec)   <-- SCF
------------------------------------------------------------------------ <-- SCF
Initial  -7.85994056E+003  0.00000000E+000                      2013.78  <-- SCF
      1  -7.85994056E+003  3.45456647E+000   3.55292999E-007    2030.16  <-- SCF
      2  -7.85994056E+003  3.45456647E+000   1.02784077E-009    2045.10  <-- SCF
      3  -7.85994056E+003  3.45446661E+000  -1.17950142E-007    2063.25  <-- SCF
      4  -7.85994056E+003  3.45441331E+000  -7.48007445E-009    2078.27  <-- SCF
      5  -7.85994056E+003  3.45437630E+000  -3.01043656E-010    2093.31  <-- SCF
------------------------------------------------------------------------ <-- SCF
 
Final energy, E             =  -7859.940559847     eV
Final free energy (E-TS)    =  -7859.940560495     eV
(energies not corrected for finite basis set)
 
NB est. 0K energy (E-0.5TS)      =  -7859.940560171     eV
 

 ************************************** Forces **************************************
 *                                                                                  *
 *                           Cartesian components (eV/A)                            *
 * -------------------------------------------------------------------------------- *
 *                         x                    y                    z              *
 *                                                                                  *
 * P               1     -0.00001             -0.00001             -0.00001         *
 * P               2     -0.00001             -0.00001             -0.00001         *
 * P               3     -0.00001             -0.00001             -0.00001         *
 * P               4     -0.00001             -0.00001             -0.00001         *
 * In              1      0.00001              0.00001              0.00001         *
 * In              2      0.00001              0.00001              0.00001         *
 * In              3      0.00001              0.00001              0.00001         *
 * In              4      0.00001              0.00001              0.00001         *
 *                                                                                  *
 ************************************************************************************

 ***************** Stress Tensor *****************
 *                                               *
 *          Cartesian components (GPa)           *
 * --------------------------------------------- *
 *             x             y             z     *
 *                                               *
 *  x     -0.000622      0.000010      0.000010  *
 *  y      0.000010     -0.000622      0.000009  *
 *  z      0.000010      0.000009     -0.000622  *
 *                                               *
 *  Pressure:    0.0006                          *
 *                                               *
 *************************************************
  
 +------------+-------------+-------------+-----------------+ <-- min LBFGS
 |    Step    |   lambda    |   F.delta'  |    enthalpy     | <-- min LBFGS
 +------------+-------------+-------------+-----------------+ <-- min LBFGS
 |  previous  |    0.000000 |    0.000154 |    -7859.940561 | <-- min LBFGS
 | trial step |    1.000000 |   -0.000184 |    -7859.940560 | <-- min LBFGS
 |  line step |    0.455110 |   -0.000165 |    -7859.940560 | <-- min LBFGS
 |  quad step |    0.006412 |    0.000051 |    -7859.940561 | <-- min LBFGS
 +------------+-------------+-------------+-----------------+ <-- min LBFGS
  
 LBFGS: finished iteration     3 with enthalpy= -7.85994056E+003 eV
  
 +-----------+-----------------+-----------------+------------+-----+ <-- LBFGS
 | Parameter |      value      |    tolerance    |    units   | OK? | <-- LBFGS
 +-----------+-----------------+-----------------+------------+-----+ <-- LBFGS
 |  dE/ion   |   1.931552E-010 |   2.000000E-005 |         eV | Yes | <-- LBFGS
 |  |F|max   |   1.712200E-005 |   1.000000E-003 |       eV/A | Yes | <-- LBFGS
 |  |dR|max  |   4.833098E-011 |   1.000000E-003 |          A | Yes | <-- LBFGS
 |   Smax    |   6.216127E-004 |   1.000000E-004 |        GPa | No  | <-- LBFGS
 +-----------+-----------------+-----------------+------------+-----+ <-- LBFGS
  

================================================================================
 Starting LBFGS iteration          4 ...
================================================================================
  
 +------------+-------------+-------------+-----------------+ <-- min LBFGS
 |    Step    |   lambda    |   F.delta'  |    enthalpy     | <-- min LBFGS
 +------------+-------------+-------------+-----------------+ <-- min LBFGS
 |  previous  |    0.000000 |    0.000051 |    -7859.940561 | <-- min LBFGS
 +------------+-------------+-------------+-----------------+ <-- min LBFGS
  

--------------------------------------------------------------------------------
 LBFGS: starting iteration         4 with trial guess (lambda=  1.000000)
--------------------------------------------------------------------------------

                           -------------------------------
                                      Unit Cell
                           -------------------------------
        Real Lattice(A)              Reciprocal Lattice(1/A)
     5.9007627    -0.0000007    -0.0000007        1.064809007   0.000000133   0.000000133
    -0.0000007     5.9007627    -0.0000007        0.000000133   1.064809007   0.000000133
    -0.0000007    -0.0000007     5.9007627        0.000000133   0.000000133   1.064809007

                       Lattice parameters(A)       Cell Angles
                    a =      5.900763          alpha =   90.000014
                    b =      5.900763          beta  =   90.000014
                    c =      5.900763          gamma =   90.000014

                Current cell volume =           205.458662 A**3
                            density =             2.838367 amu/A**3
                                    =             4.713219 g/cm^3

                           -------------------------------
                                     Cell Contents
                           -------------------------------

            xxxxxxxxxxxxxxxxxxxxxxxxxxxxxxxxxxxxxxxxxxxxxxxxxxxxxxxxxxxxxxxxx
[...]
 *                           Cartesian components (eV/A)                            *
 * -------------------------------------------------------------------------------- *
 *                         x                    y                    z              *
 *                                                                                  *
 * P               1      0.00000              0.00000              0.00000         *
 * P               2      0.00000              0.00000              0.00000         *
 * P               3      0.00000              0.00000              0.00000         *
 * P               4      0.00000              0.00000              0.00000         *
 * In              1     -0.00000             -0.00000             -0.00000         *
 * In              2     -0.00000             -0.00000             -0.00000         *
 * In              3     -0.00000             -0.00000             -0.00000         *
 * In              4     -0.00000             -0.00000             -0.00000         *
 *                                                                                  *
 ************************************************************************************

 ***************** Stress Tensor *****************
 *                                               *
 *          Cartesian components (GPa)           *
 * --------------------------------------------- *
 *             x             y             z     *
 *                                               *
 *  x     -0.002537      0.000023      0.000023  *
 *  y      0.000023     -0.002537      0.000022  *
 *  z      0.000023      0.000022     -0.002537  *
 *                                               *
 *  Pressure:    0.0025                          *
 *                                               *
 *************************************************
  
 +------------+-------------+-------------+-----------------+ <-- min LBFGS
 |    Step    |   lambda    |   F.delta'  |    enthalpy     | <-- min LBFGS
 +------------+-------------+-------------+-----------------+ <-- min LBFGS
 |  previous  |    0.000000 |    0.000166 |    -7859.940560 | <-- min LBFGS
 | trial step |    1.000000 |   -0.000114 |    -7859.940561 | <-- min LBFGS
 |  line step |    0.593467 |   -0.000207 |    -7859.940561 | <-- min LBFGS
 +------------+-------------+-------------+-----------------+ <-- min LBFGS
  

--------------------------------------------------------------------------------
 LBFGS: improving iteration        20 with quad minimization (lambda= -0.441304)
--------------------------------------------------------------------------------

                           -------------------------------
                                      Unit Cell
                           -------------------------------
        Real Lattice(A)              Reciprocal Lattice(1/A)
     5.9008409    -0.0000038    -0.0000038        1.064794904   0.000000691   0.000000691
    -0.0000038     5.9008409    -0.0000039        0.000000691   1.064794898   0.000000696
    -0.0000038    -0.0000039     5.9008408        0.000000691   0.000000696   1.064794917

                       Lattice parameters(A)       Cell Angles
                    a =      5.900841          alpha =   90.000075
                    b =      5.900841          beta  =   90.000074
                    c =      5.900841          gamma =   90.000074

                Current cell volume =           205.466825 A**3
                            density =             2.838254 amu/A**3
                                    =             4.713032 g/cm^3

                           -------------------------------
                                     Cell Contents
                           -------------------------------

            xxxxxxxxxxxxxxxxxxxxxxxxxxxxxxxxxxxxxxxxxxxxxxxxxxxxxxxxxxxxxxxxx
            x  Element         Atom        Fractional coordinates of atoms  x
            x                 Number           u          v          w      x
            x---------------------------------------------------------------x
            x  P                 1         0.250000   0.250000   0.750000   x
            x  P                 2         0.750000   0.250000   0.250000   x
            x  P                 3         0.250000   0.750000   0.250000   x
            x  P                 4         0.750000   0.750000   0.750000   x
            x  In                1         0.000000   0.000000   0.000000   x
            x  In                2         0.500000   0.000000   0.500000   x
            x  In                3         0.000000   0.500000   0.500000   x
            x  In                4         0.500000   0.500000   0.000000   x
            xxxxxxxxxxxxxxxxxxxxxxxxxxxxxxxxxxxxxxxxxxxxxxxxxxxxxxxxxxxxxxxxx


------------------------------------------------------------------------ <-- SCF
SCF loop      Energy           Fermi           Energy gain       Timer   <-- SCF
                               energy          per atom          (sec)   <-- SCF
------------------------------------------------------------------------ <-- SCF
Initial  -7.85994056E+003  0.00000000E+000                     11468.75  <-- SCF
      1  -7.85994056E+003  3.45371563E+000   4.09067091E-007   11485.13  <-- SCF
      2  -7.85994056E+003  3.45371563E+000   1.22834319E-009   11500.04  <-- SCF
      3  -7.85994056E+003  3.45382025E+000  -1.21812279E-007   11518.20  <-- SCF
      4  -7.85994056E+003  3.45387591E+000  -7.82249469E-009   11533.10  <-- SCF
      5  -7.85994056E+003  3.45391335E+000  -3.24052131E-010   11548.03  <-- SCF
------------------------------------------------------------------------ <-- SCF
 
Final energy, E             =  -7859.940559688     eV
Final free energy (E-TS)    =  -7859.940560338     eV
(energies not corrected for finite basis set)
 
NB est. 0K energy (E-0.5TS)      =  -7859.940560013     eV
 

 ************************************** Forces **************************************
 *                                                                                  *
 *                           Cartesian components (eV/A)                            *
 * -------------------------------------------------------------------------------- *
 *                         x                    y                    z              *
 *                                                                                  *
 * P               1     -0.00000             -0.00000             -0.00000         *
 * P               2     -0.00000             -0.00000             -0.00000         *
 * P               3     -0.00000             -0.00000             -0.00000         *
 * P               4     -0.00000             -0.00000             -0.00000         *
 * In              1      0.00000              0.00000              0.00000         *
 * In              2      0.00000              0.00000              0.00000         *
 * In              3      0.00000              0.00000              0.00000         *
 * In              4      0.00000              0.00000              0.00000         *
 *                                                                                  *
 ************************************************************************************

 ***************** Stress Tensor *****************
 *                                               *
 *          Cartesian components (GPa)           *
 * --------------------------------------------- *
 *             x             y             z     *
 *                                               *
 *  x      0.001048     -0.000030     -0.000030  *
 *  y     -0.000030      0.001049     -0.000030  *
 *  z     -0.000030     -0.000030      0.001047  *
 *                                               *
 *  Pressure:   -0.0010                          *
 *                                               *
 *************************************************
  
 +------------+-------------+-------------+-----------------+ <-- min LBFGS
 |    Step    |   lambda    |   F.delta'  |    enthalpy     | <-- min LBFGS
 +------------+-------------+-------------+-----------------+ <-- min LBFGS
 |  previous  |    0.000000 |    0.000166 |    -7859.940560 | <-- min LBFGS
 | trial step |    1.000000 |   -0.000114 |    -7859.940561 | <-- min LBFGS
 |  line step |    0.593467 |   -0.000207 |    -7859.940561 | <-- min LBFGS
 |  quad step |   -0.441304 |    0.000086 |    -7859.940560 | <-- min LBFGS
 +------------+-------------+-------------+-----------------+ <-- min LBFGS
  
 LBFGS: updated estimated <frequency>  =1700.55195 cm-1
 LBFGS: updated estimated bulk modulus =  56.46769 GPa
 LBFGS: finished iteration    20 with enthalpy= -7.85994056E+003 eV
  
 +-----------+-----------------+-----------------+------------+-----+ <-- LBFGS
 | Parameter |      value      |    tolerance    |    units   | OK? | <-- LBFGS
 +-----------+-----------------+-----------------+------------+-----+ <-- LBFGS
 |  dE/ion   |   1.010227E-008 |   2.000000E-005 |         eV | Yes | <-- LBFGS
 |  |F|max   |   1.390033E-006 |   1.000000E-003 |       eV/A | Yes | <-- LBFGS
 |  |dR|max  |   1.234943E-008 |   1.000000E-003 |          A | Yes | <-- LBFGS
 |   Smax    |   1.048553E-003 |   1.000000E-004 |        GPa | No  | <-- LBFGS
 +-----------+-----------------+-----------------+------------+-----+ <-- LBFGS
  
 LBFGS: WARNING - Geometry optimization failed to converge after         20 steps

================================================================================
 LBFGS: Final Configuration:
================================================================================

                           -------------------------------
                                      Unit Cell
                           -------------------------------
        Real Lattice(A)              Reciprocal Lattice(1/A)
     5.9008409    -0.0000038    -0.0000038        1.064794904   0.000000691   0.000000691
    -0.0000038     5.9008409    -0.0000039        0.000000691   1.064794898   0.000000696
    -0.0000038    -0.0000039     5.9008408        0.000000691   0.000000696   1.064794917

                       Lattice parameters(A)       Cell Angles
                    a =      5.900841          alpha =   90.000075
                    b =      5.900841          beta  =   90.000074
                    c =      5.900841          gamma =   90.000074

                Current cell volume =           205.466825 A**3
                            density =             2.838254 amu/A**3
                                    =             4.713032 g/cm^3

                           -------------------------------
                                     Cell Contents
                           -------------------------------

            xxxxxxxxxxxxxxxxxxxxxxxxxxxxxxxxxxxxxxxxxxxxxxxxxxxxxxxxxxxxxxxxx
            x  Element         Atom        Fractional coordinates of atoms  x
            x                 Number           u          v          w      x
            x---------------------------------------------------------------x
            x  P                 1         0.250000   0.250000   0.750000   x
            x  P                 2         0.750000   0.250000   0.250000   x
            x  P                 3         0.250000   0.750000   0.250000   x
            x  P                 4         0.750000   0.750000   0.750000   x
            x  In                1         0.000000   0.000000   0.000000   x
            x  In                2         0.500000   0.000000   0.500000   x
            x  In                3         0.000000   0.500000   0.500000   x
            x  In                4         0.500000   0.500000   0.000000   x
            xxxxxxxxxxxxxxxxxxxxxxxxxxxxxxxxxxxxxxxxxxxxxxxxxxxxxxxxxxxxxxxxx


 LBFGS: Final Enthalpy     = -7.85994056E+003 eV
 LBFGS: Final <frequency>  =    1700.55195 cm-1
 LBFGS: Final bulk modulus =      56.46769 GPa
  
  **********************************************************
  *** There were at least     1 warnings during this run ***
  *** => please check the whole of this file carefully!  ***
  **********************************************************

 ************************************** Forces **************************************
 *                                                                                  *
 *                           Cartesian components (eV/A)                            *
 * -------------------------------------------------------------------------------- *
 *                         x                    y                    z              *
 *                                                                                  *
 * P               1     -0.00000             -0.00000             -0.00000         *
 * P               2     -0.00000             -0.00000             -0.00000         *
 * P               3     -0.00000             -0.00000             -0.00000         *
 * P               4     -0.00000             -0.00000             -0.00000         *
 * In              1      0.00000              0.00000              0.00000         *
 * In              2      0.00000              0.00000              0.00000         *
 * In              3      0.00000              0.00000              0.00000         *
 * In              4      0.00000              0.00000              0.00000         *
 *                                                                                  *
 ************************************************************************************

 ***************** Stress Tensor *****************
 *                                               *
 *          Cartesian components (GPa)           *
 * --------------------------------------------- *
 *             x             y             z     *
 *                                               *
 *  x      0.001048     -0.000030     -0.000030  *
 *  y     -0.000030      0.001049     -0.000030  *
 *  z     -0.000030     -0.000030      0.001047  *
 *                                               *
 *  Pressure:   -0.0010                          *
 *                                               *
 *************************************************

 Pseudo atomic calculation performed for P 3s2 3p3

 Converged in 23 iterations to a total energy of -208.0300 eV

 Pseudo atomic calculation performed for In 4d10 5s2 5p1

 Converged in 42 iterations to a total energy of -1747.4733 eV
Charge spilling parameter for spin component 1 = 0.15%

            Orbital Populations       
     Ion    Atom   Orbital             Charge
  -------------------------------------------
      P     1      S                    1.735
      P     1      Px                   1.313
      P     1      Py                   1.313
      P     1      Pz                   1.313
      P     2      S                    1.735
      P     2      Px                   1.313
      P     2      Py                   1.313
      P     2      Pz                   1.313
      P     3      S                    1.735
      P     3      Px                   1.313
      P     3      Py                   1.313
      P     3      Pz                   1.313
      P     4      S                    1.735
      P     4      Px                   1.313
      P     4      Py                   1.313
      P     4      Pz                   1.313
     In     1      Dzz                  1.999
     In     1      Dzy                  1.997
     In     1      Dzx                  1.997
     In     1      Dxx-yy               1.999
     In     1      Dxy                  1.997
     In     1      S                    1.424
     In     1      Px                   0.481
     In     1      Py                   0.481
     In     1      Pz                   0.481
     In     1      S                   -0.531
     In     2      Dzz                  1.999
     In     2      Dzy                  1.997
     In     2      Dzx                  1.997
     In     2      Dxx-yy               1.999
     In     2      Dxy                  1.997
     In     2      S                    1.424
     In     2      Px                   0.481
     In     2      Py                   0.481
     In     2      Pz                   0.481
     In     2      S                   -0.531
     In     3      Dzz                  1.999
     In     3      Dzy                  1.997
     In     3      Dzx                  1.997
     In     3      Dxx-yy               1.999
     In     3      Dxy                  1.997
     In     3      S                    1.424
     In     3      Px                   0.481
     In     3      Py                   0.481
     In     3      Pz                   0.481
     In     3      S                   -0.531
     In     4      Dzz                  1.999
     In     4      Dzy                  1.997
     In     4      Dzx                  1.997
     In     4      Dxx-yy               1.999
     In     4      Dxy                  1.997
     In     4      S                    1.424
     In     4      Px                   0.481
     In     4      Py                   0.481
     In     4      Pz                   0.481
     In     4      S                   -0.531
  -------------------------------------------
                           Total:      72.000
  -------------------------------------------

     Atomic Populations (Mulliken)
     -----------------------------
Species          Ion     s       p       d       f      Total   Charge (e)
==========================================================================
  P               1     1.735   3.940   0.000   0.000   5.675    -0.675
  P               2     1.735   3.940   0.000   0.000   5.675    -0.675
  P               3     1.735   3.940   0.000   0.000   5.675    -0.675
  P               4     1.735   3.940   0.000   0.000   5.675    -0.675
  In              1     0.892   1.444   9.989   0.000  12.325     0.675
  In              2     0.892   1.444   9.989   0.000  12.325     0.675
  In              3     0.892   1.444   9.989   0.000  12.325     0.675
  In              4     0.892   1.444   9.989   0.000  12.325     0.675
==========================================================================

                 Bond                   Population      Length (A)
======================================================================
               P 3 -- In 4                   0.56        2.55514
               P 4 -- In 3                   0.56        2.55514
               P 2 -- In 1                   0.56        2.55514
               P 1 -- In 2                   0.56        2.55514
               P 2 -- In 2                   0.56        2.55514
               P 4 -- In 4                   0.56        2.55514
               P 2 -- In 4                   0.56        2.55514
               P 3 -- In 3                   0.56        2.55514
               P 3 -- In 1                   0.56        2.55514
               P 4 -- In 2                   0.56        2.55514
               P 1 -- In 1                   0.56        2.55514
               P 1 -- In 3                   0.56        2.55514
               P 3 -- In 2                   0.56        2.55514
               P 2 -- In 3                   0.56        2.55514
               P 4 -- In 1                   0.56        2.55514
               P 1 -- In 4                   0.56        2.55514
======================================================================

 
 A BibTeX formatted list of references used in this run has been written to 
 ZB_Bulk.bib
 
Initialisation time =     22.21 s
Calculation time    =  11656.52 s
Finalisation time   =      1.06 s
Total time          =  11679.79 s
Peak Memory Use     = 4393312 kB
 
Overall parallel efficiency rating: Good (71%)
 
Data was distributed by:-
G-vector (3-way); efficiency rating: Good (72%)
k-point (512-way); efficiency rating: Excellent (98%)
