 +-------------------------------------------------+
 |                                                 |
 |      CCC   AA    SSS  TTTTT  EEEEE  PPPP        |
 |     C     A  A  S       T    E      P   P       |
 |     C     AAAA   SS     T    EEE    PPPP        |
 |     C     A  A     S    T    E      P           |
 |      CCC  A  A  SSS     T    EEEEE  P           |
 |                                                 |
 +-------------------------------------------------+
 |                                                 |
 | Welcome to Academic Release CASTEP version 24.1 |
 | Ab Initio Total Energy Program                  |
 |                                                 |
 | Authors:                                        |
 | M. Segall, M. Probert, C. Pickard, P. Hasnip,   |
 | S. Clark, K. Refson, J. R. Yates,               |
 | A. Bartok-Partay, M. Payne                      |
 |                                                 |
 | Contributors:                                   |
 | P. Lindan, P. Haynes, J. White, V. Milman,      |
 | N. Govind, M. Gibson, P. Tulip, V. Cocula,      |
 | B. Montanari, D. Quigley, M. Glover,            |
 | L. Bernasconi, A. Perlov, M. Plummer,           |
 | E. McNellis, J. Meyer, J. Gale, D. Jochym       |
 | J. Aarons, B. Walker, R. Gillen, D. Jones       |
 | T. Green, I. J. Bush, C. J. Armstrong,          |
 | E. J. Higgins, E. L. Brown, M. S. McFly,        |
 | J. Wilkins, B-C. Shih, P. J. P. Byrne,          |
 | R. J. Maurer, J. C. Womack, J. Dziedzic,        |
 | L. LeBlanc, T. K. Stenczel, J. Kermode,         |
 | S. Sturniolo, B. Shi, B. Durham, M. Evans,      |
 | M. J. Smith, A. Tamerus, Z. Hawkhead,           |
 | V. Ravindran, T. Hollins, S. A. Joyce,          |
 | R. T. Strong, A. M. Reilly, S. J. Donaldson     |
 |                                                 |
 | Copyright (c) 2000 - 2023                       |
 |                                                 |
 |     Distributed under license from Cambridge    |
 |     Enterprise for academic use only.           |
 |                                                 |
 | Please cite                                     |
 |                                                 |
 |     "First principles methods using CASTEP"     |
 |                                                 |
 |         Zeitschrift fuer Kristallographie       |
 |           220(5-6) pp. 567-570 (2005)           |
 |                                                 |
 | S. J. Clark, M. D. Segall, C. J. Pickard,       |
 | P. J. Hasnip, M. J. Probert, K. Refson,         |
 | M. C. Payne                                     |
 |                                                 |
 |       in all publications arising from          |
 |              your use of CASTEP                 |
 |                                                 |
 +-------------------------------------------------+
 |                                                 |
 |              http://www.castep.org              |
 |                                                 |
 +-------------------------------------------------+



 Compiled for  GNU 11.2.0 on 04-04-2024 18:39:17
 from code version 6355fd106 Castep241_branch Thu Mar 7 17:56:19 2024 +0000
 Compiler: GNU Fortran 11.2.0; Optimisation: FAST
 Comms   : MPI VERSION : CRAY MPICH version 8.1.23.14 (ANL base 3.4a2)
 MATHLIBS: default (LAPACK version 3.10.1)
 FFT Lib : fftw3 version commercial-fftw-3.3.10-sse2-avx-avx2-avx2_128
 Fundamental constants values: CODATA 2018

 Run started: Wed, 30 Jul 2025 17:01:59 +0100

 Atomic calculation performed for P: 1s2 2s2 2p6 3s2 3p3

 Converged in 47 iterations to an ae energy of -9309.074 eV

   ============================================================                
   | Pseudopotential Report - Date of generation 30-07-2025   |                
   ------------------------------------------------------------                
   | Element: P Ionic charge:  5.00 Level of theory: RSCAN    |                
   | Atomic Solver: Koelling-Harmon                           |                
   |                                                          |                
   |               Reference Electronic Structure             |                
   |         Orbital         Occupation         Energy        |                
   |            3s              2.000           -0.535        |                
   |            3p              3.000           -0.209        |                
   |                                                          |                
   |                 Pseudopotential Definition               |                
   |        Beta     l      e      Rc     scheme   norm       |                
   |          1      0   -0.535   1.807     qc      0         |                
   |          2      0    0.250   1.807     qc      0         |                
   |          3      1   -0.209   1.807     qc      0         |                
   |          4      1    0.250   1.807     qc      0         |                
   |          5      2    0.000   1.807     qc      0         |                
   |          6      2    0.250   1.807     qc      0         |                
   |         loc     3    0.000   1.807     pn      0         |                
   |                                                          |                
   | Augmentation charge Rinner = 1.263                       |                
   | Partial core correction Rc = 1.263                       |                
   ------------------------------------------------------------                
   | "3|1.8|4|4|5|30:31:32"                                   |                
   ------------------------------------------------------------                
   |      Author: Chris J. Pickard, Cambridge University      |                
   ============================================================                
 Warning: otfg_output_psp cannot write out meta-GGA pseudopotentials presently.

 Atomic calculation performed for In:
 1s2 2s2 2p6 3s2 3p6 3d10 4s2 4p6 4d10 5s2 5p1

 Converged in 84 iterations to an ae energy of -160093.328 eV

   ============================================================                
   | Pseudopotential Report - Date of generation 30-07-2025   |                
   ------------------------------------------------------------                
   | Element: In Ionic charge: 13.00 Level of theory: RSCAN   |                
   | Atomic Solver: Koelling-Harmon                           |                
   |                                                          |                
   |               Reference Electronic Structure             |                
   |         Orbital         Occupation         Energy        |                
   |            4d             10.000           -0.711        |                
   |            5s              2.000           -0.313        |                
   |            5p              1.000           -0.095        |                
   |                                                          |                
   |                 Pseudopotential Definition               |                
   |        Beta     l      e      Rc     scheme   norm       |                
   |          1      0   -0.313   2.501     qc      0         |                
   |          2      0    0.250   2.501     qc      0         |                
   |          3      1   -0.095   2.501     qc      0         |                
   |          4      1    0.250   2.501     qc      0         |                
   |          5      2   -0.711   2.207     qc      0         |                
   |          6      2    0.250   2.207     qc      0         |                
   |         loc     3    0.000   2.501     pn      0         |                
   |                                                          |                
   | Augmentation charge Rinner = 1.504                       |                
   | Partial core correction Rc = 1.504                       |                
   ------------------------------------------------------------                
   | "3|2.5|2.5|1.5|7|8|9|50:51:42U2.2U2.2"                   |                
   ------------------------------------------------------------                
   |      Author: Chris J. Pickard, Cambridge University      |                
   ============================================================                
 Warning: otfg_output_psp cannot write out meta-GGA pseudopotentials presently.

 Pseudo atomic calculation performed for P 3s2 3p3

 Converged in 23 iterations to a total energy of -208.0292 eV

 Pseudo atomic calculation performed for In 4d10 5s2 5p1

 Converged in 42 iterations to a total energy of -1747.4501 eV
 Calculation parallelised over 108 processes.
 Data is distributed by G-vector(3-way) and k-point(36-way)
 Each process may use up to 16 threads.

 ************************************ Title ************************************
 

 ***************************** General Parameters ******************************
  
 output verbosity                               : normal  (1)
 write checkpoint data to                       : P_Interstitial_Migration_Dumbbell_Dumbbell+_Singlepoints_2.check
 type of calculation                            : single point energy
 stress calculation                             : off
 density difference calculation                 : off
 electron localisation func (ELF) calculation   : off
 Hirshfeld analysis                             : on
 polarisation (Berry phase) analysis            : off
 molecular orbital projected DOS                : off
 deltaSCF calculation                           : off
 unlimited duration calculation
 timing information                             : on
 memory usage estimate                          : on
 write extra output files                       : on
 write final potential to formatted file        : off
 write final density to formatted file          : off
 write BibTeX reference list                    : on
 write OTFG pseudopotential files               : on
 write electrostatic potential file             : on
 write bands file                               : on
 checkpoint writing                             : off
  
 output         length unit                     : A
 output           mass unit                     : amu
 output           time unit                     : ps
 output         charge unit                     : e
 output           spin unit                     : hbar/2
 output         energy unit                     : eV
 output          force unit                     : eV/A
 output       velocity unit                     : A/ps
 output       pressure unit                     : GPa
 output     inv_length unit                     : 1/A
 output      frequency unit                     : cm-1
 output force constant unit                     : eV/A**2
 output         volume unit                     : A**3
 output   IR intensity unit                     : (D/A)**2/amu
 output         dipole unit                     : D
 output         efield unit                     : eV/A/e
 output        entropy unit                     : J/mol/K
 output    efield chi2 unit                     : pm/V
  
 wavefunctions paging                           : none
 random number generator seed                   :  170159836
 data distribution                              : optimal for this architecture
 optimization strategy                          : balance speed and memory

 *********************** Exchange-Correlation Parameters ***********************
  
 using functional                               : RSCAN
 relativistic treatment                         : Koelling-Harmon
 DFT+D: Semi-empirical dispersion correction    : off

 ************************* Pseudopotential Parameters **************************
  
 pseudopotential representation                 : reciprocal space
 <beta|phi> representation                      : reciprocal space
 spin-orbit coupling                            : off

 **************************** Basis Set Parameters *****************************
  
 plane wave basis set cut-off                   :   900.0000   eV
 size of standard grid                          :     2.0000
 size of   fine   gmax                          :    30.7390   1/A
 finite basis set correction                    : none

 **************************** Electronic Parameters ****************************
  
 number of  electrons                           :  581.0    
 net charge of system                           :  0.000    
 net spin   of system                           :  1.000    
 number of  up  spins                           :  291.0    
 number of down spins                           :  290.0    
 treating system as spin-polarized
 number of bands                                :        349

 ********************* Electronic Minimization Parameters **********************
  
 Method: Treating system as metallic with density mixing treatment of electrons,
         and number of  SD  steps               :          1
         and number of  CG  steps               :          4
  
 total energy / atom convergence tol.           : 0.1000E-07   eV
 eigen-energy convergence tolerance             : 0.2234E-08   eV
 max force / atom convergence tol.              : ignored
 convergence tolerance window                   :          3   cycles
 max. number of SCF cycles                      :        100
 number of fixed-spin iterations                :         10
 smearing scheme                                : Gaussian
 smearing width                                 : 0.2000       eV
 Fermi energy convergence tolerance             : 0.2721E-13   eV
 periodic dipole correction                     : NONE

 ************************** Density Mixing Parameters **************************
  
 density-mixing scheme                          : Pulay
 max. length of mixing history                  :         20
 charge density mixing amplitude                : 0.5000    
   spin density mixing amplitude                :  2.000    
 cut-off energy for mixing                      :  900.0       eV

 *********************** Population Analysis Parameters ************************
  
 Population analysis with cutoff                :  3.000       A
 Population analysis output                     : summary and pdos components

 *******************************************************************************
  

                           -------------------------------
                                      Unit Cell
                           -------------------------------
        Real Lattice(A)                      Reciprocal Lattice(1/A)
    11.8016820    -0.0000080    -0.0000080        0.532397442   0.000000361   0.000000361
    -0.0000080    11.8016820    -0.0000080        0.000000361   0.532397442   0.000000361
    -0.0000080    -0.0000080    11.8016820        0.000000361   0.000000361   0.532397442

                       Lattice parameters(A)       Cell Angles
                    a =     11.801682          alpha =   90.000078
                    b =     11.801682          beta  =   90.000078
                    c =     11.801682          gamma =   90.000078

                       Current cell volume =          1643.734705       A**3
                                   density =             2.857097   AMU/A**3
                                           =             4.744322     g/cm^3

                           -------------------------------
                                     Cell Contents
                           -------------------------------
                         Total number of ions in cell =   65
                      Total number of species in cell =    2
                        Max number of any one species =   33

            xxxxxxxxxxxxxxxxxxxxxxxxxxxxxxxxxxxxxxxxxxxxxxxxxxxxxxxxxxxx
            x  Element    Atom        Fractional coordinates of atoms  x
            x            Number           u          v          w      x
            x----------------------------------------------------------x
            x  P            1         0.112794   0.123186   0.384326   x 
            x  P            2         0.350828   0.155201   0.212476   x 
            x  P            3         0.125524   0.371402   0.121097   x 
            x  P            4         0.377785   0.380121   0.378762   x 
            x  P            5         0.116113   0.122662   0.860762   x 
            x  P            6         0.373996   0.123738   0.620864   x 
            x  P            7         0.124313   0.374121   0.621229   x 
            x  P            8         0.375771   0.374806   0.870492   x 
            x  P            9         0.123755   0.621057   0.370342   x 
            x  P           10         0.373738   0.624515   0.122136   x 
            x  P           11         0.121811   0.872074   0.124636   x 
            x  P           12         0.374885   0.865869   0.379969   x 
            x  P           13         0.123996   0.624833   0.875413   x 
            x  P           14         0.371179   0.620773   0.625143   x 
            x  P           15         0.120936   0.870619   0.622215   x 
            x  P           16         0.374634   0.867139   0.861999   x 
            x  P           17         0.632985   0.122609   0.378438   x 
            x  P           18         0.876427   0.123514   0.122075   x 
            x  P           19         0.629411   0.378151   0.119331   x 
            x  P           20         0.875315   0.373727   0.372368   x 
            x  P           21         0.627815   0.127175   0.868980   x 
            x  P           22         0.869265   0.122747   0.625487   x 
            x  P           23         0.625122   0.375729   0.622617   x 
            x  P           24         0.874995   0.375158   0.872242   x 
            x  P           25         0.624105   0.624689   0.372683   x 
            x  P           26         0.872852   0.622904   0.122026   x 
            x  P           27         0.623202   0.875051   0.122800   x 
            x  P           28         0.872624   0.871542   0.371275   x 
            x  P           29         0.624358   0.624430   0.872491   x 
            x  P           30         0.873865   0.623658   0.622558   x 
            x  P           31         0.623793   0.873852   0.621728   x 
            x  P           32         0.874090   0.873163   0.874727   x 
            x  P           33         0.332591   0.073441   0.055398   x 
            x  In           1         0.001638  -0.000449  -0.003593   x 
            x  In           2         0.232438  -0.016289   0.272741   x 
            x  In           3         0.000838   0.247751   0.248069   x 
            x  In           4         0.239585   0.251802  -0.018295   x 
            x  In           5        -0.010137  -0.004926   0.503773   x 
            x  In           6         0.248004  -0.003332   0.743632   x 
            x  In           7        -0.005511   0.251193   0.741828   x 
            x  In           8         0.250432   0.249136   0.495094   x 
            x  In           9        -0.000249   0.498592  -0.000562   x 
            x  In          10         0.251700   0.496106   0.246954   x 
            x  In          11        -0.002723   0.745703   0.246618   x 
            x  In          12         0.251084   0.752393  -0.002676   x 
            x  In          13        -0.000649   0.498981   0.497480   x 
            x  In          14         0.245932   0.498176   0.749715   x 
            x  In          15        -0.002053   0.747288   0.749650   x 
            x  In          16         0.245791   0.742646   0.500689   x 
            x  In          17         0.509757  -0.011529  -0.020434   x 
            x  In          18         0.750908  -0.000687   0.246289   x 
            x  In          19         0.521635   0.264355   0.263694   x 
            x  In          20         0.752871   0.248352  -0.002756   x 
            x  In          21         0.498828  -0.000207   0.495826   x 
            x  In          22         0.748758  -0.004192   0.748891   x 
            x  In          23         0.499304   0.249420   0.744700   x 
            x  In          24         0.752671   0.251099   0.500808   x 
            x  In          25         0.498171   0.500819  -0.003001   x 
            x  In          26         0.751221   0.500646   0.249692   x 
            x  In          27         0.498396   0.748421   0.247110   x 
            x  In          28         0.748618   0.748873  -0.001161   x 
            x  In          29         0.499751   0.503790   0.501597   x 
            x  In          30         0.749300   0.499394   0.748580   x 
            x  In          31         0.500256   0.744126   0.742127   x 
            x  In          32         0.748580   0.748922   0.497855   x 
            xxxxxxxxxxxxxxxxxxxxxxxxxxxxxxxxxxxxxxxxxxxxxxxxxxxxxxxxxxxx


                         No user defined ionic velocities

                           -------------------------------
                                   Details of Species
                           -------------------------------

                               Mass of species in AMU
                                    P   30.9737600
                                    In  114.8180000

                          Electric Quadrupole Moment (Barn)
                                    P    1.0000000 No Isotope Defined
                                    In    0.7700000 Isotope115

                          Files used for pseudopotentials:
                                    P 3|1.8|4|4|5|30:31:32
                                    In 3|2.5|2.5|1.5|7|8|9|50:51:42U2.2U2.2

                           -------------------------------
                              k-Points For BZ Sampling
                           -------------------------------
                       MP grid size for SCF calculation is  4  4  4
                            with an offset of   0.125  0.125  0.125
                       Number of kpoints used =            36

                           -------------------------------
                               Symmetry and Constraints
                           -------------------------------

                      Maximum deviation from symmetry =  0.00000         ANG

                      Number of symmetry operations   =           1
                      Number of ionic constraints     =           3
                      Point group of crystal =     1: C1, 1, 1
                      Space group of crystal =     1: P1, P 1

             Set iprint > 1 for details on symmetry rotations/translations

                         Centre of mass is constrained
             Set iprint > 1 for details of linear ionic constraints

                         Number of cell constraints= 0
                         Cell constraints are:  1 2 3 4 5 6

                         External pressure/stress (GPa)
                          0.00000   0.00000   0.00000
                                    0.00000   0.00000
                                              0.00000
 
+---------------- MEMORY AND SCRATCH DISK ESTIMATES PER PROCESS --------------+
|                                                     Memory          Disk    |
| Baseline code, static data and system overhead      368.0 MB         0.0 MB |
| BLAS internal memory storage                          0.0 MB         0.0 MB |
| Model and support data                             4327.0 MB         0.0 MB |
| Electronic energy minimisation requirements        1337.1 MB         0.0 MB |
| Force calculation requirements                      127.4 MB         0.0 MB |
|                                               ----------------------------- |
| Approx. total storage required per process         6032.2 MB         0.0 MB |
|                                                                             |
| Requirements will fluctuate during execution and may exceed these estimates |
+-----------------------------------------------------------------------------+
Calculating approximate eigenstates for fixed initial Hamiltonian
Cut-off for approx. calculation is   89.988 eV
Improving approx. states at cut-off of  450.000 eV
Resetting cut-off to  900.000 eV
Calculating total energy with cut-off of  900.000 eV.
------------------------------------------------------------------------ <-- SCF
SCF loop      Energy           Fermi           Energy gain       Timer   <-- SCF
                               energy          per atom          (sec)   <-- SCF
------------------------------------------------------------------------ <-- SCF
Initial  -6.32538577E+004  0.00000000E+000                       440.87  <-- SCF
      1  -6.30178642E+004  2.86990514E+000  -3.63067010E+000     892.34  <-- SCF
      2  -6.30181377E+004  2.86959614E+000   4.20795983E-003    1217.72  <-- SCF
      3  -6.30840149E+004  3.20445783E+000   1.01349562E+000    1563.41  <-- SCF
      4  -6.30955996E+004  3.29141626E+000   1.78226156E-001    2059.46  <-- SCF
      5  -6.31016931E+004  3.46500621E+000   9.37455923E-002    2413.07  <-- SCF
      6  -6.30901881E+004  3.67393222E+000  -1.76999884E-001    2768.67  <-- SCF
      7  -6.30888605E+004  3.72998582E+000  -2.04242850E-002    3118.57  <-- SCF
      8  -6.30889891E+004  3.77424408E+000   1.97888806E-003    3502.47  <-- SCF
      9  -6.30898282E+004  3.80238460E+000   1.29089801E-002    3857.05  <-- SCF
     10  -6.30900950E+004  3.76684150E+000   4.10410056E-003    4214.73  <-- SCF
     11  -6.30900997E+004  3.75743733E+000   7.35208006E-005    4577.88  <-- SCF
     12  -6.30901019E+004  3.75085032E+000   3.25812180E-005    4937.32  <-- SCF
     13  -6.30901029E+004  3.75032857E+000   1.55946309E-005    5310.26  <-- SCF
     14  -6.30901031E+004  3.74961326E+000   3.43428202E-006    5675.87  <-- SCF
     15  -6.30901032E+004  3.74889422E+000   9.12896325E-007    6029.77  <-- SCF
     16  -6.30901032E+004  3.74891556E+000   2.69294021E-007    6335.35  <-- SCF
     17  -6.30901032E+004  3.74881344E+000   7.30082138E-008    6619.97  <-- SCF
     18  -6.30901032E+004  3.74889564E+000   2.32785441E-008    6870.48  <-- SCF
     19  -6.30901032E+004  3.74898199E+000   9.34697948E-009    7126.67  <-- SCF
     20  -6.30901032E+004  3.74900473E+000   3.96301421E-009    7374.56  <-- SCF
     21  -6.30901032E+004  3.74900593E+000   6.59645686E-010    7631.41  <-- SCF
------------------------------------------------------------------------ <-- SCF
 
Integrated Spin Density     =    0.990514     hbar/2
Integrated |Spin Density|   =     1.15390     hbar/2
 
Final energy, E             =  -63090.08375135     eV
Final free energy (E-TS)    =  -63090.10317757     eV
(energies not corrected for finite basis set)
 
NB est. 0K energy (E-0.5TS)      =  -63090.09346446     eV
 

 ************************** Forces **************************
 *                                                          *
 *               Cartesian components (eV/A)                *
 * -------------------------------------------------------- *
 *                         x            y            z      *
 *                                                          *
 * P               1     -0.09541     -0.09836      0.06018 *
 * P               2     -0.00207      0.10415     -0.12664 *
 * P               3      0.06141     -0.01178      0.06730 *
 * P               4     -0.00117      0.03352     -0.00294 *
 * P               5     -0.01405      0.03097      0.04320 *
 * P               6     -0.01453     -0.00602      0.01830 *
 * P               7     -0.00046     -0.01382      0.00260 *
 * P               8     -0.00920      0.03164      0.03794 *
 * P               9      0.00155      0.00533     -0.00983 *
 * P              10     -0.02681     -0.01156     -0.00507 *
 * P              11      0.01501     -0.03631      0.02673 *
 * P              12      0.02213      0.05335     -0.06841 *
 * P              13     -0.00763     -0.02542      0.01825 *
 * P              14      0.01161      0.03399     -0.02117 *
 * P              15      0.01755      0.01152     -0.01354 *
 * P              16     -0.00762     -0.04400      0.05680 *
 * P              17     -0.02704     -0.00250     -0.01830 *
 * P              18     -0.00981      0.00054     -0.00310 *
 * P              19     -0.03744     -0.03667      0.04566 *
 * P              20      0.01371      0.01629     -0.00878 *
 * P              21      0.09631     -0.04016     -0.02349 *
 * P              22      0.01116     -0.01046      0.00452 *
 * P              23     -0.01200      0.01855     -0.00304 *
 * P              24      0.03664      0.00707      0.01284 *
 * P              25     -0.01674      0.00815      0.01010 *
 * P              26      0.02515     -0.02287      0.01738 *
 * P              27      0.02995     -0.03889     -0.00453 *
 * P              28      0.00844     -0.02203      0.00781 *
 * P              29     -0.00852     -0.00170     -0.01203 *
 * P              30     -0.00903     -0.00580     -0.00383 *
 * P              31     -0.01906     -0.03023     -0.02072 *
 * P              32      0.00772     -0.03101     -0.01302 *
 * P              33     -0.03455     -0.18750      0.04013 *
 * In              1     -0.00119      0.01135      0.02308 *
 * In              2     -0.09081      0.11767     -0.06796 *
 * In              3     -0.02849     -0.05305      0.02215 *
 * In              4     -0.03449      0.01981     -0.10791 *
 * In              5      0.02075      0.11307     -0.03984 *
 * In              6      0.01228      0.04467     -0.00282 *
 * In              7     -0.00691     -0.04876      0.00314 *
 * In              8     -0.04436     -0.00267      0.06094 *
 * In              9     -0.02900      0.01027     -0.05741 *
 * In             10      0.00984      0.01624      0.01097 *
 * In             11      0.00307      0.02473     -0.00434 *
 * In             12     -0.01182     -0.02054      0.00175 *
 * In             13     -0.00694      0.01971      0.00452 *
 * In             14      0.02240      0.01099     -0.00766 *
 * In             15     -0.01318     -0.02176      0.00395 *
 * In             16     -0.00639     -0.02658      0.02113 *
 * In             17      0.01161      0.19108     -0.01284 *
 * In             18      0.03309     -0.01529      0.01796 *
 * In             19      0.03623     -0.01478     -0.03832 *
 * In             20     -0.02254      0.01776     -0.03582 *
 * In             21      0.05690      0.00648      0.10108 *
 * In             22     -0.00696      0.11159      0.00082 *
 * In             23      0.00975     -0.05240      0.01961 *
 * In             24      0.00997     -0.05597      0.01688 *
 * In             25      0.03424     -0.03828      0.01252 *
 * In             26     -0.02338     -0.01544     -0.04585 *
 * In             27      0.02356     -0.01899     -0.02553 *
 * In             28     -0.01172     -0.00610     -0.00061 *
 * In             29      0.00289     -0.02333     -0.00129 *
 * In             30      0.02451      0.01113      0.01168 *
 * In             31     -0.00595      0.01476      0.01704 *
 * In             32      0.02782     -0.00532     -0.01233 *
 *                                                          *
 ************************************************************

 Pseudo atomic calculation performed for P 3s2 3p3

 Converged in 23 iterations to a total energy of -208.0292 eV

 Pseudo atomic calculation performed for In 4d10 5s2 5p1

 Converged in 42 iterations to a total energy of -1747.4501 eV
Charge spilling parameter for spin component 1 = 0.17%
Charge spilling parameter for spin component 2 = 0.18%

                   Orbital Populations                  
  ---------------------------------------------------------------
     Ion    Atom   Orbital              Up        Down      Spin
  ---------------------------------------------------------------
      P     1      S                    0.868     0.868    -0.000
      P     1      Px                   0.661     0.657     0.004
      P     1      Py                   0.644     0.642     0.002
      P     1      Pz                   0.656     0.655     0.001
      P     2      S                    0.890     0.870     0.020
      P     2      Px                   0.762     0.614     0.148
      P     2      Py                   0.757     0.414     0.343
      P     2      Pz                   0.587     0.526     0.060
      P     3      S                    0.869     0.868     0.001
      P     3      Px                   0.655     0.655    -0.000
      P     3      Py                   0.655     0.655    -0.001
      P     3      Pz                   0.649     0.651    -0.001
      P     4      S                    0.867     0.866     0.002
      P     4      Px                   0.646     0.646    -0.000
      P     4      Py                   0.660     0.659     0.001
      P     4      Pz                   0.660     0.655     0.006
      P     5      S                    0.869     0.865     0.004
      P     5      Px                   0.667     0.644     0.023
      P     5      Py                   0.654     0.645     0.009
      P     5      Pz                   0.661     0.648     0.013
      P     6      S                    0.867     0.867    -0.000
      P     6      Px                   0.658     0.658    -0.000
      P     6      Py                   0.657     0.657    -0.000
      P     6      Pz                   0.655     0.655     0.000
      P     7      S                    0.867     0.867    -0.000
      P     7      Px                   0.655     0.655    -0.000
      P     7      Py                   0.658     0.658    -0.000
      P     7      Pz                   0.656     0.656    -0.000
      P     8      S                    0.868     0.867     0.001
      P     8      Px                   0.654     0.651     0.002
      P     8      Py                   0.662     0.653     0.009
      P     8      Pz                   0.662     0.657     0.005
      P     9      S                    0.867     0.867    -0.000
      P     9      Px                   0.657     0.657     0.000
      P     9      Py                   0.657     0.657    -0.000
      P     9      Pz                   0.656     0.656     0.000
      P    10      S                    0.867     0.867    -0.000
      P    10      Px                   0.659     0.659    -0.000
      P    10      Py                   0.655     0.656    -0.000
      P    10      Pz                   0.658     0.658    -0.000
      P    11      S                    0.871     0.870     0.001
      P    11      Px                   0.653     0.652     0.001
      P    11      Py                   0.653     0.652     0.001
      P    11      Pz                   0.642     0.643    -0.000
      P    12      S                    0.869     0.866     0.003
      P    12      Px                   0.651     0.646     0.005
      P    12      Py                   0.667     0.652     0.015
      P    12      Pz                   0.665     0.658     0.007
      P    13      S                    0.867     0.867    -0.000
      P    13      Px                   0.658     0.657     0.000
      P    13      Py                   0.655     0.655    -0.000
      P    13      Pz                   0.657     0.657     0.000
      P    14      S                    0.864     0.863     0.001
      P    14      Px                   0.653     0.651     0.002
      P    14      Py                   0.666     0.661     0.005
      P    14      Pz                   0.665     0.659     0.005
      P    15      S                    0.867     0.867    -0.000
      P    15      Px                   0.655     0.655     0.000
      P    15      Py                   0.657     0.657    -0.000
      P    15      Pz                   0.658     0.658    -0.000
      P    16      S                    0.867     0.865     0.002
      P    16      Px                   0.650     0.648     0.002
      P    16      Py                   0.663     0.658     0.005
      P    16      Pz                   0.661     0.651     0.011
      P    17      S                    0.867     0.865     0.002
      P    17      Px                   0.667     0.657     0.010
      P    17      Py                   0.649     0.646     0.003
      P    17      Pz                   0.663     0.657     0.006
      P    18      S                    0.867     0.867    -0.000
      P    18      Px                   0.656     0.657    -0.000
      P    18      Py                   0.658     0.658    -0.000
      P    18      Pz                   0.658     0.658    -0.000
      P    19      S                    0.868     0.868     0.000
      P    19      Px                   0.662     0.661     0.001
      P    19      Py                   0.660     0.660    -0.000
      P    19      Pz                   0.647     0.647     0.000
      P    20      S                    0.867     0.867     0.000
      P    20      Px                   0.657     0.656     0.000
      P    20      Py                   0.658     0.657     0.000
      P    20      Pz                   0.656     0.656     0.000
      P    21      S                    0.866     0.866     0.000
      P    21      Px                   0.661     0.661    -0.000
      P    21      Py                   0.649     0.649    -0.000
      P    21      Pz                   0.662     0.662    -0.000
      P    22      S                    0.863     0.862     0.001
      P    22      Px                   0.666     0.663     0.003
      P    22      Py                   0.651     0.650     0.001
      P    22      Pz                   0.665     0.662     0.003
      P    23      S                    0.866     0.866     0.000
      P    23      Px                   0.657     0.656     0.000
      P    23      Py                   0.656     0.656     0.000
      P    23      Pz                   0.659     0.658     0.000
      P    24      S                    0.866     0.866    -0.000
      P    24      Px                   0.658     0.658     0.000
      P    24      Py                   0.658     0.658     0.000
      P    24      Pz                   0.655     0.655     0.000
      P    25      S                    0.867     0.867     0.000
      P    25      Px                   0.658     0.657     0.001
      P    25      Py                   0.658     0.658     0.000
      P    25      Pz                   0.656     0.655     0.000
      P    26      S                    0.865     0.865    -0.000
      P    26      Px                   0.658     0.658     0.000
      P    26      Py                   0.659     0.659     0.000
      P    26      Pz                   0.657     0.657     0.000
      P    27      S                    0.868     0.868     0.001
      P    27      Px                   0.660     0.657     0.003
      P    27      Py                   0.659     0.658     0.001
      P    27      Pz                   0.651     0.650     0.001
      P    28      S                    0.866     0.866     0.000
      P    28      Px                   0.659     0.659     0.000
      P    28      Py                   0.658     0.658     0.000
      P    28      Pz                   0.654     0.654     0.000
      P    29      S                    0.867     0.867    -0.000
      P    29      Px                   0.658     0.658     0.000
      P    29      Py                   0.658     0.658    -0.000
      P    29      Pz                   0.655     0.655    -0.000
      P    30      S                    0.868     0.868    -0.000
      P    30      Px                   0.657     0.657     0.000
      P    30      Py                   0.657     0.657    -0.000
      P    30      Pz                   0.656     0.656    -0.000
      P    31      S                    0.867     0.867     0.000
      P    31      Px                   0.658     0.657     0.000
      P    31      Py                   0.656     0.656    -0.000
      P    31      Pz                   0.657     0.656     0.000
      P    32      S                    0.867     0.867    -0.000
      P    32      Px                   0.655     0.655     0.000
      P    32      Py                   0.658     0.658     0.000
      P    32      Pz                   0.657     0.657    -0.000
      P    33      S                    0.884     0.879     0.005
      P    33      Px                   0.713     0.704     0.008
      P    33      Py                   0.703     0.537     0.166
      P    33      Pz                   0.542     0.524     0.018
     In     1      Dzz                  1.000     1.000     0.000
     In     1      Dzy                  0.998     0.998     0.000
     In     1      Dzx                  0.999     0.999     0.000
     In     1      Dxx-yy               1.000     1.000     0.000
     In     1      Dxy                  0.999     0.999     0.000
     In     1      S                    0.706     0.707    -0.001
     In     1      Px                   0.233     0.233    -0.000
     In     1      Py                   0.239     0.239     0.000
     In     1      Pz                   0.242     0.242    -0.000
     In     1      S                   -0.256    -0.258     0.002
     In     2      Dzz                  0.999     0.999     0.000
     In     2      Dzy                  0.999     0.998     0.000
     In     2      Dzx                  0.999     0.999     0.000
     In     2      Dxx-yy               1.000     0.999     0.000
     In     2      Dxy                  0.998     0.998     0.001
     In     2      S                    0.688     0.691    -0.003
     In     2      Px                   0.243     0.244    -0.001
     In     2      Py                   0.237     0.238    -0.001
     In     2      Pz                   0.219     0.226    -0.006
     In     2      S                   -0.257    -0.258     0.001
     In     3      Dzz                  1.000     1.000     0.000
     In     3      Dzy                  0.998     0.998     0.000
     In     3      Dzx                  0.998     0.998    -0.000
     In     3      Dxx-yy               1.000     1.000     0.000
     In     3      Dxy                  0.999     0.999    -0.000
     In     3      S                    0.708     0.708     0.001
     In     3      Px                   0.235     0.236    -0.001
     In     3      Py                   0.240     0.240     0.000
     In     3      Pz                   0.243     0.242     0.001
     In     3      S                   -0.260    -0.264     0.004
     In     4      Dzz                  1.000     0.999     0.000
     In     4      Dzy                  0.998     0.998     0.000
     In     4      Dzx                  0.999     0.999     0.000
     In     4      Dxx-yy               0.999     0.999     0.000
     In     4      Dxy                  0.999     0.998     0.001
     In     4      S                    0.704     0.693     0.011
     In     4      Px                   0.248     0.239     0.009
     In     4      Py                   0.255     0.238     0.016
     In     4      Pz                   0.220     0.234    -0.013
     In     4      S                   -0.262    -0.260    -0.002
     In     5      Dzz                  0.999     0.999     0.000
     In     5      Dzy                  0.998     0.998    -0.000
     In     5      Dzx                  0.998     0.998     0.000
     In     5      Dxx-yy               1.000     0.999     0.000
     In     5      Dxy                  0.998     0.998     0.000
     In     5      S                    0.713     0.714    -0.001
     In     5      Px                   0.239     0.239     0.000
     In     5      Py                   0.252     0.252    -0.001
     In     5      Pz                   0.240     0.241    -0.000
     In     5      S                   -0.270    -0.269    -0.001
     In     6      Dzz                  1.000     1.000    -0.000
     In     6      Dzy                  0.999     0.999     0.000
     In     6      Dzx                  0.999     0.999     0.000
     In     6      Dxx-yy               1.000     1.000     0.000
     In     6      Dxy                  0.998     0.998     0.000
     In     6      S                    0.706     0.707    -0.001
     In     6      Px                   0.242     0.242    -0.001
     In     6      Py                   0.241     0.241     0.000
     In     6      Pz                   0.232     0.232    -0.001
     In     6      S                   -0.257    -0.260     0.002
     In     7      Dzz                  0.999     0.999     0.000
     In     7      Dzy                  0.998     0.998     0.000
     In     7      Dzx                  0.998     0.998     0.000
     In     7      Dxx-yy               0.999     0.999     0.000
     In     7      Dxy                  0.998     0.998     0.000
     In     7      S                    0.714     0.714    -0.000
     In     7      Px                   0.241     0.242    -0.000
     In     7      Py                   0.253     0.249     0.003
     In     7      Pz                   0.239     0.239     0.000
     In     7      S                   -0.273    -0.271    -0.002
     In     8      Dzz                  1.000     1.000     0.000
     In     8      Dzy                  0.999     0.999    -0.000
     In     8      Dzx                  0.999     0.999     0.000
     In     8      Dxx-yy               1.000     1.000     0.000
     In     8      Dxy                  0.998     0.998     0.000
     In     8      S                    0.706     0.705     0.001
     In     8      Px                   0.242     0.242    -0.000
     In     8      Py                   0.240     0.240    -0.000
     In     8      Pz                   0.229     0.231    -0.001
     In     8      S                   -0.250    -0.263     0.013
     In     9      Dzz                  1.000     1.000    -0.000
     In     9      Dzy                  0.998     0.998    -0.000
     In     9      Dzx                  0.998     0.998    -0.000
     In     9      Dxx-yy               1.000     1.000     0.000
     In     9      Dxy                  0.998     0.998    -0.000
     In     9      S                    0.713     0.710     0.002
     In     9      Px                   0.242     0.241     0.001
     In     9      Py                   0.242     0.241     0.001
     In     9      Pz                   0.243     0.241     0.001
     In     9      S                   -0.266    -0.265    -0.000
     In    10      Dzz                  1.000     1.000    -0.000
     In    10      Dzy                  0.999     0.999    -0.000
     In    10      Dzx                  0.999     0.999     0.000
     In    10      Dxx-yy               1.000     1.000     0.000
     In    10      Dxy                  0.999     0.999    -0.000
     In    10      S                    0.708     0.708     0.000
     In    10      Px                   0.239     0.240    -0.000
     In    10      Py                   0.236     0.237    -0.001
     In    10      Pz                   0.240     0.240    -0.000
     In    10      S                   -0.262    -0.259    -0.003
     In    11      Dzz                  1.000     1.000    -0.000
     In    11      Dzy                  0.998     0.998    -0.000
     In    11      Dzx                  0.998     0.998    -0.000
     In    11      Dxx-yy               1.000     1.000    -0.000
     In    11      Dxy                  0.998     0.998    -0.000
     In    11      S                    0.716     0.716     0.001
     In    11      Px                   0.242     0.242     0.000
     In    11      Py                   0.243     0.242     0.001
     In    11      Pz                   0.248     0.247     0.001
     In    11      S                   -0.264    -0.264     0.000
     In    12      Dzz                  1.000     1.000     0.000
     In    12      Dzy                  0.999     0.999     0.000
     In    12      Dzx                  0.998     0.998     0.000
     In    12      Dxx-yy               1.000     1.000     0.000
     In    12      Dxy                  0.999     0.999     0.000
     In    12      S                    0.706     0.707    -0.001
     In    12      Px                   0.238     0.239    -0.000
     In    12      Py                   0.233     0.234    -0.000
     In    12      Pz                   0.241     0.242    -0.000
     In    12      S                   -0.261    -0.253    -0.007
     In    13      Dzz                  1.000     1.000     0.000
     In    13      Dzy                  0.998     0.998     0.000
     In    13      Dzx                  0.998     0.998     0.000
     In    13      Dxx-yy               1.000     1.000     0.000
     In    13      Dxy                  0.998     0.998     0.000
     In    13      S                    0.705     0.705    -0.000
     In    13      Px                   0.242     0.242    -0.000
     In    13      Py                   0.240     0.240    -0.000
     In    13      Pz                   0.242     0.242     0.000
     In    13      S                   -0.266    -0.264    -0.002
     In    14      Dzz                  1.000     1.000     0.000
     In    14      Dzy                  0.998     0.998     0.000
     In    14      Dzx                  0.998     0.998     0.000
     In    14      Dxx-yy               1.000     1.000     0.000
     In    14      Dxy                  0.998     0.998     0.000
     In    14      S                    0.709     0.708     0.001
     In    14      Px                   0.245     0.243     0.003
     In    14      Py                   0.239     0.240    -0.000
     In    14      Pz                   0.241     0.240     0.000
     In    14      S                   -0.267    -0.265    -0.001
     In    15      Dzz                  1.000     1.000     0.000
     In    15      Dzy                  0.998     0.998     0.000
     In    15      Dzx                  0.998     0.998     0.000
     In    15      Dxx-yy               1.000     1.000     0.000
     In    15      Dxy                  0.999     0.999     0.000
     In    15      S                    0.706     0.706    -0.000
     In    15      Px                   0.241     0.242    -0.000
     In    15      Py                   0.240     0.240    -0.000
     In    15      Pz                   0.242     0.242    -0.000
     In    15      S                   -0.265    -0.265    -0.000
     In    16      Dzz                  1.000     1.000     0.000
     In    16      Dzy                  0.998     0.998    -0.000
     In    16      Dzx                  0.998     0.998     0.000
     In    16      Dxx-yy               1.000     1.000     0.000
     In    16      Dxy                  0.998     0.998     0.000
     In    16      S                    0.710     0.707     0.003
     In    16      Px                   0.248     0.244     0.004
     In    16      Py                   0.239     0.239     0.000
     In    16      Pz                   0.241     0.240     0.001
     In    16      S                   -0.267    -0.266    -0.001
     In    17      Dzz                  0.999     0.999     0.000
     In    17      Dzy                  0.998     0.998    -0.000
     In    17      Dzx                  0.998     0.998     0.000
     In    17      Dxx-yy               0.999     0.999     0.000
     In    17      Dxy                  0.998     0.998     0.000
     In    17      S                    0.717     0.715     0.002
     In    17      Px                   0.251     0.248     0.003
     In    17      Py                   0.248     0.252    -0.004
     In    17      Pz                   0.239     0.232     0.007
     In    17      S                   -0.270    -0.269    -0.001
     In    18      Dzz                  1.000     1.000     0.000
     In    18      Dzy                  0.998     0.998    -0.000
     In    18      Dzx                  0.998     0.998    -0.000
     In    18      Dxx-yy               1.000     1.000     0.000
     In    18      Dxy                  0.998     0.998     0.000
     In    18      S                    0.712     0.712    -0.000
     In    18      Px                   0.238     0.239    -0.000
     In    18      Py                   0.240     0.240     0.000
     In    18      Pz                   0.242     0.241     0.001
     In    18      S                   -0.268    -0.272     0.003
     In    19      Dzz                  0.999     0.999     0.000
     In    19      Dzy                  0.998     0.998     0.000
     In    19      Dzx                  0.998     0.998     0.000
     In    19      Dxx-yy               0.999     0.999     0.000
     In    19      Dxy                  0.998     0.998     0.000
     In    19      S                    0.711     0.721    -0.009
     In    19      Px                   0.242     0.251    -0.009
     In    19      Py                   0.246     0.255    -0.009
     In    19      Pz                   0.242     0.244    -0.002
     In    19      S                   -0.267    -0.270     0.004
     In    20      Dzz                  1.000     1.000    -0.000
     In    20      Dzy                  0.998     0.998    -0.000
     In    20      Dzx                  0.998     0.998    -0.000
     In    20      Dxx-yy               1.000     1.000     0.000
     In    20      Dxy                  0.998     0.998    -0.000
     In    20      S                    0.713     0.713     0.000
     In    20      Px                   0.239     0.239     0.000
     In    20      Py                   0.241     0.241     0.000
     In    20      Pz                   0.241     0.241     0.000
     In    20      S                   -0.267    -0.268     0.000
     In    21      Dzz                  1.000     1.000     0.000
     In    21      Dzy                  0.999     0.999     0.000
     In    21      Dzx                  0.999     0.999     0.000
     In    21      Dxx-yy               1.000     1.000     0.000
     In    21      Dxy                  0.998     0.998     0.000
     In    21      S                    0.710     0.710    -0.001
     In    21      Px                   0.239     0.240    -0.001
     In    21      Py                   0.240     0.241    -0.001
     In    21      Pz                   0.234     0.235    -0.001
     In    21      S                   -0.269    -0.265    -0.004
     In    22      Dzz                  1.000     1.000     0.000
     In    22      Dzy                  0.998     0.998     0.000
     In    22      Dzx                  0.998     0.998     0.000
     In    22      Dxx-yy               1.000     1.000     0.000
     In    22      Dxy                  0.998     0.998     0.000
     In    22      S                    0.708     0.708     0.000
     In    22      Px                   0.238     0.239    -0.000
     In    22      Py                   0.248     0.248    -0.000
     In    22      Pz                   0.240     0.240    -0.000
     In    22      S                   -0.263    -0.266     0.003
     In    23      Dzz                  1.000     1.000    -0.000
     In    23      Dzy                  0.999     0.999     0.000
     In    23      Dzx                  0.998     0.998     0.000
     In    23      Dxx-yy               1.000     1.000     0.000
     In    23      Dxy                  0.998     0.998    -0.000
     In    23      S                    0.710     0.710    -0.000
     In    23      Px                   0.240     0.240    -0.000
     In    23      Py                   0.240     0.240    -0.000
     In    23      Pz                   0.237     0.238    -0.000
     In    23      S                   -0.273    -0.272    -0.001
     In    24      Dzz                  1.000     1.000     0.000
     In    24      Dzy                  0.998     0.998     0.000
     In    24      Dzx                  0.998     0.998    -0.000
     In    24      Dxx-yy               1.000     1.000     0.000
     In    24      Dxy                  0.998     0.998     0.000
     In    24      S                    0.711     0.708     0.003
     In    24      Px                   0.237     0.237     0.000
     In    24      Py                   0.250     0.248     0.003
     In    24      Pz                   0.241     0.240     0.001
     In    24      S                   -0.266    -0.265    -0.000
     In    25      Dzz                  1.000     1.000     0.000
     In    25      Dzy                  0.999     0.999     0.000
     In    25      Dzx                  0.998     0.998     0.000
     In    25      Dxx-yy               1.000     1.000    -0.000
     In    25      Dxy                  0.998     0.998     0.000
     In    25      S                    0.713     0.714    -0.001
     In    25      Px                   0.240     0.240    -0.000
     In    25      Py                   0.240     0.240    -0.000
     In    25      Pz                   0.240     0.240     0.000
     In    25      S                   -0.265    -0.268     0.003
     In    26      Dzz                  1.000     1.000    -0.000
     In    26      Dzy                  0.998     0.998    -0.000
     In    26      Dzx                  0.998     0.998    -0.000
     In    26      Dxx-yy               1.000     1.000    -0.000
     In    26      Dxy                  0.998     0.998    -0.000
     In    26      S                    0.706     0.706     0.000
     In    26      Px                   0.240     0.240     0.000
     In    26      Py                   0.240     0.240     0.000
     In    26      Pz                   0.246     0.245     0.000
     In    26      S                   -0.262    -0.261    -0.001
     In    27      Dzz                  1.000     1.000     0.000
     In    27      Dzy                  0.998     0.998     0.000
     In    27      Dzx                  0.998     0.998     0.000
     In    27      Dxx-yy               1.000     1.000    -0.000
     In    27      Dxy                  0.999     0.999     0.000
     In    27      S                    0.712     0.712    -0.000
     In    27      Px                   0.239     0.240    -0.000
     In    27      Py                   0.239     0.240    -0.000
     In    27      Pz                   0.241     0.241     0.001
     In    27      S                   -0.266    -0.272     0.005
     In    28      Dzz                  1.000     1.000     0.000
     In    28      Dzy                  0.998     0.998     0.000
     In    28      Dzx                  0.998     0.998    -0.000
     In    28      Dxx-yy               1.000     1.000    -0.000
     In    28      Dxy                  0.998     0.998    -0.000
     In    28      S                    0.707     0.707     0.000
     In    28      Px                   0.240     0.240    -0.000
     In    28      Py                   0.240     0.240    -0.000
     In    28      Pz                   0.242     0.242     0.001
     In    28      S                   -0.264    -0.264    -0.000
     In    29      Dzz                  0.999     0.999     0.000
     In    29      Dzy                  0.998     0.998    -0.000
     In    29      Dzx                  0.998     0.998     0.000
     In    29      Dxx-yy               1.000     1.000    -0.000
     In    29      Dxy                  0.998     0.998     0.000
     In    29      S                    0.713     0.710     0.003
     In    29      Px                   0.252     0.249     0.003
     In    29      Py                   0.240     0.237     0.003
     In    29      Pz                   0.242     0.241     0.001
     In    29      S                   -0.268    -0.264    -0.004
     In    30      Dzz                  1.000     1.000    -0.000
     In    30      Dzy                  0.998     0.998     0.000
     In    30      Dzx                  0.998     0.998     0.000
     In    30      Dxx-yy               1.000     1.000     0.000
     In    30      Dxy                  0.998     0.998     0.000
     In    30      S                    0.707     0.707    -0.000
     In    30      Px                   0.241     0.241    -0.000
     In    30      Py                   0.241     0.241     0.000
     In    30      Pz                   0.243     0.243    -0.000
     In    30      S                   -0.265    -0.265     0.001
     In    31      Dzz                  0.999     0.999     0.000
     In    31      Dzy                  0.998     0.998    -0.000
     In    31      Dzx                  0.998     0.998     0.000
     In    31      Dxx-yy               1.000     1.000     0.000
     In    31      Dxy                  0.998     0.998     0.000
     In    31      S                    0.712     0.711     0.001
     In    31      Px                   0.251     0.249     0.003
     In    31      Py                   0.242     0.240     0.001
     In    31      Pz                   0.239     0.240    -0.000
     In    31      S                   -0.269    -0.269     0.000
     In    32      Dzz                  1.000     1.000    -0.000
     In    32      Dzy                  0.998     0.998     0.000
     In    32      Dzx                  0.998     0.998     0.000
     In    32      Dxx-yy               1.000     1.000     0.000
     In    32      Dxy                  0.998     0.998    -0.000
     In    32      S                    0.706     0.706     0.000
     In    32      Px                   0.241     0.241    -0.000
     In    32      Py                   0.241     0.241     0.000
     In    32      Pz                   0.243     0.243     0.000
     In    32      S                   -0.265    -0.266     0.001
  ---------------------------------------------------------------
                           Total:     290.995   290.004     0.991
  ---------------------------------------------------------------

     Atomic Populations (Mulliken)
     -----------------------------
Species          Ion Spin      s       p       d       f      Total   Charge(e)   Spin(hbar/2)
==============================================================================================
  P               1   up:     0.868   1.960   0.000   0.000   2.828    -0.650        0.006
                  1   dn:     0.868   1.955   0.000   0.000   2.822
  P               2   up:     0.890   2.105   0.000   0.000   2.995    -0.419        0.571
                  2   dn:     0.870   1.554   0.000   0.000   2.424
  P               3   up:     0.869   1.959   0.000   0.000   2.828    -0.658       -0.001
                  3   dn:     0.868   1.961   0.000   0.000   2.829
  P               4   up:     0.867   1.966   0.000   0.000   2.834    -0.659        0.008
                  4   dn:     0.866   1.959   0.000   0.000   2.825
  P               5   up:     0.869   1.982   0.000   0.000   2.851    -0.654        0.049
                  5   dn:     0.865   1.937   0.000   0.000   2.802
  P               6   up:     0.867   1.971   0.000   0.000   2.838    -0.676       -0.000
                  6   dn:     0.867   1.971   0.000   0.000   2.838
  P               7   up:     0.867   1.969   0.000   0.000   2.836    -0.673       -0.001
                  7   dn:     0.867   1.969   0.000   0.000   2.837
  P               8   up:     0.868   1.978   0.000   0.000   2.846    -0.675        0.018
                  8   dn:     0.867   1.962   0.000   0.000   2.829
  P               9   up:     0.867   1.970   0.000   0.000   2.837    -0.674        0.000
                  9   dn:     0.867   1.970   0.000   0.000   2.837
  P              10   up:     0.867   1.972   0.000   0.000   2.839    -0.678       -0.000
                 10   dn:     0.867   1.972   0.000   0.000   2.839
  P              11   up:     0.871   1.948   0.000   0.000   2.819    -0.637        0.002
                 11   dn:     0.870   1.947   0.000   0.000   2.817
  P              12   up:     0.869   1.983   0.000   0.000   2.851    -0.673        0.030
                 12   dn:     0.866   1.956   0.000   0.000   2.822
  P              13   up:     0.867   1.970   0.000   0.000   2.837    -0.674        0.001
                 13   dn:     0.867   1.969   0.000   0.000   2.837
  P              14   up:     0.864   1.984   0.000   0.000   2.847    -0.681        0.014
                 14   dn:     0.863   1.971   0.000   0.000   2.834
  P              15   up:     0.867   1.970   0.000   0.000   2.837    -0.674       -0.000
                 15   dn:     0.867   1.970   0.000   0.000   2.837
  P              16   up:     0.867   1.974   0.000   0.000   2.841    -0.662        0.020
                 16   dn:     0.865   1.956   0.000   0.000   2.821
  P              17   up:     0.867   1.979   0.000   0.000   2.846    -0.672        0.021
                 17   dn:     0.865   1.961   0.000   0.000   2.825
  P              18   up:     0.867   1.972   0.000   0.000   2.839    -0.678       -0.000
                 18   dn:     0.867   1.973   0.000   0.000   2.839
  P              19   up:     0.868   1.969   0.000   0.000   2.837    -0.674        0.001
                 19   dn:     0.868   1.969   0.000   0.000   2.836
  P              20   up:     0.867   1.971   0.000   0.000   2.837    -0.674        0.001
                 20   dn:     0.867   1.970   0.000   0.000   2.837
  P              21   up:     0.866   1.972   0.000   0.000   2.838    -0.676       -0.000
                 21   dn:     0.866   1.972   0.000   0.000   2.838
  P              22   up:     0.863   1.981   0.000   0.000   2.844    -0.681        0.008
                 22   dn:     0.862   1.974   0.000   0.000   2.836
  P              23   up:     0.866   1.972   0.000   0.000   2.838    -0.675        0.001
                 23   dn:     0.866   1.971   0.000   0.000   2.837
  P              24   up:     0.866   1.971   0.000   0.000   2.838    -0.675        0.001
                 24   dn:     0.866   1.970   0.000   0.000   2.837
  P              25   up:     0.867   1.971   0.000   0.000   2.838    -0.675        0.001
                 25   dn:     0.867   1.970   0.000   0.000   2.837
  P              26   up:     0.865   1.974   0.000   0.000   2.839    -0.678        0.001
                 26   dn:     0.865   1.974   0.000   0.000   2.839
  P              27   up:     0.868   1.971   0.000   0.000   2.839    -0.673        0.005
                 27   dn:     0.868   1.966   0.000   0.000   2.834
  P              28   up:     0.866   1.971   0.000   0.000   2.837    -0.674        0.000
                 28   dn:     0.866   1.971   0.000   0.000   2.837
  P              29   up:     0.867   1.971   0.000   0.000   2.837    -0.675       -0.000
                 29   dn:     0.867   1.971   0.000   0.000   2.837
  P              30   up:     0.868   1.970   0.000   0.000   2.837    -0.674       -0.000
                 30   dn:     0.868   1.970   0.000   0.000   2.837
  P              31   up:     0.867   1.970   0.000   0.000   2.837    -0.674        0.001
                 31   dn:     0.867   1.970   0.000   0.000   2.837
  P              32   up:     0.867   1.970   0.000   0.000   2.837    -0.674        0.000
                 32   dn:     0.867   1.970   0.000   0.000   2.837
  P              33   up:     0.884   1.958   0.000   0.000   2.842    -0.487        0.197
                 33   dn:     0.879   1.766   0.000   0.000   2.645
  In              1   up:     0.451   0.714   4.995   0.000   6.160     0.682        0.001
                  1   dn:     0.449   0.714   4.995   0.000   6.158
  In              2   up:     0.431   0.700   4.995   0.000   6.126     0.739       -0.009
                  2   dn:     0.434   0.708   4.994   0.000   6.135
  In              3   up:     0.448   0.718   4.995   0.000   6.161     0.684        0.005
                  3   dn:     0.444   0.717   4.995   0.000   6.156
  In              4   up:     0.442   0.723   4.995   0.000   6.160     0.703        0.022
                  4   dn:     0.432   0.711   4.994   0.000   6.137
  In              5   up:     0.442   0.731   4.994   0.000   6.167     0.662       -0.003
                  5   dn:     0.444   0.732   4.994   0.000   6.171
  In              6   up:     0.449   0.715   4.995   0.000   6.159     0.683        0.000
                  6   dn:     0.448   0.716   4.995   0.000   6.158
  In              7   up:     0.441   0.733   4.994   0.000   6.168     0.666        0.001
                  7   dn:     0.443   0.730   4.994   0.000   6.167
  In              8   up:     0.456   0.711   4.995   0.000   6.162     0.688        0.012
                  8   dn:     0.442   0.713   4.995   0.000   6.150
  In              9   up:     0.447   0.726   4.995   0.000   6.168     0.670        0.005
                  9   dn:     0.445   0.723   4.995   0.000   6.163
  In             10   up:     0.446   0.715   4.995   0.000   6.156     0.684       -0.004
                 10   dn:     0.449   0.717   4.995   0.000   6.160
  In             11   up:     0.453   0.733   4.994   0.000   6.180     0.643        0.003
                 11   dn:     0.452   0.731   4.994   0.000   6.177
  In             12   up:     0.445   0.713   4.995   0.000   6.153     0.685       -0.009
                 12   dn:     0.453   0.714   4.995   0.000   6.162
  In             13   up:     0.439   0.725   4.995   0.000   6.158     0.681       -0.003
                 13   dn:     0.441   0.725   4.995   0.000   6.161
  In             14   up:     0.442   0.725   4.994   0.000   6.162     0.678        0.002
                 14   dn:     0.443   0.723   4.994   0.000   6.160
  In             15   up:     0.440   0.724   4.995   0.000   6.159     0.682       -0.000
                 15   dn:     0.440   0.724   4.995   0.000   6.159
  In             16   up:     0.443   0.727   4.994   0.000   6.164     0.678        0.007
                 16   dn:     0.441   0.722   4.994   0.000   6.158
  In             17   up:     0.446   0.738   4.993   0.000   6.177     0.653        0.007
                 17   dn:     0.446   0.732   4.993   0.000   6.170
  In             18   up:     0.444   0.721   4.995   0.000   6.159     0.687        0.004
                 18   dn:     0.441   0.719   4.995   0.000   6.154
  In             19   up:     0.445   0.730   4.993   0.000   6.168     0.640       -0.025
                 19   dn:     0.450   0.749   4.992   0.000   6.192
  In             20   up:     0.446   0.721   4.995   0.000   6.161     0.679        0.001
                 20   dn:     0.445   0.721   4.995   0.000   6.160
  In             21   up:     0.440   0.714   4.995   0.000   6.149     0.695       -0.008
                 21   dn:     0.445   0.716   4.995   0.000   6.157
  In             22   up:     0.445   0.726   4.994   0.000   6.165     0.673        0.002
                 22   dn:     0.442   0.726   4.994   0.000   6.163
  In             23   up:     0.437   0.717   4.995   0.000   6.148     0.701       -0.002
                 23   dn:     0.438   0.717   4.995   0.000   6.151
  In             24   up:     0.445   0.728   4.994   0.000   6.167     0.671        0.006
                 24   dn:     0.443   0.724   4.994   0.000   6.161
  In             25   up:     0.449   0.720   4.995   0.000   6.163     0.675        0.002
                 25   dn:     0.446   0.720   4.995   0.000   6.161
  In             26   up:     0.444   0.725   4.994   0.000   6.163     0.673       -0.000
                 26   dn:     0.445   0.724   4.994   0.000   6.163
  In             27   up:     0.446   0.720   4.995   0.000   6.161     0.684        0.005
                 27   dn:     0.441   0.720   4.995   0.000   6.155
  In             28   up:     0.443   0.722   4.995   0.000   6.160     0.681        0.000
                 28   dn:     0.443   0.722   4.995   0.000   6.159
  In             29   up:     0.445   0.734   4.994   0.000   6.173     0.660        0.007
                 29   dn:     0.446   0.727   4.994   0.000   6.166
  In             30   up:     0.442   0.724   4.995   0.000   6.161     0.679        0.001
                 30   dn:     0.441   0.724   4.995   0.000   6.160
  In             31   up:     0.443   0.732   4.994   0.000   6.169     0.666        0.005
                 31   dn:     0.442   0.729   4.994   0.000   6.164
  In             32   up:     0.442   0.725   4.994   0.000   6.161     0.679        0.002
                 32   dn:     0.440   0.725   4.994   0.000   6.160
==============================================================================================

                 Bond                   Population        Spin       Length (A)
================================================================================
              P 2  -- P 33                   0.49        -0.10          2.10092
              P 2  -- In 19                  0.74        -0.01          2.46745
              P 33 -- In 17                  0.73         0.02          2.48560
              P 4  -- In 29                  0.67         0.00          2.51068
              P 16 -- In 31                  0.67         0.00          2.51136
              P 19 -- In 19                  0.68         0.00          2.51479
              P 21 -- In 17                  0.64         0.00          2.51479
              P 5  -- In 7                   0.65         0.00          2.51622
              P 14 -- In 29                  0.67        -0.00          2.51681
              P 14 -- In 31                  0.67        -0.00          2.51910
              P 22 -- In 24                  0.68        -0.00          2.52051
              P 17 -- In 19                  0.62         0.01          2.52173
              P 22 -- In 5                   0.66         0.00          2.52177
              P 12 -- In 2                   0.67        -0.00          2.52224
              P 22 -- In 7                   0.66        -0.00          2.52332
              P 1  -- In 5                   0.63         0.00          2.52545
              P 17 -- In 24                  0.64        -0.00          2.52592
              P 22 -- In 22                  0.67        -0.00          2.52744
              P 33 -- In 4                   0.66         0.05          2.52825
              P 26 -- In 26                  0.68         0.00          2.53227
              P 8  -- In 4                   0.67        -0.01          2.53241
              P 14 -- In 16                  0.68        -0.00          2.53293
              P 26 -- In 11                  0.65        -0.00          2.53350
              P 1  -- In 2                   0.62        -0.00          2.53721
              P 14 -- In 14                  0.67        -0.00          2.53764
              P 27 -- In 17                  0.66        -0.01          2.53804
              P 21 -- In 22                  0.63        -0.00          2.53958
              P 11 -- In 11                  0.60        -0.00          2.54101
              P 12 -- In 16                  0.63        -0.00          2.54278
              P 18 -- In 20                  0.66        -0.00          2.54307
              P 10 -- In 25                  0.66         0.00          2.54335
              P 28 -- In 32                  0.67         0.00          2.54340
              P 26 -- In 28                  0.67         0.00          2.54429
              P 7  -- In 7                   0.66         0.00          2.54517
              P 10 -- In 27                  0.66         0.00          2.54519
              P 7  -- In 13                  0.68        -0.00          2.54543
              P 31 -- In 32                  0.67         0.00          2.54555
              P 24 -- In 30                  0.67        -0.00          2.54561
              P 9  -- In 13                  0.67         0.00          2.54607
              P 5  -- In 4                   0.61        -0.02          2.54626
              P 20 -- In 26                  0.67        -0.00          2.54646
              P 28 -- In 5                   0.66         0.00          2.54657
              P 17 -- In 18                  0.66        -0.00          2.54685
              P 20 -- In 24                  0.66        -0.00          2.54698
              P 15 -- In 15                  0.66         0.00          2.54699
              P 23 -- In 30                  0.66         0.00          2.54708
              P 6  -- In 21                  0.66         0.00          2.54709
              P 26 -- In 9                   0.66        -0.00          2.54721
              P 32 -- In 22                  0.67        -0.00          2.54722
              P 31 -- In 31                  0.65        -0.00          2.54725
              P 32 -- In 28                  0.67        -0.00          2.54750
              P 25 -- In 32                  0.66        -0.00          2.54752
              P 29 -- In 30                  0.67        -0.00          2.54760
              P 18 -- In 18                  0.66        -0.00          2.54790
              P 1  -- In 3                   0.68         0.00          2.54809
              P 24 -- In 20                  0.66        -0.00          2.54818
              P 11 -- In 2                   0.67         0.00          2.54863
              P 23 -- In 24                  0.66         0.00          2.54869
              P 24 -- In 7                   0.66         0.00          2.54911
              P 31 -- In 22                  0.67         0.00          2.54926
              P 5  -- In 1                   0.68         0.00          2.54929
              P 8  -- In 14                  0.63         0.00          2.54942
              P 9  -- In 16                  0.67        -0.00          2.54947
              P 25 -- In 26                  0.66        -0.00          2.54959
              P 23 -- In 23                  0.67         0.00          2.55005
              P 7  -- In 14                  0.67         0.00          2.55008
              P 15 -- In 5                   0.66        -0.00          2.55030
              P 25 -- In 29                  0.65         0.00          2.55035
              P 13 -- In 15                  0.67        -0.00          2.55036
              P 12 -- In 27                  0.66        -0.00          2.55038
              P 29 -- In 25                  0.66         0.00          2.55050
              P 13 -- In 14                  0.67         0.00          2.55064
              P 12 -- In 21                  0.66         0.00          2.55092
              P 29 -- In 31                  0.66         0.00          2.55099
              P 4  -- In 10                  0.68         0.00          2.55101
              P 20 -- In 13                  0.66         0.00          2.55109
              P 15 -- In 16                  0.67         0.00          2.55131
              P 3  -- In 4                   0.66         0.01          2.55156
              P 16 -- In 12                  0.68         0.01          2.55156
              P 13 -- In 9                   0.66         0.00          2.55189
              P 28 -- In 18                  0.66        -0.00          2.55205
              P 23 -- In 29                  0.65        -0.00          2.55209
              P 21 -- In 20                  0.65        -0.00          2.55240
              P 15 -- In 6                   0.66         0.00          2.55245
              P 18 -- In 3                   0.65         0.00          2.55275
              P 3  -- In 9                   0.64        -0.00          2.55302
              P 16 -- In 17                  0.56        -0.01          2.55314
              P 8  -- In 23                  0.68         0.00          2.55325
              P 6  -- In 8                   0.65         0.00          2.55339
              P 16 -- In 6                   0.66        -0.00          2.55374
              P 32 -- In 15                  0.66        -0.00          2.55390
              P 30 -- In 15                  0.66        -0.00          2.55398
              P 6  -- In 23                  0.66        -0.00          2.55401
              P 19 -- In 26                  0.62         0.00          2.55409
              P 18 -- In 1                   0.65         0.00          2.55411
              P 30 -- In 30                  0.66        -0.00          2.55417
              P 9  -- In 11                  0.65         0.00          2.55421
              P 17 -- In 21                  0.68         0.00          2.55478
              P 8  -- In 25                  0.64        -0.00          2.55486
              P 25 -- In 27                  0.66        -0.00          2.55530
              P 29 -- In 28                  0.66        -0.00          2.55555
              P 21 -- In 23                  0.68         0.00          2.55594
              P 4  -- In 8                   0.66        -0.00          2.55606
              P 28 -- In 11                  0.65        -0.00          2.55617
              P 30 -- In 13                  0.66         0.00          2.55679
              P 30 -- In 32                  0.66        -0.00          2.55687
              P 3  -- In 3                   0.66        -0.00          2.55741
              P 10 -- In 10                  0.65        -0.00          2.55750
              P 10 -- In 12                  0.64        -0.00          2.55786
              P 24 -- In 9                   0.65        -0.00          2.55796
              P 5  -- In 6                   0.65        -0.00          2.55826
              P 19 -- In 20                  0.65         0.00          2.55842
              P 27 -- In 18                  0.65         0.00          2.55852
              P 27 -- In 28                  0.64         0.00          2.55899
              P 32 -- In 1                   0.65         0.00          2.55985
              P 2  -- In 2                   0.58         0.01          2.56009
              P 27 -- In 27                  0.66         0.00          2.56031
              P 20 -- In 3                   0.65         0.00          2.56061
              P 1  -- In 8                   0.64        -0.00          2.56064
              P 6  -- In 6                   0.65        -0.00          2.56106
              P 11 -- In 1                   0.66        -0.00          2.56220
              P 9  -- In 10                  0.65        -0.00          2.56418
              P 19 -- In 25                  0.66        -0.00          2.56498
              P 11 -- In 12                  0.65         0.01          2.56516
              P 13 -- In 12                  0.64        -0.00          2.56630
              P 3  -- In 10                  0.65         0.00          2.56701
              P 31 -- In 21                  0.64         0.00          2.56748
              P 4  -- In 19                  0.55         0.00          2.56765
              P 7  -- In 8                   0.64         0.00          2.57042
================================================================================

 Hirshfeld supercell size:           2           2           2
Standard grid dimensions: 240 240 240
Fine grid dimensions:     240 240 240


     Hirshfeld Analysis
     ------------------
Species   Ion     Hirshfeld Charge (e)  Spin (hbar/2)
===================================================
  P        1                -0.24        0.01
  P        2                -0.15        0.43
  P        3                -0.23        0.01
  P        4                -0.24        0.02
  P        5                -0.23        0.04
  P        6                -0.23        0.00
  P        7                -0.24       -0.00
  P        8                -0.23        0.02
  P        9                -0.24        0.00
  P       10                -0.24       -0.00
  P       11                -0.23        0.00
  P       12                -0.23        0.03
  P       13                -0.24        0.00
  P       14                -0.24        0.01
  P       15                -0.24        0.00
  P       16                -0.24        0.02
  P       17                -0.24        0.02
  P       18                -0.24        0.00
  P       19                -0.23        0.00
  P       20                -0.24        0.00
  P       21                -0.24        0.00
  P       22                -0.24        0.01
  P       23                -0.24        0.00
  P       24                -0.24        0.00
  P       25                -0.24        0.00
  P       26                -0.24        0.00
  P       27                -0.23        0.00
  P       28                -0.24        0.00
  P       29                -0.24        0.00
  P       30                -0.24        0.00
  P       31                -0.24        0.00
  P       32                -0.24        0.00
  P       33                -0.18        0.18
  In       1                 0.25        0.00
  In       2                 0.26        0.03
  In       3                 0.25        0.00
  In       4                 0.25        0.05
  In       5                 0.23        0.00
  In       6                 0.25        0.00
  In       7                 0.23        0.01
  In       8                 0.25        0.00
  In       9                 0.24        0.00
  In      10                 0.25        0.00
  In      11                 0.23        0.00
  In      12                 0.25        0.00
  In      13                 0.24        0.00
  In      14                 0.24        0.00
  In      15                 0.24        0.00
  In      16                 0.24        0.01
  In      17                 0.22        0.02
  In      18                 0.24        0.00
  In      19                 0.22        0.02
  In      20                 0.24        0.00
  In      21                 0.25        0.00
  In      22                 0.23        0.00
  In      23                 0.25        0.00
  In      24                 0.23        0.00
  In      25                 0.25        0.00
  In      26                 0.23        0.00
  In      27                 0.25        0.00
  In      28                 0.24        0.00
  In      29                 0.23        0.01
  In      30                 0.24        0.00
  In      31                 0.23        0.01
  In      32                 0.23        0.00
===================================================

 
 A BibTeX formatted list of references used in this run has been written to 
 P_Interstitial_Migration_Dumbbell_Dumbbell+_Singlepoints_2.bib
 
Initialisation time =     30.71 s
Calculation time    =   7861.26 s
Finalisation time   =    164.57 s
Total time          =   8056.55 s
Peak Memory Use     = 9585608 kB
 
Overall parallel efficiency rating: Poor (35%)
 
Data was distributed by:-
G-vector (3-way); efficiency rating: Poor (38%)
k-point (36-way); efficiency rating: Very good (80%)
