 +-------------------------------------------------+
 |                                                 |
 |      CCC   AA    SSS  TTTTT  EEEEE  PPPP        |
 |     C     A  A  S       T    E      P   P       |
 |     C     AAAA   SS     T    EEE    PPPP        |
 |     C     A  A     S    T    E      P           |
 |      CCC  A  A  SSS     T    EEEEE  P           |
 |                                                 |
 +-------------------------------------------------+
 |                                                 |
 | Welcome to Academic Release CASTEP version 24.1 |
 | Ab Initio Total Energy Program                  |
 |                                                 |
 | Authors:                                        |
 | M. Segall, M. Probert, C. Pickard, P. Hasnip,   |
 | S. Clark, K. Refson, J. R. Yates,               |
 | A. Bartok-Partay, M. Payne                      |
 |                                                 |
 | Contributors:                                   |
 | P. Lindan, P. Haynes, J. White, V. Milman,      |
 | N. Govind, M. Gibson, P. Tulip, V. Cocula,      |
 | B. Montanari, D. Quigley, M. Glover,            |
 | L. Bernasconi, A. Perlov, M. Plummer,           |
 | E. McNellis, J. Meyer, J. Gale, D. Jochym       |
 | J. Aarons, B. Walker, R. Gillen, D. Jones       |
 | T. Green, I. J. Bush, C. J. Armstrong,          |
 | E. J. Higgins, E. L. Brown, M. S. McFly,        |
 | J. Wilkins, B-C. Shih, P. J. P. Byrne,          |
 | R. J. Maurer, J. C. Womack, J. Dziedzic,        |
 | L. LeBlanc, T. K. Stenczel, J. Kermode,         |
 | S. Sturniolo, B. Shi, B. Durham, M. Evans,      |
 | M. J. Smith, A. Tamerus, Z. Hawkhead,           |
 | V. Ravindran, T. Hollins, S. A. Joyce,          |
 | R. T. Strong, A. M. Reilly, S. J. Donaldson     |
 |                                                 |
 | Copyright (c) 2000 - 2023                       |
 |                                                 |
 |     Distributed under license from Cambridge    |
 |     Enterprise for academic use only.           |
 |                                                 |
 | Please cite                                     |
 |                                                 |
 |     "First principles methods using CASTEP"     |
 |                                                 |
 |         Zeitschrift fuer Kristallographie       |
 |           220(5-6) pp. 567-570 (2005)           |
 |                                                 |
 | S. J. Clark, M. D. Segall, C. J. Pickard,       |
 | P. J. Hasnip, M. J. Probert, K. Refson,         |
 | M. C. Payne                                     |
 |                                                 |
 |       in all publications arising from          |
 |              your use of CASTEP                 |
 |                                                 |
 +-------------------------------------------------+
 |                                                 |
 |              http://www.castep.org              |
 |                                                 |
 +-------------------------------------------------+



 Compiled for  GNU 11.2.0 on 04-04-2024 18:39:17
 from code version 6355fd106 Castep241_branch Thu Mar 7 17:56:19 2024 +0000
 Compiler: GNU Fortran 11.2.0; Optimisation: FAST
 Comms   : MPI VERSION : CRAY MPICH version 8.1.23.14 (ANL base 3.4a2)
 MATHLIBS: default (LAPACK version 3.10.1)
 FFT Lib : fftw3 version commercial-fftw-3.3.10-sse2-avx-avx2-avx2_128
 Fundamental constants values: CODATA 2018

 Run started: Tue, 29 Apr 2025 16:34:35 +0100

 Atomic calculation performed for P: 1s2 2s2 2p6 3s2 3p3

 Converged in 47 iterations to an ae energy of -9309.074 eV

   ============================================================                
   | Pseudopotential Report - Date of generation 29-04-2025   |                
   ------------------------------------------------------------                
   | Element: P Ionic charge:  5.00 Level of theory: RSCAN    |                
   | Atomic Solver: Koelling-Harmon                           |                
   |                                                          |                
   |               Reference Electronic Structure             |                
   |         Orbital         Occupation         Energy        |                
   |            3s              2.000           -0.535        |                
   |            3p              3.000           -0.209        |                
   |                                                          |                
   |                 Pseudopotential Definition               |                
   |        Beta     l      e      Rc     scheme   norm       |                
   |          1      0   -0.535   1.807     qc      0         |                
   |          2      0    0.250   1.807     qc      0         |                
   |          3      1   -0.209   1.807     qc      0         |                
   |          4      1    0.250   1.807     qc      0         |                
   |          5      2    0.000   1.807     qc      0         |                
   |          6      2    0.250   1.807     qc      0         |                
   |         loc     3    0.000   1.807     pn      0         |                
   |                                                          |                
   | Augmentation charge Rinner = 1.263                       |                
   | Partial core correction Rc = 1.263                       |                
   ------------------------------------------------------------                
   | "3|1.8|4|4|5|30:31:32"                                   |                
   ------------------------------------------------------------                
   |      Author: Chris J. Pickard, Cambridge University      |                
   ============================================================                
 Warning: otfg_output_psp cannot write out meta-GGA pseudopotentials presently.

 Atomic calculation performed for In:
 1s2 2s2 2p6 3s2 3p6 3d10 4s2 4p6 4d10 5s2 5p1

 Converged in 84 iterations to an ae energy of -160093.328 eV

   ============================================================                
   | Pseudopotential Report - Date of generation 29-04-2025   |                
   ------------------------------------------------------------                
   | Element: In Ionic charge: 13.00 Level of theory: RSCAN   |                
   | Atomic Solver: Koelling-Harmon                           |                
   |                                                          |                
   |               Reference Electronic Structure             |                
   |         Orbital         Occupation         Energy        |                
   |            4d             10.000           -0.711        |                
   |            5s              2.000           -0.313        |                
   |            5p              1.000           -0.095        |                
   |                                                          |                
   |                 Pseudopotential Definition               |                
   |        Beta     l      e      Rc     scheme   norm       |                
   |          1      0   -0.313   2.501     qc      0         |                
   |          2      0    0.250   2.501     qc      0         |                
   |          3      1   -0.095   2.501     qc      0         |                
   |          4      1    0.250   2.501     qc      0         |                
   |          5      2   -0.711   2.207     qc      0         |                
   |          6      2    0.250   2.207     qc      0         |                
   |         loc     3    0.000   2.501     pn      0         |                
   |                                                          |                
   | Augmentation charge Rinner = 1.504                       |                
   | Partial core correction Rc = 1.504                       |                
   ------------------------------------------------------------                
   | "3|2.5|2.5|1.5|7|8|9|50:51:42U2.2U2.2"                   |                
   ------------------------------------------------------------                
   |      Author: Chris J. Pickard, Cambridge University      |                
   ============================================================                
 Warning: otfg_output_psp cannot write out meta-GGA pseudopotentials presently.

 Pseudo atomic calculation performed for P 3s2 3p3

 Converged in 23 iterations to a total energy of -208.0292 eV

 Pseudo atomic calculation performed for In 4d10 5s2 5p1

 Converged in 42 iterations to a total energy of -1747.4501 eV
 Calculation parallelised over 108 processes.
 Data is distributed by G-vector(3-way) and k-point(36-way)
 Each process may use up to 16 threads.

 ************************************ Title ************************************
 

 ***************************** General Parameters ******************************
  
 output verbosity                               : normal  (1)
 write checkpoint data to                       : P_Interstitial_Migration_Dumbbell_Dumbbell+_Singlepoints_2.check
 type of calculation                            : single point energy
 stress calculation                             : off
 density difference calculation                 : off
 electron localisation func (ELF) calculation   : off
 Hirshfeld analysis                             : on
 polarisation (Berry phase) analysis            : off
 molecular orbital projected DOS                : off
 deltaSCF calculation                           : off
 unlimited duration calculation
 timing information                             : on
 memory usage estimate                          : on
 write extra output files                       : on
 write final potential to formatted file        : off
 write final density to formatted file          : off
 write BibTeX reference list                    : on
 write OTFG pseudopotential files               : on
 write electrostatic potential file             : on
 write bands file                               : on
 checkpoint writing                             : off
  
 output         length unit                     : A
 output           mass unit                     : amu
 output           time unit                     : ps
 output         charge unit                     : e
 output           spin unit                     : hbar/2
 output         energy unit                     : eV
 output          force unit                     : eV/A
 output       velocity unit                     : A/ps
 output       pressure unit                     : GPa
 output     inv_length unit                     : 1/A
 output      frequency unit                     : cm-1
 output force constant unit                     : eV/A**2
 output         volume unit                     : A**3
 output   IR intensity unit                     : (D/A)**2/amu
 output         dipole unit                     : D
 output         efield unit                     : eV/A/e
 output        entropy unit                     : J/mol/K
 output    efield chi2 unit                     : pm/V
  
 wavefunctions paging                           : none
 random number generator seed                   :  163436040
 data distribution                              : optimal for this architecture
 optimization strategy                          : balance speed and memory

 *********************** Exchange-Correlation Parameters ***********************
  
 using functional                               : RSCAN
 relativistic treatment                         : Koelling-Harmon
 DFT+D: Semi-empirical dispersion correction    : off

 ************************* Pseudopotential Parameters **************************
  
 pseudopotential representation                 : reciprocal space
 <beta|phi> representation                      : reciprocal space
 spin-orbit coupling                            : off

 **************************** Basis Set Parameters *****************************
  
 plane wave basis set cut-off                   :   900.0000   eV
 size of standard grid                          :     2.0000
 size of   fine   gmax                          :    30.7390   1/A
 finite basis set correction                    : none

 **************************** Electronic Parameters ****************************
  
 number of  electrons                           :  581.0    
 net charge of system                           :  0.000    
 net spin   of system                           :  1.000    
 number of  up  spins                           :  291.0    
 number of down spins                           :  290.0    
 treating system as spin-polarized
 number of bands                                :        349

 ********************* Electronic Minimization Parameters **********************
  
 Method: Treating system as metallic with density mixing treatment of electrons,
         and number of  SD  steps               :          1
         and number of  CG  steps               :          4
  
 total energy / atom convergence tol.           : 0.1000E-07   eV
 eigen-energy convergence tolerance             : 0.2234E-08   eV
 max force / atom convergence tol.              : ignored
 convergence tolerance window                   :          3   cycles
 max. number of SCF cycles                      :        100
 number of fixed-spin iterations                :         10
 smearing scheme                                : Gaussian
 smearing width                                 : 0.2000       eV
 Fermi energy convergence tolerance             : 0.2721E-13   eV
 periodic dipole correction                     : NONE

 ************************** Density Mixing Parameters **************************
  
 density-mixing scheme                          : Pulay
 max. length of mixing history                  :         20
 charge density mixing amplitude                : 0.5000    
   spin density mixing amplitude                :  2.000    
 cut-off energy for mixing                      :  900.0       eV

 *********************** Population Analysis Parameters ************************
  
 Population analysis with cutoff                :  3.000       A
 Population analysis output                     : summary and pdos components

 *******************************************************************************
  

                           -------------------------------
                                      Unit Cell
                           -------------------------------
        Real Lattice(A)                      Reciprocal Lattice(1/A)
    11.8016820    -0.0000080    -0.0000080        0.532397442   0.000000361   0.000000361
    -0.0000080    11.8016820    -0.0000080        0.000000361   0.532397442   0.000000361
    -0.0000080    -0.0000080    11.8016820        0.000000361   0.000000361   0.532397442

                       Lattice parameters(A)       Cell Angles
                    a =     11.801682          alpha =   90.000078
                    b =     11.801682          beta  =   90.000078
                    c =     11.801682          gamma =   90.000078

                       Current cell volume =          1643.734705       A**3
                                   density =             2.857097   AMU/A**3
                                           =             4.744322     g/cm^3

                           -------------------------------
                                     Cell Contents
                           -------------------------------
                         Total number of ions in cell =   65
                      Total number of species in cell =    2
                        Max number of any one species =   33

            xxxxxxxxxxxxxxxxxxxxxxxxxxxxxxxxxxxxxxxxxxxxxxxxxxxxxxxxxxxx
            x  Element    Atom        Fractional coordinates of atoms  x
            x            Number           u          v          w      x
            x----------------------------------------------------------x
            x  P            1         0.112840   0.123170   0.384398   x 
            x  P            2         0.351034   0.155105   0.212349   x 
            x  P            3         0.125608   0.371390   0.121051   x 
            x  P            4         0.377769   0.380033   0.378734   x 
            x  P            5         0.116000   0.122602   0.860702   x 
            x  P            6         0.373952   0.123696   0.620955   x 
            x  P            7         0.124264   0.374178   0.621285   x 
            x  P            8         0.375786   0.374825   0.870460   x 
            x  P            9         0.123692   0.621048   0.370358   x 
            x  P           10         0.373733   0.624520   0.122166   x 
            x  P           11         0.121821   0.871966   0.124581   x 
            x  P           12         0.374829   0.865950   0.379873   x 
            x  P           13         0.123982   0.624878   0.875401   x 
            x  P           14         0.371141   0.620850   0.625121   x 
            x  P           15         0.120938   0.870603   0.622227   x 
            x  P           16         0.374756   0.867271   0.862195   x 
            x  P           17         0.632913   0.122507   0.378383   x 
            x  P           18         0.876452   0.123536   0.122157   x 
            x  P           19         0.629623   0.378215   0.119285   x 
            x  P           20         0.875351   0.373706   0.372361   x 
            x  P           21         0.627828   0.127280   0.869063   x 
            x  P           22         0.869162   0.122721   0.625486   x 
            x  P           23         0.625109   0.375734   0.622526   x 
            x  P           24         0.875050   0.375186   0.872191   x 
            x  P           25         0.624014   0.624751   0.372672   x 
            x  P           26         0.872880   0.622888   0.122013   x 
            x  P           27         0.623379   0.874975   0.122776   x 
            x  P           28         0.872649   0.871528   0.371312   x 
            x  P           29         0.624251   0.624335   0.872485   x 
            x  P           30         0.873801   0.623635   0.622559   x 
            x  P           31         0.623777   0.873816   0.621784   x 
            x  P           32         0.874156   0.873170   0.874702   x 
            x  P           33         0.332463   0.073360   0.055504   x 
            x  In           1         0.001661  -0.000415  -0.003464   x 
            x  In           2         0.232395  -0.016213   0.272572   x 
            x  In           3         0.000956   0.247716   0.248083   x 
            x  In           4         0.239491   0.251744  -0.018579   x 
            x  In           5        -0.010168  -0.004923   0.503800   x 
            x  In           6         0.248000  -0.003444   0.743728   x 
            x  In           7        -0.005588   0.251169   0.741773   x 
            x  In           8         0.250368   0.249199   0.495277   x 
            x  In           9        -0.000235   0.498602  -0.000576   x 
            x  In          10         0.251693   0.496198   0.247005   x 
            x  In          11        -0.002759   0.745691   0.246623   x 
            x  In          12         0.251161   0.752363  -0.002737   x 
            x  In          13        -0.000694   0.498975   0.497489   x 
            x  In          14         0.245932   0.498253   0.749738   x 
            x  In          15        -0.002078   0.747259   0.749605   x 
            x  In          16         0.245765   0.742678   0.500596   x 
            x  In          17         0.509853  -0.011304  -0.020154   x 
            x  In          18         0.750955  -0.000732   0.246315   x 
            x  In          19         0.521811   0.264362   0.263530   x 
            x  In          20         0.753049   0.248381  -0.002784   x 
            x  In          21         0.498757  -0.000277   0.495899   x 
            x  In          22         0.748697  -0.004200   0.748990   x 
            x  In          23         0.499331   0.249450   0.744629   x 
            x  In          24         0.752643   0.251058   0.500716   x 
            x  In          25         0.498123   0.500683  -0.002870   x 
            x  In          26         0.751264   0.500743   0.249776   x 
            x  In          27         0.498359   0.748580   0.247030   x 
            x  In          28         0.748671   0.748759  -0.001321   x 
            x  In          29         0.499667   0.503801   0.501545   x 
            x  In          30         0.749228   0.499356   0.748592   x 
            x  In          31         0.500178   0.744171   0.742226   x 
            x  In          32         0.748529   0.748920   0.497841   x 
            xxxxxxxxxxxxxxxxxxxxxxxxxxxxxxxxxxxxxxxxxxxxxxxxxxxxxxxxxxxx


                         No user defined ionic velocities

                           -------------------------------
                                   Details of Species
                           -------------------------------

                               Mass of species in AMU
                                    P   30.9737600
                                    In  114.8180000

                          Electric Quadrupole Moment (Barn)
                                    P    1.0000000 No Isotope Defined
                                    In    0.7700000 Isotope115

                          Files used for pseudopotentials:
                                    P 3|1.8|4|4|5|30:31:32
                                    In 3|2.5|2.5|1.5|7|8|9|50:51:42U2.2U2.2

                           -------------------------------
                              k-Points For BZ Sampling
                           -------------------------------
                       MP grid size for SCF calculation is  4  4  4
                            with an offset of   0.125  0.125  0.125
                       Number of kpoints used =            36

                           -------------------------------
                               Symmetry and Constraints
                           -------------------------------

                      Maximum deviation from symmetry =  0.00000         ANG

                      Number of symmetry operations   =           1
                      Number of ionic constraints     =           3
                      Point group of crystal =     1: C1, 1, 1
                      Space group of crystal =     1: P1, P 1

             Set iprint > 1 for details on symmetry rotations/translations

                         Centre of mass is constrained
             Set iprint > 1 for details of linear ionic constraints

                         Number of cell constraints= 0
                         Cell constraints are:  1 2 3 4 5 6

                         External pressure/stress (GPa)
                          0.00000   0.00000   0.00000
                                    0.00000   0.00000
                                              0.00000
 
+---------------- MEMORY AND SCRATCH DISK ESTIMATES PER PROCESS --------------+
|                                                     Memory          Disk    |
| Baseline code, static data and system overhead      368.0 MB         0.0 MB |
| BLAS internal memory storage                          0.0 MB         0.0 MB |
| Model and support data                             4327.0 MB         0.0 MB |
| Electronic energy minimisation requirements        1337.1 MB         0.0 MB |
| Force calculation requirements                      127.4 MB         0.0 MB |
|                                               ----------------------------- |
| Approx. total storage required per process         6032.2 MB         0.0 MB |
|                                                                             |
| Requirements will fluctuate during execution and may exceed these estimates |
+-----------------------------------------------------------------------------+
Calculating approximate eigenstates for fixed initial Hamiltonian
Cut-off for approx. calculation is   89.988 eV
Improving approx. states at cut-off of  450.000 eV
Resetting cut-off to  900.000 eV
Calculating total energy with cut-off of  900.000 eV.
------------------------------------------------------------------------ <-- SCF
SCF loop      Energy           Fermi           Energy gain       Timer   <-- SCF
                               energy          per atom          (sec)   <-- SCF
------------------------------------------------------------------------ <-- SCF
Initial  -6.32540943E+004  0.00000000E+000                       442.23  <-- SCF
      1  -6.30178758E+004  2.87010437E+000  -3.63413152E+000     893.15  <-- SCF
      2  -6.30181411E+004  2.86982469E+000   4.08175875E-003    1213.28  <-- SCF
      3  -6.30840197E+004  3.20598707E+000   1.01351732E+000    1566.75  <-- SCF
      4  -6.30956059E+004  3.29298093E+000   1.78249206E-001    2068.68  <-- SCF
      5  -6.31018558E+004  3.46141710E+000   9.61516399E-002    2424.10  <-- SCF
      6  -6.30901932E+004  3.67569815E+000  -1.79423409E-001    2769.28  <-- SCF
      7  -6.30888687E+004  3.73181034E+000  -2.03772864E-002    3115.02  <-- SCF
      8  -6.30889777E+004  3.77539732E+000   1.67606828E-003    3488.85  <-- SCF
      9  -6.30898243E+004  3.80408441E+000   1.30244608E-002    3854.41  <-- SCF
     10  -6.30900971E+004  3.76978988E+000   4.19804405E-003    4213.77  <-- SCF
     11  -6.30901016E+004  3.76041242E+000   6.86786137E-005    4582.66  <-- SCF
     12  -6.30901036E+004  3.75368217E+000   3.14684428E-005    4943.01  <-- SCF
     13  -6.30901046E+004  3.75319898E+000   1.51460229E-005    5309.25  <-- SCF
     14  -6.30901048E+004  3.75248610E+000   3.32747196E-006    5673.42  <-- SCF
     15  -6.30901049E+004  3.75174714E+000   8.78630349E-007    6023.47  <-- SCF
     16  -6.30901049E+004  3.75177946E+000   2.67830998E-007    6334.68  <-- SCF
     17  -6.30901049E+004  3.75166824E+000   7.35090876E-008    6626.43  <-- SCF
     18  -6.30901049E+004  3.75174997E+000   2.34133288E-008    6884.35  <-- SCF
     19  -6.30901049E+004  3.75183628E+000   9.61845271E-009    7142.88  <-- SCF
     20  -6.30901049E+004  3.75185756E+000   3.79377178E-009    7395.48  <-- SCF
     21  -6.30901049E+004  3.75185949E+000   6.23284264E-010    7639.96  <-- SCF
------------------------------------------------------------------------ <-- SCF
 
Integrated Spin Density     =    0.990843     hbar/2
Integrated |Spin Density|   =     1.15509     hbar/2
 
Final energy, E             =  -63090.08614001     eV
Final free energy (E-TS)    =  -63090.10491973     eV
(energies not corrected for finite basis set)
 
NB est. 0K energy (E-0.5TS)      =  -63090.09552987     eV
 

 ************************** Forces **************************
 *                                                          *
 *               Cartesian components (eV/A)                *
 * -------------------------------------------------------- *
 *                         x            y            z      *
 *                                                          *
 * P               1     -0.09516     -0.09676      0.05787 *
 * P               2     -0.00184      0.12117     -0.09076 *
 * P               3      0.06186     -0.01311      0.06626 *
 * P               4      0.00190      0.03175     -0.00604 *
 * P               5     -0.01415      0.02771      0.04159 *
 * P               6     -0.01467     -0.00561      0.01703 *
 * P               7     -0.00041     -0.01351      0.00505 *
 * P               8     -0.01044      0.02901      0.03588 *
 * P               9      0.00132      0.00611     -0.01008 *
 * P              10     -0.02465     -0.01080     -0.00619 *
 * P              11      0.01260     -0.03407      0.03101 *
 * P              12      0.01989      0.05204     -0.06579 *
 * P              13     -0.00722     -0.02663      0.01923 *
 * P              14      0.01277      0.03251     -0.02116 *
 * P              15      0.01767      0.01150     -0.01594 *
 * P              16     -0.00628     -0.04528      0.05247 *
 * P              17     -0.02531      0.00047     -0.01327 *
 * P              18     -0.00918     -0.00078     -0.00449 *
 * P              19     -0.04110     -0.03822      0.04892 *
 * P              20      0.01277      0.01531     -0.01125 *
 * P              21      0.09693     -0.04021     -0.02602 *
 * P              22      0.01233     -0.01042      0.00397 *
 * P              23     -0.01132      0.01838     -0.00328 *
 * P              24      0.03604      0.00879      0.01345 *
 * P              25     -0.01621      0.00885      0.00699 *
 * P              26      0.02298     -0.02172      0.01662 *
 * P              27      0.02661     -0.03546     -0.00739 *
 * P              28      0.00731     -0.02330      0.00733 *
 * P              29     -0.00886     -0.00192     -0.00870 *
 * P              30     -0.00927     -0.00562     -0.00355 *
 * P              31     -0.02015     -0.02822     -0.02059 *
 * P              32      0.00618     -0.02891     -0.00898 *
 * P              33     -0.03584     -0.19079      0.00332 *
 * In              1     -0.00450      0.00548      0.01797 *
 * In              2     -0.09052      0.11622     -0.06043 *
 * In              3     -0.02830     -0.04755      0.02319 *
 * In              4     -0.02830      0.02035     -0.09595 *
 * In              5      0.02381      0.11328     -0.03791 *
 * In              6      0.01331      0.04691     -0.00418 *
 * In              7     -0.00555     -0.04867      0.00128 *
 * In              8     -0.03826     -0.00662      0.05246 *
 * In              9     -0.02461      0.00764     -0.05431 *
 * In             10      0.01013      0.00698      0.01003 *
 * In             11      0.00524      0.02586     -0.00598 *
 * In             12     -0.01366     -0.02044      0.00327 *
 * In             13     -0.00771      0.02019      0.00583 *
 * In             14      0.02329      0.01031     -0.00955 *
 * In             15     -0.01286     -0.02073      0.00270 *
 * In             16     -0.00525     -0.02508      0.02338 *
 * In             17      0.00754      0.18491     -0.01858 *
 * In             18      0.03276     -0.01503      0.01894 *
 * In             19      0.02613     -0.01119     -0.03224 *
 * In             20     -0.02523      0.01729     -0.03536 *
 * In             21      0.05833      0.00981      0.09892 *
 * In             22     -0.00704      0.11133     -0.00081 *
 * In             23      0.00938     -0.05336      0.02283 *
 * In             24      0.00755     -0.05682      0.01659 *
 * In             25      0.03712     -0.03168      0.00863 *
 * In             26     -0.02393     -0.01644     -0.04541 *
 * In             27      0.02652     -0.02573     -0.02214 *
 * In             28     -0.01231     -0.00469      0.00122 *
 * In             29      0.00231     -0.02386      0.00005 *
 * In             30      0.02477      0.01161      0.00853 *
 * In             31     -0.00549      0.01332      0.01409 *
 * In             32      0.02823     -0.00588     -0.01059 *
 *                                                          *
 ************************************************************

 Pseudo atomic calculation performed for P 3s2 3p3

 Converged in 23 iterations to a total energy of -208.0292 eV

 Pseudo atomic calculation performed for In 4d10 5s2 5p1

 Converged in 42 iterations to a total energy of -1747.4501 eV
Charge spilling parameter for spin component 1 = 0.17%
Charge spilling parameter for spin component 2 = 0.18%

                   Orbital Populations                  
  ---------------------------------------------------------------
     Ion    Atom   Orbital              Up        Down      Spin
  ---------------------------------------------------------------
      P     1      S                    0.868     0.868    -0.000
      P     1      Px                   0.661     0.657     0.003
      P     1      Py                   0.644     0.642     0.002
      P     1      Pz                   0.656     0.655     0.001
      P     2      S                    0.890     0.869     0.020
      P     2      Px                   0.762     0.613     0.150
      P     2      Py                   0.757     0.413     0.344
      P     2      Pz                   0.587     0.527     0.060
      P     3      S                    0.869     0.868     0.001
      P     3      Px                   0.655     0.655    -0.000
      P     3      Py                   0.655     0.655    -0.001
      P     3      Pz                   0.649     0.650    -0.001
      P     4      S                    0.868     0.866     0.002
      P     4      Px                   0.646     0.646     0.000
      P     4      Py                   0.660     0.658     0.001
      P     4      Pz                   0.660     0.654     0.006
      P     5      S                    0.869     0.865     0.004
      P     5      Px                   0.667     0.644     0.023
      P     5      Py                   0.654     0.645     0.009
      P     5      Pz                   0.661     0.648     0.013
      P     6      S                    0.867     0.867    -0.000
      P     6      Px                   0.658     0.658    -0.000
      P     6      Py                   0.657     0.657    -0.000
      P     6      Pz                   0.656     0.656     0.000
      P     7      S                    0.867     0.867    -0.000
      P     7      Px                   0.655     0.655    -0.000
      P     7      Py                   0.658     0.658    -0.000
      P     7      Pz                   0.656     0.656    -0.000
      P     8      S                    0.868     0.867     0.001
      P     8      Px                   0.654     0.651     0.002
      P     8      Py                   0.662     0.653     0.009
      P     8      Pz                   0.662     0.657     0.004
      P     9      S                    0.867     0.867    -0.000
      P     9      Px                   0.657     0.657     0.000
      P     9      Py                   0.657     0.657    -0.000
      P     9      Pz                   0.656     0.656     0.000
      P    10      S                    0.867     0.867    -0.000
      P    10      Px                   0.659     0.659    -0.000
      P    10      Py                   0.655     0.655    -0.000
      P    10      Pz                   0.658     0.658    -0.000
      P    11      S                    0.871     0.870     0.001
      P    11      Px                   0.653     0.652     0.000
      P    11      Py                   0.653     0.652     0.001
      P    11      Pz                   0.643     0.643    -0.000
      P    12      S                    0.868     0.866     0.003
      P    12      Px                   0.651     0.646     0.005
      P    12      Py                   0.667     0.652     0.015
      P    12      Pz                   0.665     0.658     0.007
      P    13      S                    0.867     0.867    -0.000
      P    13      Px                   0.658     0.657     0.000
      P    13      Py                   0.655     0.655    -0.000
      P    13      Pz                   0.657     0.657     0.000
      P    14      S                    0.864     0.863     0.001
      P    14      Px                   0.653     0.651     0.002
      P    14      Py                   0.666     0.661     0.005
      P    14      Pz                   0.664     0.659     0.005
      P    15      S                    0.867     0.867    -0.000
      P    15      Px                   0.655     0.655     0.000
      P    15      Py                   0.657     0.657    -0.000
      P    15      Pz                   0.658     0.658    -0.000
      P    16      S                    0.867     0.865     0.002
      P    16      Px                   0.650     0.648     0.002
      P    16      Py                   0.663     0.658     0.005
      P    16      Pz                   0.661     0.651     0.011
      P    17      S                    0.867     0.865     0.002
      P    17      Px                   0.667     0.657     0.010
      P    17      Py                   0.649     0.646     0.003
      P    17      Pz                   0.663     0.657     0.006
      P    18      S                    0.867     0.867    -0.000
      P    18      Px                   0.656     0.657    -0.000
      P    18      Py                   0.658     0.658    -0.000
      P    18      Pz                   0.658     0.658    -0.000
      P    19      S                    0.868     0.868     0.000
      P    19      Px                   0.662     0.661     0.001
      P    19      Py                   0.660     0.660    -0.000
      P    19      Pz                   0.647     0.647     0.000
      P    20      S                    0.867     0.867     0.000
      P    20      Px                   0.657     0.656     0.000
      P    20      Py                   0.658     0.657     0.000
      P    20      Pz                   0.656     0.656     0.000
      P    21      S                    0.866     0.866    -0.000
      P    21      Px                   0.661     0.661    -0.000
      P    21      Py                   0.649     0.649    -0.000
      P    21      Pz                   0.661     0.662    -0.000
      P    22      S                    0.863     0.862     0.001
      P    22      Px                   0.666     0.663     0.003
      P    22      Py                   0.651     0.650     0.001
      P    22      Pz                   0.665     0.662     0.003
      P    23      S                    0.866     0.866     0.000
      P    23      Px                   0.657     0.656     0.000
      P    23      Py                   0.656     0.656     0.000
      P    23      Pz                   0.658     0.658     0.000
      P    24      S                    0.866     0.866     0.000
      P    24      Px                   0.658     0.658     0.000
      P    24      Py                   0.658     0.658     0.000
      P    24      Pz                   0.655     0.655     0.000
      P    25      S                    0.867     0.867     0.000
      P    25      Px                   0.658     0.657     0.001
      P    25      Py                   0.658     0.658     0.000
      P    25      Pz                   0.656     0.656     0.000
      P    26      S                    0.865     0.865    -0.000
      P    26      Px                   0.658     0.658     0.000
      P    26      Py                   0.659     0.659     0.000
      P    26      Pz                   0.657     0.657     0.000
      P    27      S                    0.868     0.868     0.001
      P    27      Px                   0.660     0.657     0.003
      P    27      Py                   0.659     0.658     0.001
      P    27      Pz                   0.651     0.651     0.001
      P    28      S                    0.866     0.866     0.000
      P    28      Px                   0.659     0.659     0.000
      P    28      Py                   0.658     0.658     0.000
      P    28      Pz                   0.654     0.654     0.000
      P    29      S                    0.867     0.867    -0.000
      P    29      Px                   0.658     0.658     0.000
      P    29      Py                   0.658     0.658    -0.000
      P    29      Pz                   0.655     0.655    -0.000
      P    30      S                    0.868     0.868    -0.000
      P    30      Px                   0.657     0.657     0.000
      P    30      Py                   0.657     0.657     0.000
      P    30      Pz                   0.656     0.656    -0.000
      P    31      S                    0.867     0.867     0.000
      P    31      Px                   0.658     0.657     0.000
      P    31      Py                   0.656     0.656    -0.000
      P    31      Pz                   0.656     0.656     0.000
      P    32      S                    0.867     0.867    -0.000
      P    32      Px                   0.655     0.655     0.000
      P    32      Py                   0.658     0.658     0.000
      P    32      Pz                   0.657     0.657    -0.000
      P    33      S                    0.884     0.879     0.005
      P    33      Px                   0.712     0.704     0.008
      P    33      Py                   0.703     0.538     0.165
      P    33      Pz                   0.542     0.525     0.017
     In     1      Dzz                  1.000     1.000     0.000
     In     1      Dzy                  0.998     0.998     0.000
     In     1      Dzx                  0.999     0.999     0.000
     In     1      Dxx-yy               1.000     1.000     0.000
     In     1      Dxy                  0.999     0.999     0.000
     In     1      S                    0.706     0.707    -0.001
     In     1      Px                   0.233     0.233    -0.000
     In     1      Py                   0.239     0.239     0.000
     In     1      Pz                   0.242     0.242    -0.000
     In     1      S                   -0.256    -0.258     0.002
     In     2      Dzz                  0.999     0.999     0.000
     In     2      Dzy                  0.999     0.998     0.000
     In     2      Dzx                  0.999     0.999     0.000
     In     2      Dxx-yy               1.000     0.999     0.000
     In     2      Dxy                  0.998     0.998     0.001
     In     2      S                    0.688     0.691    -0.003
     In     2      Px                   0.243     0.244    -0.001
     In     2      Py                   0.237     0.238    -0.001
     In     2      Pz                   0.220     0.226    -0.006
     In     2      S                   -0.257    -0.258     0.001
     In     3      Dzz                  1.000     1.000     0.000
     In     3      Dzy                  0.998     0.998     0.000
     In     3      Dzx                  0.998     0.998    -0.000
     In     3      Dxx-yy               1.000     1.000     0.000
     In     3      Dxy                  0.999     0.999    -0.000
     In     3      S                    0.708     0.708     0.001
     In     3      Px                   0.235     0.236    -0.001
     In     3      Py                   0.240     0.240     0.000
     In     3      Pz                   0.243     0.242     0.000
     In     3      S                   -0.260    -0.264     0.004
     In     4      Dzz                  1.000     0.999     0.000
     In     4      Dzy                  0.998     0.998     0.000
     In     4      Dzx                  0.999     0.999     0.000
     In     4      Dxx-yy               0.999     0.999     0.000
     In     4      Dxy                  0.999     0.998     0.001
     In     4      S                    0.704     0.693     0.011
     In     4      Px                   0.248     0.239     0.009
     In     4      Py                   0.255     0.238     0.016
     In     4      Pz                   0.220     0.233    -0.013
     In     4      S                   -0.262    -0.260    -0.002
     In     5      Dzz                  0.999     0.999     0.000
     In     5      Dzy                  0.998     0.998     0.000
     In     5      Dzx                  0.998     0.998     0.000
     In     5      Dxx-yy               1.000     0.999     0.000
     In     5      Dxy                  0.998     0.998    -0.000
     In     5      S                    0.713     0.714    -0.001
     In     5      Px                   0.239     0.239     0.000
     In     5      Py                   0.252     0.252    -0.001
     In     5      Pz                   0.240     0.241    -0.000
     In     5      S                   -0.270    -0.269    -0.001
     In     6      Dzz                  1.000     1.000     0.000
     In     6      Dzy                  0.999     0.999     0.000
     In     6      Dzx                  0.999     0.999     0.000
     In     6      Dxx-yy               1.000     1.000     0.000
     In     6      Dxy                  0.998     0.998     0.000
     In     6      S                    0.706     0.707    -0.001
     In     6      Px                   0.242     0.242    -0.001
     In     6      Py                   0.241     0.241     0.000
     In     6      Pz                   0.232     0.232    -0.001
     In     6      S                   -0.257    -0.259     0.002
     In     7      Dzz                  0.999     0.999     0.000
     In     7      Dzy                  0.998     0.998     0.000
     In     7      Dzx                  0.998     0.998     0.000
     In     7      Dxx-yy               0.999     0.999     0.000
     In     7      Dxy                  0.998     0.998     0.000
     In     7      S                    0.714     0.714    -0.000
     In     7      Px                   0.241     0.241    -0.000
     In     7      Py                   0.253     0.249     0.003
     In     7      Pz                   0.239     0.239     0.000
     In     7      S                   -0.273    -0.271    -0.002
     In     8      Dzz                  1.000     1.000     0.000
     In     8      Dzy                  0.999     0.999    -0.000
     In     8      Dzx                  0.999     0.999     0.000
     In     8      Dxx-yy               1.000     1.000     0.000
     In     8      Dxy                  0.998     0.998     0.000
     In     8      S                    0.706     0.705     0.001
     In     8      Px                   0.242     0.242    -0.000
     In     8      Py                   0.240     0.240    -0.000
     In     8      Pz                   0.229     0.231    -0.001
     In     8      S                   -0.250    -0.263     0.013
     In     9      Dzz                  1.000     1.000    -0.000
     In     9      Dzy                  0.998     0.998    -0.000
     In     9      Dzx                  0.998     0.998    -0.000
     In     9      Dxx-yy               1.000     1.000     0.000
     In     9      Dxy                  0.998     0.998     0.000
     In     9      S                    0.713     0.710     0.002
     In     9      Px                   0.242     0.241     0.001
     In     9      Py                   0.242     0.241     0.001
     In     9      Pz                   0.243     0.241     0.001
     In     9      S                   -0.266    -0.265    -0.000
     In    10      Dzz                  1.000     1.000     0.000
     In    10      Dzy                  0.999     0.999    -0.000
     In    10      Dzx                  0.999     0.999     0.000
     In    10      Dxx-yy               1.000     1.000     0.000
     In    10      Dxy                  0.999     0.999     0.000
     In    10      S                    0.708     0.708     0.000
     In    10      Px                   0.239     0.240    -0.000
     In    10      Py                   0.236     0.237    -0.001
     In    10      Pz                   0.240     0.240    -0.000
     In    10      S                   -0.262    -0.259    -0.003
     In    11      Dzz                  1.000     1.000    -0.000
     In    11      Dzy                  0.998     0.998    -0.000
     In    11      Dzx                  0.998     0.998    -0.000
     In    11      Dxx-yy               1.000     1.000    -0.000
     In    11      Dxy                  0.998     0.998    -0.000
     In    11      S                    0.717     0.716     0.001
     In    11      Px                   0.242     0.242     0.000
     In    11      Py                   0.243     0.242     0.001
     In    11      Pz                   0.248     0.247     0.001
     In    11      S                   -0.264    -0.264     0.000
     In    12      Dzz                  1.000     1.000     0.000
     In    12      Dzy                  0.999     0.999     0.000
     In    12      Dzx                  0.998     0.998     0.000
     In    12      Dxx-yy               1.000     1.000     0.000
     In    12      Dxy                  0.999     0.999     0.000
     In    12      S                    0.706     0.707    -0.001
     In    12      Px                   0.238     0.239    -0.000
     In    12      Py                   0.234     0.234    -0.000
     In    12      Pz                   0.241     0.242    -0.000
     In    12      S                   -0.261    -0.253    -0.007
     In    13      Dzz                  1.000     1.000     0.000
     In    13      Dzy                  0.998     0.998     0.000
     In    13      Dzx                  0.998     0.998     0.000
     In    13      Dxx-yy               1.000     1.000     0.000
     In    13      Dxy                  0.998     0.998    -0.000
     In    13      S                    0.705     0.705    -0.000
     In    13      Px                   0.242     0.242    -0.000
     In    13      Py                   0.240     0.240    -0.000
     In    13      Pz                   0.242     0.242     0.000
     In    13      S                   -0.266    -0.264    -0.002
     In    14      Dzz                  1.000     1.000     0.000
     In    14      Dzy                  0.998     0.998     0.000
     In    14      Dzx                  0.998     0.998     0.000
     In    14      Dxx-yy               1.000     1.000     0.000
     In    14      Dxy                  0.998     0.998     0.000
     In    14      S                    0.709     0.708     0.001
     In    14      Px                   0.245     0.243     0.003
     In    14      Py                   0.239     0.240    -0.000
     In    14      Pz                   0.241     0.240     0.000
     In    14      S                   -0.267    -0.265    -0.001
     In    15      Dzz                  1.000     1.000     0.000
     In    15      Dzy                  0.998     0.998     0.000
     In    15      Dzx                  0.998     0.998     0.000
     In    15      Dxx-yy               1.000     1.000     0.000
     In    15      Dxy                  0.999     0.999    -0.000
     In    15      S                    0.706     0.706    -0.000
     In    15      Px                   0.242     0.242    -0.000
     In    15      Py                   0.240     0.240    -0.000
     In    15      Pz                   0.242     0.242    -0.000
     In    15      S                   -0.265    -0.265    -0.000
     In    16      Dzz                  1.000     1.000     0.000
     In    16      Dzy                  0.998     0.998    -0.000
     In    16      Dzx                  0.998     0.998     0.000
     In    16      Dxx-yy               1.000     1.000     0.000
     In    16      Dxy                  0.998     0.998     0.000
     In    16      S                    0.710     0.707     0.003
     In    16      Px                   0.248     0.244     0.004
     In    16      Py                   0.239     0.239     0.000
     In    16      Pz                   0.241     0.240     0.001
     In    16      S                   -0.267    -0.266    -0.001
     In    17      Dzz                  0.999     0.999     0.000
     In    17      Dzy                  0.998     0.998    -0.000
     In    17      Dzx                  0.998     0.998     0.000
     In    17      Dxx-yy               0.999     0.999     0.000
     In    17      Dxy                  0.998     0.998     0.000
     In    17      S                    0.717     0.714     0.002
     In    17      Px                   0.251     0.248     0.003
     In    17      Py                   0.248     0.252    -0.004
     In    17      Pz                   0.239     0.232     0.007
     In    17      S                   -0.270    -0.269    -0.001
     In    18      Dzz                  1.000     1.000     0.000
     In    18      Dzy                  0.998     0.998    -0.000
     In    18      Dzx                  0.998     0.998     0.000
     In    18      Dxx-yy               1.000     1.000     0.000
     In    18      Dxy                  0.998     0.998     0.000
     In    18      S                    0.712     0.712    -0.000
     In    18      Px                   0.238     0.239    -0.000
     In    18      Py                   0.240     0.240     0.000
     In    18      Pz                   0.242     0.241     0.001
     In    18      S                   -0.268    -0.272     0.003
     In    19      Dzz                  0.999     0.999     0.000
     In    19      Dzy                  0.998     0.998     0.000
     In    19      Dzx                  0.998     0.998     0.000
     In    19      Dxx-yy               0.999     0.999     0.000
     In    19      Dxy                  0.998     0.998     0.000
     In    19      S                    0.711     0.721    -0.009
     In    19      Px                   0.242     0.251    -0.009
     In    19      Py                   0.246     0.255    -0.009
     In    19      Pz                   0.242     0.244    -0.002
     In    19      S                   -0.266    -0.270     0.004
     In    20      Dzz                  1.000     1.000     0.000
     In    20      Dzy                  0.998     0.998    -0.000
     In    20      Dzx                  0.998     0.998    -0.000
     In    20      Dxx-yy               1.000     1.000     0.000
     In    20      Dxy                  0.998     0.998     0.000
     In    20      S                    0.713     0.713     0.000
     In    20      Px                   0.239     0.239     0.000
     In    20      Py                   0.241     0.241     0.000
     In    20      Pz                   0.241     0.241     0.000
     In    20      S                   -0.267    -0.268     0.000
     In    21      Dzz                  1.000     1.000     0.000
     In    21      Dzy                  0.999     0.999    -0.000
     In    21      Dzx                  0.999     0.999     0.000
     In    21      Dxx-yy               1.000     1.000     0.000
     In    21      Dxy                  0.998     0.998     0.000
     In    21      S                    0.710     0.711    -0.001
     In    21      Px                   0.239     0.240    -0.001
     In    21      Py                   0.240     0.241    -0.001
     In    21      Pz                   0.234     0.235    -0.001
     In    21      S                   -0.269    -0.265    -0.004
     In    22      Dzz                  1.000     1.000     0.000
     In    22      Dzy                  0.998     0.998     0.000
     In    22      Dzx                  0.998     0.998    -0.000
     In    22      Dxx-yy               1.000     1.000     0.000
     In    22      Dxy                  0.998     0.998     0.000
     In    22      S                    0.708     0.708     0.000
     In    22      Px                   0.238     0.239    -0.000
     In    22      Py                   0.248     0.248    -0.000
     In    22      Pz                   0.240     0.240    -0.000
     In    22      S                   -0.263    -0.266     0.003
     In    23      Dzz                  1.000     1.000     0.000
     In    23      Dzy                  0.999     0.999     0.000
     In    23      Dzx                  0.998     0.998     0.000
     In    23      Dxx-yy               1.000     1.000     0.000
     In    23      Dxy                  0.998     0.998    -0.000
     In    23      S                    0.710     0.710    -0.000
     In    23      Px                   0.240     0.240    -0.000
     In    23      Py                   0.240     0.240    -0.000
     In    23      Pz                   0.237     0.238    -0.000
     In    23      S                   -0.273    -0.272    -0.001
     In    24      Dzz                  1.000     1.000     0.000
     In    24      Dzy                  0.998     0.998     0.000
     In    24      Dzx                  0.998     0.998    -0.000
     In    24      Dxx-yy               1.000     1.000     0.000
     In    24      Dxy                  0.998     0.998     0.000
     In    24      S                    0.711     0.708     0.003
     In    24      Px                   0.237     0.237     0.000
     In    24      Py                   0.250     0.248     0.003
     In    24      Pz                   0.241     0.240     0.001
     In    24      S                   -0.266    -0.265    -0.000
     In    25      Dzz                  1.000     1.000     0.000
     In    25      Dzy                  0.999     0.999     0.000
     In    25      Dzx                  0.998     0.998     0.000
     In    25      Dxx-yy               1.000     1.000     0.000
     In    25      Dxy                  0.998     0.998     0.000
     In    25      S                    0.713     0.714    -0.001
     In    25      Px                   0.240     0.240    -0.000
     In    25      Py                   0.240     0.240    -0.000
     In    25      Pz                   0.240     0.240     0.000
     In    25      S                   -0.265    -0.268     0.003
     In    26      Dzz                  1.000     1.000     0.000
     In    26      Dzy                  0.998     0.998     0.000
     In    26      Dzx                  0.998     0.998    -0.000
     In    26      Dxx-yy               1.000     1.000    -0.000
     In    26      Dxy                  0.998     0.998    -0.000
     In    26      S                    0.706     0.706     0.000
     In    26      Px                   0.240     0.240     0.000
     In    26      Py                   0.240     0.240     0.000
     In    26      Pz                   0.246     0.245     0.000
     In    26      S                   -0.262    -0.261    -0.001
     In    27      Dzz                  1.000     1.000     0.000
     In    27      Dzy                  0.998     0.998     0.000
     In    27      Dzx                  0.998     0.998     0.000
     In    27      Dxx-yy               1.000     1.000     0.000
     In    27      Dxy                  0.999     0.999     0.000
     In    27      S                    0.712     0.712    -0.000
     In    27      Px                   0.240     0.240    -0.000
     In    27      Py                   0.239     0.240    -0.000
     In    27      Pz                   0.241     0.241     0.001
     In    27      S                   -0.266    -0.272     0.005
     In    28      Dzz                  1.000     1.000     0.000
     In    28      Dzy                  0.998     0.998     0.000
     In    28      Dzx                  0.998     0.998     0.000
     In    28      Dxx-yy               1.000     1.000     0.000
     In    28      Dxy                  0.998     0.998     0.000
     In    28      S                    0.707     0.707     0.000
     In    28      Px                   0.240     0.240    -0.000
     In    28      Py                   0.240     0.240    -0.000
     In    28      Pz                   0.242     0.241     0.001
     In    28      S                   -0.264    -0.264    -0.000
     In    29      Dzz                  0.999     0.999     0.000
     In    29      Dzy                  0.998     0.998    -0.000
     In    29      Dzx                  0.998     0.998     0.000
     In    29      Dxx-yy               1.000     1.000     0.000
     In    29      Dxy                  0.998     0.998     0.000
     In    29      S                    0.713     0.710     0.003
     In    29      Px                   0.252     0.249     0.003
     In    29      Py                   0.240     0.237     0.003
     In    29      Pz                   0.242     0.241     0.001
     In    29      S                   -0.268    -0.264    -0.004
     In    30      Dzz                  1.000     1.000     0.000
     In    30      Dzy                  0.998     0.998     0.000
     In    30      Dzx                  0.998     0.998     0.000
     In    30      Dxx-yy               1.000     1.000     0.000
     In    30      Dxy                  0.998     0.998     0.000
     In    30      S                    0.707     0.707    -0.000
     In    30      Px                   0.241     0.241    -0.000
     In    30      Py                   0.241     0.241     0.000
     In    30      Pz                   0.243     0.243    -0.000
     In    30      S                   -0.265    -0.265     0.001
     In    31      Dzz                  0.999     0.999     0.000
     In    31      Dzy                  0.998     0.998    -0.000
     In    31      Dzx                  0.998     0.998     0.000
     In    31      Dxx-yy               1.000     1.000     0.000
     In    31      Dxy                  0.998     0.998     0.000
     In    31      S                    0.712     0.711     0.001
     In    31      Px                   0.251     0.249     0.003
     In    31      Py                   0.242     0.240     0.001
     In    31      Pz                   0.240     0.240    -0.000
     In    31      S                   -0.269    -0.269     0.000
     In    32      Dzz                  1.000     1.000     0.000
     In    32      Dzy                  0.998     0.998     0.000
     In    32      Dzx                  0.998     0.998     0.000
     In    32      Dxx-yy               1.000     1.000     0.000
     In    32      Dxy                  0.998     0.998    -0.000
     In    32      S                    0.706     0.706     0.000
     In    32      Px                   0.241     0.241    -0.000
     In    32      Py                   0.241     0.241     0.000
     In    32      Pz                   0.243     0.243     0.000
     In    32      S                   -0.265    -0.266     0.001
  ---------------------------------------------------------------
                           Total:     290.995   290.004     0.991
  ---------------------------------------------------------------

     Atomic Populations (Mulliken)
     -----------------------------
Species          Ion Spin      s       p       d       f      Total   Charge(e)   Spin(hbar/2)
==============================================================================================
  P               1   up:     0.868   1.960   0.000   0.000   2.828    -0.651        0.005
                  1   dn:     0.868   1.955   0.000   0.000   2.823
  P               2   up:     0.890   2.106   0.000   0.000   2.996    -0.418        0.574
                  2   dn:     0.869   1.553   0.000   0.000   2.422
  P               3   up:     0.869   1.959   0.000   0.000   2.828    -0.658       -0.001
                  3   dn:     0.868   1.961   0.000   0.000   2.829
  P               4   up:     0.868   1.966   0.000   0.000   2.834    -0.659        0.008
                  4   dn:     0.866   1.959   0.000   0.000   2.825
  P               5   up:     0.869   1.982   0.000   0.000   2.851    -0.654        0.049
                  5   dn:     0.865   1.937   0.000   0.000   2.802
  P               6   up:     0.867   1.970   0.000   0.000   2.838    -0.676       -0.000
                  6   dn:     0.867   1.971   0.000   0.000   2.838
  P               7   up:     0.867   1.969   0.000   0.000   2.836    -0.673       -0.001
                  7   dn:     0.867   1.970   0.000   0.000   2.837
  P               8   up:     0.868   1.978   0.000   0.000   2.846    -0.675        0.018
                  8   dn:     0.867   1.962   0.000   0.000   2.829
  P               9   up:     0.867   1.970   0.000   0.000   2.837    -0.674        0.000
                  9   dn:     0.867   1.970   0.000   0.000   2.837
  P              10   up:     0.867   1.972   0.000   0.000   2.839    -0.678       -0.000
                 10   dn:     0.867   1.972   0.000   0.000   2.839
  P              11   up:     0.871   1.948   0.000   0.000   2.819    -0.637        0.002
                 11   dn:     0.870   1.947   0.000   0.000   2.817
  P              12   up:     0.868   1.983   0.000   0.000   2.851    -0.673        0.030
                 12   dn:     0.866   1.956   0.000   0.000   2.822
  P              13   up:     0.867   1.970   0.000   0.000   2.837    -0.674        0.001
                 13   dn:     0.867   1.969   0.000   0.000   2.837
  P              14   up:     0.864   1.984   0.000   0.000   2.847    -0.681        0.014
                 14   dn:     0.863   1.971   0.000   0.000   2.834
  P              15   up:     0.867   1.970   0.000   0.000   2.837    -0.674       -0.000
                 15   dn:     0.867   1.970   0.000   0.000   2.837
  P              16   up:     0.867   1.974   0.000   0.000   2.841    -0.662        0.020
                 16   dn:     0.865   1.956   0.000   0.000   2.821
  P              17   up:     0.867   1.979   0.000   0.000   2.846    -0.672        0.021
                 17   dn:     0.865   1.960   0.000   0.000   2.825
  P              18   up:     0.867   1.972   0.000   0.000   2.839    -0.678       -0.000
                 18   dn:     0.867   1.973   0.000   0.000   2.839
  P              19   up:     0.868   1.969   0.000   0.000   2.837    -0.674        0.001
                 19   dn:     0.868   1.969   0.000   0.000   2.836
  P              20   up:     0.867   1.971   0.000   0.000   2.837    -0.674        0.001
                 20   dn:     0.867   1.970   0.000   0.000   2.837
  P              21   up:     0.866   1.972   0.000   0.000   2.838    -0.677       -0.000
                 21   dn:     0.866   1.972   0.000   0.000   2.838
  P              22   up:     0.863   1.981   0.000   0.000   2.844    -0.681        0.008
                 22   dn:     0.862   1.974   0.000   0.000   2.836
  P              23   up:     0.866   1.972   0.000   0.000   2.838    -0.675        0.001
                 23   dn:     0.866   1.971   0.000   0.000   2.837
  P              24   up:     0.866   1.971   0.000   0.000   2.838    -0.675        0.001
                 24   dn:     0.866   1.971   0.000   0.000   2.837
  P              25   up:     0.867   1.971   0.000   0.000   2.838    -0.675        0.001
                 25   dn:     0.867   1.970   0.000   0.000   2.837
  P              26   up:     0.865   1.974   0.000   0.000   2.839    -0.678        0.000
                 26   dn:     0.865   1.974   0.000   0.000   2.839
  P              27   up:     0.868   1.971   0.000   0.000   2.839    -0.673        0.005
                 27   dn:     0.868   1.966   0.000   0.000   2.834
  P              28   up:     0.866   1.971   0.000   0.000   2.837    -0.674        0.000
                 28   dn:     0.866   1.971   0.000   0.000   2.837
  P              29   up:     0.867   1.971   0.000   0.000   2.837    -0.675       -0.000
                 29   dn:     0.867   1.971   0.000   0.000   2.837
  P              30   up:     0.868   1.970   0.000   0.000   2.837    -0.674        0.000
                 30   dn:     0.868   1.970   0.000   0.000   2.837
  P              31   up:     0.867   1.970   0.000   0.000   2.837    -0.674        0.001
                 31   dn:     0.867   1.970   0.000   0.000   2.837
  P              32   up:     0.867   1.970   0.000   0.000   2.837    -0.674        0.000
                 32   dn:     0.867   1.970   0.000   0.000   2.837
  P              33   up:     0.884   1.957   0.000   0.000   2.841    -0.487        0.195
                 33   dn:     0.879   1.767   0.000   0.000   2.646
  In              1   up:     0.451   0.714   4.995   0.000   6.160     0.682        0.001
                  1   dn:     0.449   0.714   4.995   0.000   6.159
  In              2   up:     0.431   0.700   4.995   0.000   6.126     0.739       -0.010
                  2   dn:     0.434   0.708   4.994   0.000   6.135
  In              3   up:     0.448   0.718   4.995   0.000   6.161     0.684        0.005
                  3   dn:     0.444   0.717   4.995   0.000   6.156
  In              4   up:     0.442   0.723   4.995   0.000   6.160     0.703        0.023
                  4   dn:     0.433   0.711   4.994   0.000   6.137
  In              5   up:     0.442   0.731   4.994   0.000   6.167     0.662       -0.003
                  5   dn:     0.445   0.732   4.994   0.000   6.171
  In              6   up:     0.449   0.715   4.995   0.000   6.159     0.683        0.000
                  6   dn:     0.448   0.716   4.995   0.000   6.158
  In              7   up:     0.441   0.733   4.994   0.000   6.168     0.666        0.001
                  7   dn:     0.443   0.730   4.994   0.000   6.167
  In              8   up:     0.456   0.711   4.995   0.000   6.162     0.688        0.012
                  8   dn:     0.442   0.713   4.995   0.000   6.150
  In              9   up:     0.447   0.726   4.995   0.000   6.168     0.670        0.005
                  9   dn:     0.445   0.723   4.995   0.000   6.162
  In             10   up:     0.446   0.715   4.995   0.000   6.156     0.683       -0.004
                 10   dn:     0.449   0.717   4.995   0.000   6.160
  In             11   up:     0.453   0.733   4.994   0.000   6.180     0.643        0.003
                 11   dn:     0.452   0.731   4.994   0.000   6.177
  In             12   up:     0.445   0.713   4.995   0.000   6.153     0.685       -0.009
                 12   dn:     0.453   0.714   4.995   0.000   6.162
  In             13   up:     0.439   0.725   4.995   0.000   6.158     0.681       -0.003
                 13   dn:     0.441   0.725   4.995   0.000   6.161
  In             14   up:     0.442   0.725   4.994   0.000   6.162     0.678        0.002
                 14   dn:     0.443   0.723   4.994   0.000   6.160
  In             15   up:     0.440   0.724   4.995   0.000   6.159     0.682       -0.000
                 15   dn:     0.440   0.724   4.995   0.000   6.159
  In             16   up:     0.443   0.727   4.994   0.000   6.164     0.678        0.007
                 16   dn:     0.441   0.722   4.994   0.000   6.158
  In             17   up:     0.447   0.737   4.993   0.000   6.177     0.653        0.008
                 17   dn:     0.445   0.731   4.993   0.000   6.170
  In             18   up:     0.444   0.721   4.995   0.000   6.159     0.687        0.005
                 18   dn:     0.440   0.719   4.995   0.000   6.154
  In             19   up:     0.445   0.730   4.993   0.000   6.168     0.640       -0.025
                 19   dn:     0.451   0.750   4.992   0.000   6.193
  In             20   up:     0.446   0.721   4.995   0.000   6.161     0.679        0.001
                 20   dn:     0.445   0.721   4.995   0.000   6.160
  In             21   up:     0.440   0.714   4.995   0.000   6.149     0.694       -0.008
                 21   dn:     0.446   0.716   4.995   0.000   6.157
  In             22   up:     0.445   0.725   4.994   0.000   6.165     0.673        0.002
                 22   dn:     0.442   0.726   4.994   0.000   6.163
  In             23   up:     0.437   0.717   4.995   0.000   6.148     0.701       -0.002
                 23   dn:     0.438   0.717   4.995   0.000   6.150
  In             24   up:     0.445   0.728   4.994   0.000   6.168     0.671        0.006
                 24   dn:     0.443   0.724   4.994   0.000   6.161
  In             25   up:     0.449   0.720   4.995   0.000   6.163     0.675        0.002
                 25   dn:     0.447   0.720   4.995   0.000   6.161
  In             26   up:     0.444   0.725   4.994   0.000   6.163     0.673       -0.000
                 26   dn:     0.445   0.724   4.994   0.000   6.164
  In             27   up:     0.446   0.720   4.995   0.000   6.161     0.684        0.005
                 27   dn:     0.440   0.720   4.995   0.000   6.155
  In             28   up:     0.443   0.722   4.995   0.000   6.160     0.681        0.000
                 28   dn:     0.443   0.722   4.995   0.000   6.159
  In             29   up:     0.445   0.734   4.994   0.000   6.173     0.660        0.007
                 29   dn:     0.446   0.727   4.994   0.000   6.166
  In             30   up:     0.442   0.724   4.995   0.000   6.161     0.679        0.001
                 30   dn:     0.442   0.724   4.994   0.000   6.160
  In             31   up:     0.443   0.733   4.994   0.000   6.169     0.666        0.005
                 31   dn:     0.442   0.729   4.994   0.000   6.164
  In             32   up:     0.442   0.725   4.994   0.000   6.161     0.679        0.002
                 32   dn:     0.440   0.725   4.994   0.000   6.160
==============================================================================================

                 Bond                   Population        Spin       Length (A)
================================================================================
              P 2  -- P 33                   0.49        -0.10          2.09882
              P 2  -- In 19                  0.74        -0.01          2.46769
              P 33 -- In 17                  0.73         0.02          2.48563
              P 4  -- In 29                  0.67         0.00          2.51074
              P 16 -- In 31                  0.68         0.00          2.51120
              P 19 -- In 19                  0.68         0.00          2.51441
              P 21 -- In 17                  0.64         0.00          2.51452
              P 5  -- In 7                   0.65         0.00          2.51620
              P 14 -- In 29                  0.67        -0.00          2.51712
              P 14 -- In 31                  0.67        -0.00          2.51939
              P 22 -- In 24                  0.68        -0.00          2.52055
              P 17 -- In 19                  0.62         0.01          2.52175
              P 22 -- In 5                   0.66         0.00          2.52185
              P 12 -- In 2                   0.67        -0.00          2.52254
              P 22 -- In 7                   0.66        -0.00          2.52316
              P 1  -- In 5                   0.63         0.00          2.52556
              P 17 -- In 24                  0.64        -0.00          2.52638
              P 22 -- In 22                  0.67        -0.00          2.52771
              P 33 -- In 4                   0.66         0.06          2.52989
              P 26 -- In 26                  0.68         0.00          2.53209
              P 8  -- In 4                   0.67        -0.01          2.53221
              P 14 -- In 16                  0.68        -0.00          2.53304
              P 26 -- In 11                  0.65        -0.00          2.53321
              P 1  -- In 2                   0.62        -0.00          2.53738
              P 14 -- In 14                  0.67        -0.00          2.53768
              P 27 -- In 17                  0.66        -0.01          2.53803
              P 21 -- In 22                  0.63        -0.00          2.53980
              P 11 -- In 11                  0.60        -0.00          2.54106
              P 18 -- In 20                  0.66        -0.00          2.54284
              P 12 -- In 16                  0.63        -0.00          2.54291
              P 10 -- In 25                  0.66         0.00          2.54333
              P 28 -- In 32                  0.67         0.00          2.54348
              P 26 -- In 28                  0.67         0.00          2.54442
              P 5  -- In 4                   0.61        -0.02          2.54492
              P 7  -- In 7                   0.66         0.00          2.54518
              P 10 -- In 27                  0.66         0.00          2.54527
              P 7  -- In 13                  0.68        -0.00          2.54528
              P 31 -- In 32                  0.67         0.00          2.54555
              P 24 -- In 30                  0.67        -0.00          2.54561
              P 9  -- In 13                  0.67         0.00          2.54589
              P 28 -- In 5                   0.66         0.00          2.54624
              P 20 -- In 26                  0.67        -0.00          2.54662
              P 17 -- In 18                  0.66        -0.00          2.54664
              P 15 -- In 15                  0.66         0.00          2.54686
              P 26 -- In 9                   0.66        -0.00          2.54695
              P 20 -- In 24                  0.66        -0.00          2.54695
              P 23 -- In 30                  0.66         0.00          2.54710
              P 32 -- In 22                  0.67        -0.00          2.54714
              P 6  -- In 21                  0.66         0.00          2.54721
              P 29 -- In 30                  0.67        -0.00          2.54732
              P 25 -- In 32                  0.66        -0.00          2.54734
              P 31 -- In 31                  0.65        -0.00          2.54739
              P 32 -- In 28                  0.67        -0.00          2.54750
              P 24 -- In 20                  0.66        -0.00          2.54750
              P 18 -- In 18                  0.66        -0.00          2.54783
              P 1  -- In 3                   0.68        -0.00          2.54795
              P 11 -- In 2                   0.67         0.00          2.54851
              P 24 -- In 7                   0.66         0.00          2.54862
              P 23 -- In 24                  0.66         0.00          2.54891
              P 5  -- In 1                   0.68         0.00          2.54920
              P 9  -- In 16                  0.67        -0.00          2.54920
              P 31 -- In 22                  0.67         0.00          2.54944
              P 8  -- In 14                  0.63         0.00          2.54956
              P 25 -- In 26                  0.66        -0.00          2.54965
              P 23 -- In 23                  0.67         0.00          2.54973
              P 12 -- In 27                  0.66        -0.00          2.54989
              P 13 -- In 15                  0.67        -0.00          2.55016
              P 13 -- In 14                  0.67         0.00          2.55029
              P 7  -- In 14                  0.67         0.00          2.55030
              P 25 -- In 29                  0.65         0.00          2.55034
              P 15 -- In 5                   0.66        -0.00          2.55057
              P 20 -- In 13                  0.66         0.00          2.55074
              P 12 -- In 21                  0.66         0.00          2.55078
              P 29 -- In 31                  0.66         0.00          2.55097
              P 16 -- In 12                  0.68         0.01          2.55098
              P 29 -- In 25                  0.66         0.00          2.55130
              P 15 -- In 16                  0.67         0.00          2.55149
              P 4  -- In 10                  0.68         0.00          2.55151
              P 28 -- In 18                  0.66        -0.00          2.55176
              P 13 -- In 9                   0.66         0.00          2.55193
              P 21 -- In 20                  0.65        -0.00          2.55224
              P 15 -- In 6                   0.66         0.00          2.55231
              P 23 -- In 29                  0.65        -0.00          2.55237
              P 18 -- In 3                   0.65         0.00          2.55253
              P 3  -- In 4                   0.66         0.01          2.55258
              P 3  -- In 9                   0.64        -0.00          2.55344
              P 8  -- In 23                  0.68         0.00          2.55353
              P 16 -- In 6                   0.66        -0.00          2.55355
              P 6  -- In 8                   0.65         0.00          2.55361
              P 32 -- In 15                  0.66        -0.00          2.55367
              P 18 -- In 1                   0.65         0.00          2.55369
              P 6  -- In 23                  0.66        -0.00          2.55389
              P 30 -- In 15                  0.66        -0.00          2.55390
              P 9  -- In 11                  0.65         0.00          2.55407
              P 16 -- In 17                  0.56        -0.01          2.55410
              P 19 -- In 26                  0.62         0.00          2.55412
              P 30 -- In 30                  0.66        -0.00          2.55441
              P 8  -- In 25                  0.64        -0.00          2.55450
              P 17 -- In 21                  0.68         0.00          2.55537
              P 29 -- In 28                  0.66        -0.00          2.55545
              P 28 -- In 11                  0.65        -0.00          2.55597
              P 25 -- In 27                  0.66        -0.00          2.55606
              P 21 -- In 23                  0.68         0.00          2.55639
              P 4  -- In 8                   0.66        -0.00          2.55667
              P 30 -- In 13                  0.66         0.00          2.55675
              P 30 -- In 32                  0.66        -0.00          2.55702
              P 10 -- In 10                  0.65        -0.00          2.55705
              P 10 -- In 12                  0.64        -0.00          2.55768
              P 3  -- In 3                   0.66        -0.00          2.55775
              P 24 -- In 9                   0.65        -0.00          2.55782
              P 27 -- In 18                  0.65         0.00          2.55817
              P 19 -- In 20                  0.64         0.00          2.55831
              P 5  -- In 6                   0.65        -0.00          2.55840
              P 27 -- In 28                  0.64         0.00          2.55933
              P 27 -- In 27                  0.66         0.00          2.55976
              P 2  -- In 2                   0.58         0.01          2.55995
              P 32 -- In 1                   0.65         0.00          2.56077
              P 1  -- In 8                   0.64        -0.00          2.56103
              P 20 -- In 3                   0.65         0.00          2.56113
              P 6  -- In 6                   0.65        -0.00          2.56132
              P 11 -- In 1                   0.66        -0.00          2.56183
              P 9  -- In 10                  0.65        -0.00          2.56365
              P 19 -- In 25                  0.66        -0.00          2.56433
              P 11 -- In 12                  0.65         0.01          2.56517
              P 13 -- In 12                  0.64        -0.00          2.56608
              P 31 -- In 21                  0.64         0.00          2.56750
              P 3  -- In 10                  0.65         0.00          2.56774
              P 4  -- In 19                  0.55         0.00          2.56940
              P 7  -- In 8                   0.64         0.00          2.56941
================================================================================

 Hirshfeld supercell size:           2           2           2
Standard grid dimensions: 240 240 240
Fine grid dimensions:     240 240 240


     Hirshfeld Analysis
     ------------------
Species   Ion     Hirshfeld Charge (e)  Spin (hbar/2)
===================================================
  P        1                -0.24        0.01
  P        2                -0.15        0.43
  P        3                -0.23        0.01
  P        4                -0.24        0.02
  P        5                -0.23        0.04
  P        6                -0.23        0.00
  P        7                -0.24       -0.00
  P        8                -0.23        0.02
  P        9                -0.24        0.00
  P       10                -0.24       -0.00
  P       11                -0.23        0.00
  P       12                -0.23        0.03
  P       13                -0.24        0.00
  P       14                -0.24        0.01
  P       15                -0.24        0.00
  P       16                -0.24        0.02
  P       17                -0.24        0.02
  P       18                -0.24        0.00
  P       19                -0.23        0.00
  P       20                -0.24        0.00
  P       21                -0.24        0.00
  P       22                -0.24        0.01
  P       23                -0.24        0.00
  P       24                -0.24        0.00
  P       25                -0.24        0.00
  P       26                -0.24        0.00
  P       27                -0.23        0.00
  P       28                -0.24        0.00
  P       29                -0.24        0.00
  P       30                -0.24        0.00
  P       31                -0.24        0.00
  P       32                -0.24        0.00
  P       33                -0.18        0.18
  In       1                 0.25        0.00
  In       2                 0.26        0.03
  In       3                 0.25        0.00
  In       4                 0.25        0.05
  In       5                 0.23        0.00
  In       6                 0.25        0.00
  In       7                 0.23        0.01
  In       8                 0.25        0.00
  In       9                 0.24        0.00
  In      10                 0.25        0.00
  In      11                 0.23        0.00
  In      12                 0.25        0.00
  In      13                 0.24        0.00
  In      14                 0.24        0.00
  In      15                 0.24        0.00
  In      16                 0.24        0.01
  In      17                 0.22        0.02
  In      18                 0.24        0.00
  In      19                 0.22        0.02
  In      20                 0.24        0.00
  In      21                 0.25        0.00
  In      22                 0.23        0.00
  In      23                 0.25        0.00
  In      24                 0.23        0.00
  In      25                 0.25        0.00
  In      26                 0.23        0.00
  In      27                 0.25        0.00
  In      28                 0.24        0.00
  In      29                 0.23        0.01
  In      30                 0.24        0.00
  In      31                 0.23        0.01
  In      32                 0.23        0.00
===================================================

 
 A BibTeX formatted list of references used in this run has been written to 
 P_Interstitial_Migration_Dumbbell_Dumbbell+_Singlepoints_2.bib
 
Initialisation time =     31.63 s
Calculation time    =   7879.93 s
Finalisation time   =    166.25 s
Total time          =   8077.81 s
Peak Memory Use     = 9654164 kB
 
Overall parallel efficiency rating: Terrible (34%)
 
Data was distributed by:-
G-vector (3-way); efficiency rating: Poor (37%)
k-point (36-way); efficiency rating: Very good (81%)
