 +-------------------------------------------------+
 |                                                 |
 |      CCC   AA    SSS  TTTTT  EEEEE  PPPP        |
 |     C     A  A  S       T    E      P   P       |
 |     C     AAAA   SS     T    EEE    PPPP        |
 |     C     A  A     S    T    E      P           |
 |      CCC  A  A  SSS     T    EEEEE  P           |
 |                                                 |
 +-------------------------------------------------+
 |                                                 |
 | Welcome to Academic Release CASTEP version 22.11|
 | Ab Initio Total Energy Program                  |
 |                                                 |
 | Authors:                                        |
 | M. Segall, M. Probert, C. Pickard, P. Hasnip,   |
 | S. Clark, K. Refson, J. R. Yates, M. Payne      |
 |                                                 |
 | Contributors:                                   |
 | P. Lindan, P. Haynes, J. White, V. Milman,      |
 | N. Govind, M. Gibson, P. Tulip, V. Cocula,      |
 | B. Montanari, D. Quigley, M. Glover,            |
 | L. Bernasconi, A. Perlov, M. Plummer,           |
 | E. McNellis, J. Meyer, J. Gale, D. Jochym       |
 | J. Aarons, B. Walker, R. Gillen, D. Jones       |
 | T. Green, I. J. Bush, C. J. Armstrong,          |
 | E. J. Higgins, E. L. Brown, M. S. McFly,        |
 | J. Wilkins, B-C. Shih, P. J. P. Byrne,          |
 | R. J. Maurer, J. C. Womack, J. Dziedzic,        |
 | A. Bartok-Partay, L. LeBlanc, T. K. Stenczel,   |
 | J. Kermode, S. Sturniolo, B. Shi, B. Durham     |
 | M. Evans, M. J. Smith                           |
 |                                                 |
 | Copyright (c) 2000 - 2021                       |
 |                                                 |
 |     Distributed under license from Cambridge    |
 |     Enterprise for academic use only.           |
 |                                                 |
 | Please cite                                     |
 |                                                 |
 |     "First principles methods using CASTEP"     |
 |                                                 |
 |         Zeitschrift fuer Kristallographie       |
 |           220(5-6) pp. 567-570 (2005)           |
 |                                                 |
 | S. J. Clark, M. D. Segall, C. J. Pickard,       |
 | P. J. Hasnip, M. J. Probert, K. Refson,         |
 | M. C. Payne                                     |
 |                                                 |
 |       in all publications arising from          |
 |              your use of CASTEP                 |
 |                                                 |
 +-------------------------------------------------+
 |                                                 |
 |              http://www.castep.org              |
 |                                                 |
 +-------------------------------------------------+



 Compiled for linux_x86_64_gfortran10-XT on Thu, 16 Mar 2023 13:12:36 +0000
 from code version Version unavailable
 Compiler: GNU Fortran 11.2.0; Optimisation: fast
 MATHLIBS: LibSci (LAPACK version 3.10.1)
 FFT Lib : fftw3 version commercial-fftw-3.3.10-sse2-avx-avx2-avx2_128
 Fundamental constants values: CODATA 2014

 Run started: Mon, 25 Mar 2024 18:53:56 +0000

 Atomic calculation performed for P: 1s2 2s2 2p6 3s2 3p3

 Converged in 47 iterations to an ae energy of -9309.074 eV

   ============================================================                
   | Pseudopotential Report - Date of generation 25-03-2024   |                
   ------------------------------------------------------------                
   | Element: P Ionic charge:  5.00 Level of theory: RSCAN    |                
   | Atomic Solver: Koelling-Harmon                           |                
   |                                                          |                
   |               Reference Electronic Structure             |                
   |         Orbital         Occupation         Energy        |                
   |            3s              2.000           -0.535        |                
   |            3p              3.000           -0.209        |                
   |                                                          |                
   |                 Pseudopotential Definition               |                
   |        Beta     l      e      Rc     scheme   norm       |                
   |          1      0   -0.535   1.807     qc      0         |                
   |          2      0    0.250   1.807     qc      0         |                
   |          3      1   -0.209   1.807     qc      0         |                
   |          4      1    0.250   1.807     qc      0         |                
   |          5      2    0.000   1.807     qc      0         |                
   |          6      2    0.250   1.807     qc      0         |                
   |         loc     3    0.000   1.807     pn      0         |                
   |                                                          |                
   | Augmentation charge Rinner = 1.263                       |                
   | Partial core correction Rc = 1.263                       |                
   ------------------------------------------------------------                
   | "3|1.8|4|4|5|30:31:32"                                   |                
   ------------------------------------------------------------                
   |      Author: Chris J. Pickard, Cambridge University      |                
   ============================================================                
 Warning: otfg_output_psp cannot write out meta-GGA pseudopotentials presently.

 Atomic calculation performed for In:
 1s2 2s2 2p6 3s2 3p6 3d10 4s2 4p6 4d10 5s2 5p1

 Converged in 84 iterations to an ae energy of -160093.327 eV

   ============================================================                
   | Pseudopotential Report - Date of generation 25-03-2024   |                
   ------------------------------------------------------------                
   | Element: In Ionic charge: 13.00 Level of theory: RSCAN   |                
   | Atomic Solver: Koelling-Harmon                           |                
   |                                                          |                
   |               Reference Electronic Structure             |                
   |         Orbital         Occupation         Energy        |                
   |            4d             10.000           -0.711        |                
   |            5s              2.000           -0.313        |                
   |            5p              1.000           -0.095        |                
   |                                                          |                
   |                 Pseudopotential Definition               |                
   |        Beta     l      e      Rc     scheme   norm       |                
   |          1      0   -0.313   2.501     qc      0         |                
   |          2      0    0.250   2.501     qc      0         |                
   |          3      1   -0.095   2.501     qc      0         |                
   |          4      1    0.250   2.501     qc      0         |                
   |          5      2   -0.711   2.207     qc      0         |                
   |          6      2    0.250   2.207     qc      0         |                
   |         loc     3    0.000   2.501     pn      0         |                
   |                                                          |                
   | Augmentation charge Rinner = 1.504                       |                
   | Partial core correction Rc = 1.504                       |                
   ------------------------------------------------------------                
   | "3|2.5|2.5|1.5|7|8|9|50:51:42U2.2U2.2"                   |                
   ------------------------------------------------------------                
   |      Author: Chris J. Pickard, Cambridge University      |                
   ============================================================                
 Warning: otfg_output_psp cannot write out meta-GGA pseudopotentials presently.

 Pseudo atomic calculation performed for P 3s2 3p3

 Converged in 23 iterations to a total energy of -208.0292 eV

 Pseudo atomic calculation performed for In 4d10 5s2 5p1

 Converged in 42 iterations to a total energy of -1747.4500 eV
 Calculation parallelised over 252 processes.
 Data is distributed by G-vector(7-way) and k-point(36-way)
 Each process may use up to 2 threads.

 ************************************ Title ************************************
 

 ***************************** General Parameters ******************************
  
 output verbosity                               : normal  (1)
 write checkpoint data to                       : StackingFaultStructs_(1_1_1)_(1_1_-2)_6.check
 type of calculation                            : geometry optimization
 stress calculation                             : off
 density difference calculation                 : off
 electron localisation func (ELF) calculation   : off
 Hirshfeld analysis                             : on
 polarisation (Berry phase) analysis            : off
 molecular orbital projected DOS                : off
 deltaSCF calculation                           : off
 unlimited duration calculation
 timing information                             : on
 memory usage estimate                          : on
 write extra output files                       : on
 write final potential to formatted file        : off
 write final density to formatted file          : off
 write BibTeX reference list                    : on
 write OTFG pseudopotential files               : on
 write electrostatic potential file             : on
 write bands file                               : on
 checkpoint writing                             : off
  
 output         length unit                     : A
 output           mass unit                     : amu
 output           time unit                     : ps
 output         charge unit                     : e
 output           spin unit                     : hbar/2
 output         energy unit                     : eV
 output          force unit                     : eV/A
 output       velocity unit                     : A/ps
 output       pressure unit                     : GPa
 output     inv_length unit                     : 1/A
 output      frequency unit                     : cm-1
 output force constant unit                     : eV/A**2
 output         volume unit                     : A**3
 output   IR intensity unit                     : (D/A)**2/amu
 output         dipole unit                     : D
 output         efield unit                     : eV/A/e
 output        entropy unit                     : J/mol/K
 output    efield chi2 unit                     : pm/V
  
 wavefunctions paging                           : none
 random number generator seed                   : randomised (185356538)
 data distribution                              : optimal for this architecture
 optimization strategy                          : balance speed and memory

 *********************** Exchange-Correlation Parameters ***********************
  
 using functional                               : RSCAN
 relativistic treatment                         : Koelling-Harmon
 DFT+D: Semi-empirical dispersion correction    : off

 ************************* Pseudopotential Parameters **************************
  
 pseudopotential representation                 : reciprocal space
 <beta|phi> representation                      : reciprocal space
 spin-orbit coupling                            : off

 **************************** Basis Set Parameters *****************************
  
 plane wave basis set cut-off                   :   900.0000   eV
 size of standard grid                          :     2.0000
 size of   fine   gmax                          :    30.7390   1/A
 finite basis set correction                    : none

 **************************** Electronic Parameters ****************************
  
 number of  electrons                           :  432.0    
 net charge of system                           :  0.000    
 treating system as non-spin-polarized
 number of bands                                :        259

 ********************* Electronic Minimization Parameters **********************
  
 Method: Treating system as metallic with density mixing treatment of electrons,
         and number of  SD  steps               :          1
         and number of  CG  steps               :          4
  
 total energy / atom convergence tol.           : 0.1000E-07   eV
 eigen-energy convergence tolerance             : 0.2222E-08   eV
 max force / atom convergence tol.              : ignored
 convergence tolerance window                   :          3   cycles
 max. number of SCF cycles                      :         50
 number of fixed-spin iterations                :         10
 smearing scheme                                : Gaussian
 smearing width                                 : 0.2000       eV
 Fermi energy convergence tolerance             : 0.2721E-13   eV
 periodic dipole correction                     : NONE

 ************************** Density Mixing Parameters **************************
  
 density-mixing scheme                          : Pulay
 max. length of mixing history                  :         15
 charge density mixing amplitude                : 0.5000    
 cut-off energy for mixing                      :  900.0       eV

 *********************** Population Analysis Parameters ************************
  
 Population analysis with cutoff                :  3.000       A
 Population analysis output                     : summary and pdos components

 ********************** Geometry Optimization Parameters ***********************
  
 optimization method                            : LBFGS
 max. no. of LBFGS updates                      : unbounded
 preconditioned LBFGS is activated
 preconditioner type                            : EXP
     stabilization constant                     :     0.1000
     parameter A                                :     3.0000
     nearest neighbor distance                  : automatic
     cut-off distance                           : automatic
     parameter mu                               : automatic
 variable cell method                           : fixed basis quality
 max. number of steps                           :         30
 estimated bulk modulus                         :  500.0       GPa
 estimated <frequency>                          :  1668.       cm-1
 geom line minimiser                            : on
 with line minimiser tolerance                  :     0.4000
 total energy convergence tolerance             : 0.2000E-04   eV/atom
        max ionic |force| tolerance             : 0.1000E-02   eV/A
 max ionic |displacement| tolerance             : 0.1000E-02   A
   max |stress component| tolerance             : 0.1000       GPa
 convergence tolerance window                   :          2   steps
 backup results every                           :          5   steps
 write geom trajectory file                     : on

 *******************************************************************************
  

                           -------------------------------
                                      Unit Cell
                           -------------------------------
        Real Lattice(A)                      Reciprocal Lattice(1/A)
     8.3456610     0.0000000     0.0000000        0.752868503   0.000000000   0.000000000
     0.0000000    14.4551090     0.0000000        0.000000000   0.434668829  -0.212785817
     0.0000000     5.0036920    10.2213060        0.000000000   0.000000000   0.614714529

                       Lattice parameters(A)       Cell Angles
                    a =      8.345661          alpha =   63.916612
                    b =     14.455109          beta  =   90.000000
                    c =     11.380335          gamma =   90.000000

                       Current cell volume =          1233.072183       A**3
                                   density =             2.837630   AMU/A**3
                                           =             4.711995     g/cm^3

                           -------------------------------
                                     Cell Contents
                           -------------------------------
                         Total number of ions in cell =   48
                      Total number of species in cell =    2
                        Max number of any one species =   24

            xxxxxxxxxxxxxxxxxxxxxxxxxxxxxxxxxxxxxxxxxxxxxxxxxxxxxxxxxxxx
            x  Element    Atom        Fractional coordinates of atoms  x
            x            Number           u          v          w      x
            x----------------------------------------------------------x
            x  P            1         0.000000   0.242990   0.742472   x 
            x  P            2         0.000000   0.690668   0.412144   x 
            x  P            3         0.250000   0.492990   0.742472   x 
            x  P            4         0.750000   0.492990   0.742472   x 
            x  P            5         0.250000  -0.007010   0.742472   x 
            x  P            6         0.750000  -0.007010   0.742472   x 
            x  P            7         0.500000   0.136493   0.087167   x 
            x  P            8         0.500000   0.242990   0.742472   x 
            x  P            9         0.000000   0.636493   0.087167   x 
            x  P           10         0.000000   0.136493   0.087167   x 
            x  P           11         0.250000   0.386493   0.087167   x 
            x  P           12         0.000000   0.190668   0.412144   x 
            x  P           13         0.250000  -0.059332   0.412144   x 
            x  P           14         0.000000  -0.257010   0.742472   x 
            x  P           15         0.500000  -0.257010   0.742472   x 
            x  P           16         0.750000   0.386493   0.087167   x 
            x  P           17         0.500000   0.636493   0.087167   x 
            x  P           18         0.750000   0.886493   0.087167   x 
            x  P           19         0.250000   0.886493   0.087167   x 
            x  P           20         0.500000   0.690668   0.412144   x 
            x  P           21         0.500000   0.190668   0.412144   x 
            x  P           22         0.750000   0.440668   0.412144   x 
            x  P           23         0.750000  -0.059332   0.412144   x 
            x  P           24         0.250000   0.440668   0.412144   x 
            x  In           1         0.500000   0.605458   0.658306   x 
            x  In           2         0.750000  -0.144542   0.658306   x 
            x  In           3         0.250000   0.745798   0.012141   x 
            x  In           4         0.750000   0.745798   0.012141   x 
            x  In           5         0.250000  -0.144542   0.658306   x 
            x  In           6         0.500000   0.105458   0.658306   x 
            x  In           7         0.500000   0.495798   0.012141   x 
            x  In           8         0.250000   0.799746   0.337771   x 
            x  In           9         0.500000   0.549746   0.337771   x 
            x  In          10         0.750000   0.245797   0.012141   x 
            x  In          11         0.750000   0.299746   0.337771   x 
            x  In          12         0.000000   0.049746   0.337771   x 
            x  In          13         0.000000  -0.004202   0.012141   x 
            x  In          14         0.000000   0.549746   0.337771   x 
            x  In          15         0.250000   0.355458   0.658306   x 
            x  In          16         0.000000   0.495798   0.012141   x 
            x  In          17         0.250000   0.245797   0.012141   x 
            x  In          18         0.000000   0.605458   0.658306   x 
            x  In          19         0.000000   0.105458   0.658306   x 
            x  In          20         0.750000   0.799746   0.337771   x 
            x  In          21         0.250000   0.299746   0.337771   x 
            x  In          22         0.500000  -0.004202   0.012141   x 
            x  In          23         0.500000   0.049746   0.337771   x 
            x  In          24         0.750000   0.355458   0.658306   x 
            xxxxxxxxxxxxxxxxxxxxxxxxxxxxxxxxxxxxxxxxxxxxxxxxxxxxxxxxxxxx


                         No user defined ionic velocities

                           -------------------------------
                                   Details of Species
                           -------------------------------

                               Mass of species in AMU
                                    P   30.9737600
                                    In  114.8180000

                          Electric Quadrupole Moment (Barn)
                                    P    1.0000000 No Isotope Defined
                                    In    0.7700000 Isotope115

                          Files used for pseudopotentials:
                                    P 3|1.8|4|4|5|30:31:32
                                    In 3|2.5|2.5|1.5|7|8|9|50:51:42U2.2U2.2

                           -------------------------------
                              k-Points For BZ Sampling
                           -------------------------------
                       MP grid size for SCF calculation is  4  4  4
                            with an offset of   0.125  0.125  0.125
                       Number of kpoints used =            36

                           -------------------------------
                               Symmetry and Constraints
                           -------------------------------

                      Cell is a supercell containing 8 primitive cells
                      Maximum deviation from symmetry =  0.00000         ANG

                      Number of symmetry operations   =           1
                      Number of ionic constraints     =          96
                      Point group of crystal =     1: C1, 1, 1
                      Space group of crystal =     8: Cm, C -2y

             Set iprint > 1 for details on symmetry rotations/translations

                         Centre of mass is NOT constrained
             Set iprint > 1 for details of linear ionic constraints

                         Number of cell constraints= 6
                         Cell constraints are:  0 0 0 0 0 0

                         External pressure/stress (GPa)
                          0.00000   0.00000   0.00000
                                    0.00000   0.00000
                                              0.00000
 
+---------------- MEMORY AND SCRATCH DISK ESTIMATES PER PROCESS --------------+
|                                                     Memory          Disk    |
| Baseline code, static data and system overhead      488.0 MB         0.0 MB |
| BLAS internal memory storage                          0.0 MB         0.0 MB |
| Model and support data                             1578.4 MB         0.0 MB |
| Electronic energy minimisation requirements         249.0 MB         0.0 MB |
| Force calculation requirements                       42.9 MB         0.0 MB |
|                                               ----------------------------- |
| Approx. total storage required per process         2315.4 MB         0.0 MB |
|                                                                             |
| Requirements will fluctuate during execution and may exceed these estimates |
+-----------------------------------------------------------------------------+
Calculating approximate eigenstates for fixed initial Hamiltonian
Cut-off for approx. calculation is   89.988 eV
Improving approx. states at cut-off of  450.000 eV
Resetting cut-off to  900.000 eV
Calculating total energy with cut-off of  900.000 eV.
------------------------------------------------------------------------ <-- SCF
SCF loop      Energy           Fermi           Energy gain       Timer   <-- SCF
                               energy          per atom          (sec)   <-- SCF
------------------------------------------------------------------------ <-- SCF
Initial  -4.72743164E+004  0.00000000E+000                        93.10  <-- SCF
      1  -4.70936112E+004  2.72634481E+000  -3.76469229E+000     164.91  <-- SCF
      2  -4.70938472E+004  2.72551109E+000   4.91778204E-003     220.89  <-- SCF
      3  -4.71427297E+004  3.09987328E+000   1.01838428E+000     286.34  <-- SCF
      4  -4.71519308E+004  3.16025408E+000   1.91690855E-001     364.38  <-- SCF
      5  -4.71460661E+004  3.41547281E+000  -1.22182983E-001     429.31  <-- SCF
      6  -4.71472418E+004  3.47137299E+000   2.44953843E-002     494.19  <-- SCF
      7  -4.71461875E+004  3.52717256E+000  -2.19663972E-002     561.33  <-- SCF
      8  -4.71479871E+004  3.54070803E+000   3.74936691E-002     626.44  <-- SCF
      9  -4.71479005E+004  3.50924659E+000  -1.80424757E-003     690.88  <-- SCF
     10  -4.71479432E+004  3.50027505E+000   8.88258419E-004     757.77  <-- SCF
     11  -4.71479453E+004  3.49991019E+000   4.41087613E-005     825.13  <-- SCF
     12  -4.71479524E+004  3.49739548E+000   1.47423457E-004     890.02  <-- SCF
     13  -4.71479522E+004  3.49984394E+000  -3.61186791E-006     956.30  <-- SCF
     14  -4.71479522E+004  3.49939071E+000   2.26391145E-007    1013.01  <-- SCF
     15  -4.71479522E+004  3.49939503E+000   7.27499611E-008    1061.89  <-- SCF
     16  -4.71479522E+004  3.49927127E+000  -3.56534683E-009    1108.67  <-- SCF
     17  -4.71479522E+004  3.49928666E+000   5.60775177E-009    1154.47  <-- SCF
------------------------------------------------------------------------ <-- SCF
 
Final energy, E             =  -47147.89895320     eV
Final free energy (E-TS)    =  -47147.95221663     eV
(energies not corrected for finite basis set)
 
NB est. 0K energy (E-0.5TS)      =  -47147.92558491     eV
 
 
+---------------- MEMORY AND SCRATCH DISK ESTIMATES PER PROCESS --------------+
|                                                     Memory          Disk    |
| Model and support data                              994.3 MB         0.0 MB |
| Electronic energy minimisation requirements         249.0 MB         0.0 MB |
| Geometry minimisation requirements                  296.3 MB         0.0 MB |
|                                               ----------------------------- |
| Approx. total storage required per process         1539.6 MB         0.0 MB |
|                                                                             |
| Requirements will fluctuate during execution and may exceed these estimates |
+-----------------------------------------------------------------------------+
 

 ******************************** Constrained Forces ********************************
 *                                                                                  *
 *                           Cartesian components (eV/A)                            *
 * -------------------------------------------------------------------------------- *
 *                         x                    y                    z              *
 *                                                                                  *
 * P               1      0.00000(cons'd)      0.00000(cons'd)      0.29292         *
 * P               2      0.00000(cons'd)     -0.00000(cons'd)     -0.31994         *
 * P               3      0.00000(cons'd)      0.00000(cons'd)      0.29491         *
 * P               4     -0.00000(cons'd)      0.00000(cons'd)      0.29492         *
 * P               5      0.00000(cons'd)      0.00000(cons'd)      0.29491         *
 * P               6      0.00000(cons'd)     -0.00000(cons'd)      0.29491         *
 * P               7      0.00000(cons'd)      0.00000(cons'd)      0.05175         *
 * P               8      0.00000(cons'd)     -0.00000(cons'd)      0.29292         *
 * P               9      0.00000(cons'd)      0.00000(cons'd)      0.05175         *
 * P              10      0.00000(cons'd)      0.00000(cons'd)      0.05175         *
 * P              11      0.00000(cons'd)      0.00000(cons'd)      0.05093         *
 * P              12      0.00000(cons'd)     -0.00000(cons'd)     -0.31994         *
 * P              13      0.00000(cons'd)      0.00000(cons'd)     -0.31987         *
 * P              14      0.00000(cons'd)      0.00000(cons'd)      0.29292         *
 * P              15     -0.00000(cons'd)      0.00000(cons'd)      0.29292         *
 * P              16     -0.00000(cons'd)      0.00000(cons'd)      0.05093         *
 * P              17      0.00000(cons'd)      0.00000(cons'd)      0.05175         *
 * P              18     -0.00000(cons'd)      0.00000(cons'd)      0.05094         *
 * P              19      0.00000(cons'd)      0.00000(cons'd)      0.05093         *
 * P              20     -0.00000(cons'd)     -0.00000(cons'd)     -0.31994         *
 * P              21      0.00000(cons'd)     -0.00000(cons'd)     -0.31994         *
 * P              22      0.00000(cons'd)      0.00000(cons'd)     -0.31987         *
 * P              23      0.00000(cons'd)     -0.00000(cons'd)     -0.31987         *
 * P              24      0.00000(cons'd)     -0.00000(cons'd)     -0.31987         *
 * In              1      0.00000(cons'd)      0.00000(cons'd)      0.43609         *
 * In              2      0.00000(cons'd)      0.00000(cons'd)      0.43608         *
 * In              3     -0.00000(cons'd)      0.00000(cons'd)     -0.53737         *
 * In              4      0.00000(cons'd)      0.00000(cons'd)     -0.53737         *
 * In              5      0.00000(cons'd)      0.00000(cons'd)      0.43608         *
 * In              6      0.00000(cons'd)      0.00000(cons'd)      0.43609         *
 * In              7      0.00000(cons'd)     -0.00000(cons'd)     -0.53739         *
 * In              8      0.00000(cons'd)      0.00000(cons'd)      0.07597         *
 * In              9      0.00000(cons'd)      0.00000(cons'd)      0.07592         *
 * In             10      0.00000(cons'd)      0.00000(cons'd)     -0.53737         *
 * In             11      0.00000(cons'd)      0.00000(cons'd)      0.07596         *
 * In             12      0.00000(cons'd)     -0.00000(cons'd)      0.07592         *
 * In             13      0.00000(cons'd)      0.00000(cons'd)     -0.53739         *
 * In             14      0.00000(cons'd)     -0.00000(cons'd)      0.07592         *
 * In             15      0.00000(cons'd)      0.00000(cons'd)      0.43608         *
 * In             16      0.00000(cons'd)      0.00000(cons'd)     -0.53739         *
 * In             17      0.00000(cons'd)      0.00000(cons'd)     -0.53737         *
 * In             18      0.00000(cons'd)      0.00000(cons'd)      0.43609         *
 * In             19      0.00000(cons'd)      0.00000(cons'd)      0.43609         *
 * In             20      0.00000(cons'd)     -0.00000(cons'd)      0.07597         *
 * In             21      0.00000(cons'd)      0.00000(cons'd)      0.07597         *
 * In             22      0.00000(cons'd)      0.00000(cons'd)     -0.53739         *
 * In             23      0.00000(cons'd)     -0.00000(cons'd)      0.07592         *
 * In             24      0.00000(cons'd)      0.00000(cons'd)      0.43608         *
 *                                                                                  *
 ************************************************************************************
 EXP precond LBFGS => estimated nearest neighbor distance :  2.558       A
 EXP precond LBFGS => estimated cutoff distance :  5.116       A

 ************************************** Forces **************************************
 *                                                                                  *
 *                           Cartesian components (eV/A)                            *
 * -------------------------------------------------------------------------------- *
 *                         x                    y                    z              *
 *                                                                                  *
 * P               1      0.00000(cons'd)     -0.21514(cons'd)      0.29292         *
 * P               2      0.00000(cons'd)     -0.02057(cons'd)     -0.31994         *
 * P               3      0.00000(cons'd)     -0.21701(cons'd)      0.29491         *
 * P               4     -0.00000(cons'd)     -0.21701(cons'd)      0.29492         *
 * P               5      0.00000(cons'd)     -0.21701(cons'd)      0.29491         *
 * P               6     -0.00000(cons'd)     -0.21701(cons'd)      0.29491         *
 * P               7     -0.00001(cons'd)      0.05716(cons'd)      0.05175         *
 * P               8     -0.00000(cons'd)     -0.21514(cons'd)      0.29292         *
 * P               9      0.00000(cons'd)      0.05717(cons'd)      0.05175         *
 * P              10      0.00000(cons'd)      0.05716(cons'd)      0.05175         *
 * P              11      0.00000(cons'd)      0.05808(cons'd)      0.05093         *
 * P              12      0.00000(cons'd)     -0.02058(cons'd)     -0.31994         *
 * P              13      0.00000(cons'd)     -0.01760(cons'd)     -0.31987         *
 * P              14      0.00000(cons'd)     -0.21514(cons'd)      0.29292         *
 * P              15     -0.00000(cons'd)     -0.21513(cons'd)      0.29292         *
 * P              16     -0.00000(cons'd)      0.05807(cons'd)      0.05093         *
 * P              17     -0.00001(cons'd)      0.05717(cons'd)      0.05175         *
 * P              18     -0.00000(cons'd)      0.05807(cons'd)      0.05094         *
 * P              19      0.00001(cons'd)      0.05807(cons'd)      0.05093         *
 * P              20     -0.00001(cons'd)     -0.02057(cons'd)     -0.31994         *
 * P              21     -0.00001(cons'd)     -0.02057(cons'd)     -0.31994         *
 * P              22     -0.00000(cons'd)     -0.01761(cons'd)     -0.31987         *
 * P              23     -0.00000(cons'd)     -0.01760(cons'd)     -0.31987         *
 * P              24      0.00001(cons'd)     -0.01761(cons'd)     -0.31987         *
 * In              1     -0.00000(cons'd)     -0.00781(cons'd)      0.43609         *
 * In              2     -0.00000(cons'd)     -0.00783(cons'd)      0.43608         *
 * In              3      0.00000(cons'd)      0.14484(cons'd)     -0.53737         *
 * In              4     -0.00000(cons'd)      0.14484(cons'd)     -0.53737         *
 * In              5      0.00000(cons'd)     -0.00783(cons'd)      0.43608         *
 * In              6     -0.00000(cons'd)     -0.00781(cons'd)      0.43609         *
 * In              7     -0.00000(cons'd)      0.14489(cons'd)     -0.53739         *
 * In              8      0.00000(cons'd)      0.04047(cons'd)      0.07597         *
 * In              9     -0.00000(cons'd)      0.04053(cons'd)      0.07592         *
 * In             10     -0.00000(cons'd)      0.14485(cons'd)     -0.53737         *
 * In             11     -0.00000(cons'd)      0.04048(cons'd)      0.07596         *
 * In             12      0.00000(cons'd)      0.04052(cons'd)      0.07592         *
 * In             13      0.00000(cons'd)      0.14490(cons'd)     -0.53739         *
 * In             14      0.00000(cons'd)      0.04053(cons'd)      0.07592         *
 * In             15      0.00000(cons'd)     -0.00783(cons'd)      0.43608         *
 * In             16      0.00000(cons'd)      0.14489(cons'd)     -0.53739         *
 * In             17      0.00000(cons'd)      0.14484(cons'd)     -0.53737         *
 * In             18      0.00000(cons'd)     -0.00781(cons'd)      0.43609         *
 * In             19      0.00000(cons'd)     -0.00781(cons'd)      0.43609         *
 * In             20     -0.00000(cons'd)      0.04047(cons'd)      0.07597         *
 * In             21      0.00000(cons'd)      0.04048(cons'd)      0.07597         *
 * In             22     -0.00000(cons'd)      0.14490(cons'd)     -0.53739         *
 * In             23     -0.00000(cons'd)      0.04052(cons'd)      0.07592         *
 * In             24     -0.00000(cons'd)     -0.00783(cons'd)      0.43608         *
 *                                                                                  *
 ************************************************************************************
 doing test perturbation to get energy scale for EXP preconditioner

                           -------------------------------
                                     Cell Contents
                           -------------------------------

            xxxxxxxxxxxxxxxxxxxxxxxxxxxxxxxxxxxxxxxxxxxxxxxxxxxxxxxxxxxxxxxxx
            x  Element         Atom        Fractional coordinates of atoms  x
            x                 Number           u          v          w      x
            x---------------------------------------------------------------x
            x  P                 1         0.000000   0.243042   0.744600   x
            x  P                 2         0.000000   0.691436   0.413482   x
            x  P                 3         0.251003   0.493383   0.744600   x
            x  P                 4         0.752579   0.493383   0.744600   x
            x  P                 5         0.251003   0.993872   0.744600   x
            x  P                 6         0.752579   0.993872   0.744600   x
            x  P                 7         0.501896   0.136661   0.087465   x
            x  P                 8         0.501896   0.243042   0.744600   x
            x  P                 9         0.000000   0.637412   0.087465   x
            x  P                10         0.000000   0.136661   0.087465   x
            x  P                11         0.251003   0.387054   0.087465   x
            x  P                12         0.000000   0.190741   0.413482   x
            x  P                13         0.251003   0.941694   0.413482   x
            x  P                14         0.000000   0.743665   0.744600   x
            x  P                15         0.501896   0.743665   0.744600   x
            x  P                16         0.752579   0.387054   0.087465   x
            x  P                17         0.501896   0.637412   0.087465   x
            x  P                18         0.752579   0.887715   0.087465   x
            x  P                19         0.251003   0.887715   0.087465   x
            x  P                20         0.501896   0.691436   0.413482   x
            x  P                21         0.501896   0.190741   0.413482   x
            x  P                22         0.752579   0.441112   0.413482   x
            x  P                23         0.752579   0.941694   0.413482   x
            x  P                24         0.251003   0.441112   0.413482   x
            x  In                1         0.501896   0.606010   0.660268   x
            x  In                2         0.752579   0.856268   0.660268   x
            x  In                3         0.251003   0.746913   0.012182   x
            x  In                4         0.752579   0.746913   0.012182   x
            x  In                5         0.251003   0.856268   0.660268   x
            x  In                6         0.501896   0.105315   0.660268   x
            x  In                7         0.501896   0.496571   0.012182   x
            x  In                8         0.251003   0.800685   0.338887   x
            x  In                9         0.501896   0.550381   0.338887   x
            x  In               10         0.752579   0.246188   0.012182   x
            x  In               11         0.752579   0.300024   0.338887   x
            x  In               12         0.000000   0.049631   0.338887   x
            x  In               13         0.000000   0.997194   0.012182   x
            x  In               14         0.000000   0.550381   0.338887   x
            x  In               15         0.251003   0.355686   0.660268   x
            x  In               16         0.000000   0.496571   0.012182   x
            x  In               17         0.251003   0.246188   0.012182   x
            x  In               18         0.000000   0.606010   0.660268   x
            x  In               19         0.000000   0.105315   0.660268   x
            x  In               20         0.752579   0.800685   0.338887   x
            x  In               21         0.251003   0.300024   0.338887   x
            x  In               22         0.501896   0.997194   0.012182   x
            x  In               23         0.501896   0.049631   0.338887   x
            x  In               24         0.752579   0.355686   0.660268   x
            xxxxxxxxxxxxxxxxxxxxxxxxxxxxxxxxxxxxxxxxxxxxxxxxxxxxxxxxxxxxxxxxx


------------------------------------------------------------------------ <-- SCF
SCF loop      Energy           Fermi           Energy gain       Timer   <-- SCF
                               energy          per atom          (sec)   <-- SCF
------------------------------------------------------------------------ <-- SCF
Initial  -4.71448745E+004  0.00000000E+000                      1219.54  <-- SCF
      1  -4.71477480E+004  3.49935749E+000   5.98644331E-002    1285.12  <-- SCF
      2  -4.71480047E+004  3.49924729E+000   5.34781004E-003    1363.00  <-- SCF
      3  -4.71480072E+004  3.49906607E+000   5.09759751E-005    1428.36  <-- SCF
      4  -4.71480090E+004  3.49939292E+000   3.68476069E-005    1494.64  <-- SCF
      5  -4.71480092E+004  3.49962479E+000   5.31459983E-006    1567.56  <-- SCF
      6  -4.71480092E+004  3.49971649E+000   8.56916803E-007    1633.69  <-- SCF
      7  -4.71480093E+004  3.49975642E+000   6.87766489E-008    1690.47  <-- SCF
      8  -4.71480093E+004  3.49979203E+000   5.67155678E-010    1741.96  <-- SCF
      9  -4.71480093E+004  3.49979934E+000   9.80921525E-011    1787.01  <-- SCF
------------------------------------------------------------------------ <-- SCF
 
Final energy, E             =  -47147.95638240     eV
Final free energy (E-TS)    =  -47148.00925019     eV
(energies not corrected for finite basis set)
 
NB est. 0K energy (E-0.5TS)      =  -47147.98281630     eV
 

 ************************************** Forces **************************************
 *                                                                                  *
 *                           Cartesian components (eV/A)                            *
 * -------------------------------------------------------------------------------- *
 *                         x                    y                    z              *
 *                                                                                  *
 * P               1      0.12397(cons'd)     -0.24365(cons'd)      0.29400         *
 * P               2      0.15741(cons'd)     -0.05970(cons'd)     -0.26852         *
 * P               3      0.01067(cons'd)     -0.18953(cons'd)      0.24510         *
 * P               4     -0.10740(cons'd)     -0.25190(cons'd)      0.29227         *
 * P               5      0.01078(cons'd)     -0.25329(cons'd)      0.27513         *
 * P               6     -0.11104(cons'd)     -0.31847(cons'd)      0.32441         *
 * P               7     -0.02352(cons'd)      0.20805(cons'd)      0.13359         *
 * P               8     -0.02484(cons'd)     -0.19152(cons'd)      0.25443         *
 * P               9      0.15781(cons'd)      0.00886(cons'd)      0.12665         *
 * P              10      0.15788(cons'd)      0.14208(cons'd)      0.16573         *
 * P              11      0.00720(cons'd)      0.08221(cons'd)      0.09149         *
 * P              12      0.15745(cons'd)     -0.05188(cons'd)     -0.27708         *
 * P              13      0.00681(cons'd)     -0.06414(cons'd)     -0.27682         *
 * P              14      0.12399(cons'd)     -0.24426(cons'd)      0.28566         *
 * P              15     -0.02563(cons'd)     -0.19138(cons'd)      0.24582         *
 * P              16     -0.14076(cons'd)      0.00370(cons'd)      0.12996         *
 * P              17     -0.02384(cons'd)      0.07471(cons'd)      0.09438         *
 * P              18     -0.14045(cons'd)     -0.00459(cons'd)      0.12291         *
 * P              19      0.00747(cons'd)      0.07375(cons'd)      0.08480         *
 * P              20     -0.02360(cons'd)      0.00353(cons'd)     -0.30665         *
 * P              21     -0.02404(cons'd)      0.01124(cons'd)     -0.31497         *
 * P              22     -0.13969(cons'd)     -0.06663(cons'd)     -0.26543         *
 * P              23     -0.14531(cons'd)     -0.14231(cons'd)     -0.22875         *
 * P              24      0.00731(cons'd)      0.00877(cons'd)     -0.31098         *
 * In              1     -0.01524(cons'd)     -0.02280(cons'd)      0.39097         *
 * In              2     -0.09819(cons'd)      0.01322(cons'd)      0.36482         *
 * In              3      0.00641(cons'd)      0.12544(cons'd)     -0.48057         *
 * In              4     -0.11941(cons'd)      0.18124(cons'd)     -0.52827         *
 * In              5      0.00454(cons'd)     -0.03362(cons'd)      0.40606         *
 * In              6     -0.01548(cons'd)      0.03408(cons'd)      0.35518         *
 * In              7     -0.01952(cons'd)      0.12752(cons'd)     -0.48428         *
 * In              8      0.00246(cons'd)      0.00511(cons'd)      0.05716         *
 * In              9     -0.01491(cons'd)      0.02130(cons'd)      0.05411         *
 * In             10     -0.11928(cons'd)      0.19193(cons'd)     -0.53214         *
 * In             11     -0.11810(cons'd)      0.08206(cons'd)      0.02427         *
 * In             12      0.13516(cons'd)      0.16286(cons'd)     -0.01282         *
 * In             13      0.13089(cons'd)      0.06996(cons'd)     -0.55978         *
 * In             14      0.12936(cons'd)      0.07832(cons'd)      0.02222         *
 * In             15      0.00450(cons'd)     -0.02193(cons'd)      0.39935         *
 * In             16      0.13089(cons'd)      0.17466(cons'd)     -0.52446         *
 * In             17      0.00639(cons'd)      0.13614(cons'd)     -0.48459         *
 * In             18      0.10750(cons'd)      0.01687(cons'd)      0.35612         *
 * In             19      0.11191(cons'd)      0.07535(cons'd)      0.31869         *
 * In             20     -0.11826(cons'd)      0.07263(cons'd)      0.01945         *
 * In             21      0.00242(cons'd)      0.01455(cons'd)      0.06205         *
 * In             22     -0.01948(cons'd)      0.02273(cons'd)     -0.51977         *
 * In             23     -0.01522(cons'd)      0.10378(cons'd)      0.02106         *
 * In             24     -0.09795(cons'd)      0.02495(cons'd)      0.35805         *
 *                                                                                  *
 ************************************************************************************
 EXP precond LBFGS => estimated parameter mu :  1.718       eV/A**2
 LBFGS: finished iteration     0 with enthalpy= -4.71479522E+004 eV
  
 +-----------+-----------------+-----------------+------------+-----+ <-- LBFGS
 | Parameter |      value      |    tolerance    |    units   | OK? | <-- LBFGS
 +-----------+-----------------+-----------------+------------+-----+ <-- LBFGS
 |  dE/ion   |   0.000000E+000 |   2.000000E-005 |         eV | No  | <-- LBFGS
 |  |F|max   |   5.791236E-001 |   1.000000E-003 |       eV/A | No  | <-- LBFGS
 |  |dR|max  |   3.872510E-015 |   1.000000E-003 |          A | No  | <-- LBFGS
 +-----------+-----------------+-----------------+------------+-----+ <-- LBFGS
  

================================================================================
 Starting LBFGS iteration          1 ...
================================================================================
  
 +------------+-------------+-------------+-----------------+ <-- min LBFGS
 |    Step    |   lambda    |   F.delta'  |    enthalpy     | <-- min LBFGS
 +------------+-------------+-------------+-----------------+ <-- min LBFGS
 |  previous  |    0.000000 |    0.737451 |   -47147.952217 | <-- min LBFGS
 +------------+-------------+-------------+-----------------+ <-- min LBFGS
  

--------------------------------------------------------------------------------
 LBFGS: starting iteration         1 with trial guess (lambda=  1.000000)
--------------------------------------------------------------------------------

                           -------------------------------
                                     Cell Contents
                           -------------------------------

            xxxxxxxxxxxxxxxxxxxxxxxxxxxxxxxxxxxxxxxxxxxxxxxxxxxxxxxxxxxxxxxxx
            x  Element         Atom        Fractional coordinates of atoms  x
            x                 Number           u          v          w      x
            x---------------------------------------------------------------x
            x  P                 1         0.000000   0.240922   0.748448   x
            x  P                 2         0.000000   0.691363   0.410137   x
            x  P                 3         0.250000   0.490916   0.748466   x
            x  P                 4         0.750000   0.490916   0.748466   x
            x  P                 5         0.250000  -0.009084   0.748466   x
            x  P                 6         0.750000  -0.009084   0.748466   x
            x  P                 7         0.500000   0.137594   0.083987   x
            x  P                 8         0.500000   0.240922   0.748448   x
            x  P                 9         0.000000   0.637594   0.083987   x
            x  P                10         0.000000   0.137594   0.083987   x
            x  P                11         0.250000   0.387596   0.083981   x
            x  P                12         0.000000   0.191363   0.410137   x
            x  P                13         0.250000  -0.058637   0.410137   x
            x  P                14         0.000000  -0.259078   0.748448   x
            x  P                15         0.500000  -0.259078   0.748448   x
            x  P                16         0.750000   0.387596   0.083981   x
            x  P                17         0.500000   0.637594   0.083987   x
            x  P                18         0.750000   0.887596   0.083981   x
            x  P                19         0.250000   0.887596   0.083981   x
            x  P                20         0.500000   0.691363   0.410137   x
            x  P                21         0.500000   0.191363   0.410137   x
            x  P                22         0.750000   0.441363   0.410137   x
            x  P                23         0.750000  -0.058637   0.410137   x
            x  P                24         0.250000   0.441363   0.410137   x
            x  In                1         0.500000   0.603108   0.665095   x
            x  In                2         0.750000  -0.146891   0.665092   x
            x  In                3         0.250000   0.748135   0.005388   x
            x  In                4         0.750000   0.748135   0.005388   x
            x  In                5         0.250000  -0.146891   0.665092   x
            x  In                6         0.500000   0.103108   0.665095   x
            x  In                7         0.500000   0.498135   0.005388   x
            x  In                8         0.250000   0.800034   0.336940   x
            x  In                9         0.500000   0.550034   0.336940   x
            x  In               10         0.750000   0.248135   0.005388   x
            x  In               11         0.750000   0.300034   0.336940   x
            x  In               12         0.000000   0.050034   0.336940   x
            x  In               13         0.000000  -0.001865   0.005388   x
            x  In               14         0.000000   0.550034   0.336940   x
            x  In               15         0.250000   0.353109   0.665092   x
            x  In               16         0.000000   0.498135   0.005388   x
            x  In               17         0.250000   0.248135   0.005388   x
            x  In               18         0.000000   0.603108   0.665095   x
            x  In               19         0.000000   0.103108   0.665095   x
            x  In               20         0.750000   0.800034   0.336940   x
            x  In               21         0.250000   0.300034   0.336940   x
            x  In               22         0.500000  -0.001865   0.005388   x
            x  In               23         0.500000   0.050034   0.336940   x
            x  In               24         0.750000   0.353109   0.665092   x
            xxxxxxxxxxxxxxxxxxxxxxxxxxxxxxxxxxxxxxxxxxxxxxxxxxxxxxxxxxxxxxxxx


------------------------------------------------------------------------ <-- SCF
SCF loop      Energy           Fermi           Energy gain       Timer   <-- SCF
                               energy          per atom          (sec)   <-- SCF
------------------------------------------------------------------------ <-- SCF
Initial  -4.71311843E+004  0.00000000E+000                      1826.65  <-- SCF
      1  -4.71470593E+004  3.48748635E+000   3.30729450E-001    1892.15  <-- SCF
      2  -4.71483345E+004  3.48710105E+000   2.65665865E-002    1979.33  <-- SCF
      3  -4.71483126E+004  3.48504341E+000  -4.57848028E-004    2045.96  <-- SCF
      4  -4.71483050E+004  3.48597398E+000  -1.58239454E-004    2118.74  <-- SCF
      5  -4.71483017E+004  3.48692873E+000  -6.84979084E-005    2185.64  <-- SCF
      6  -4.71483008E+004  3.48714061E+000  -1.93426317E-005    2254.77  <-- SCF
      7  -4.71483006E+004  3.48720015E+000  -3.52798880E-006    2323.06  <-- SCF
      8  -4.71483006E+004  3.48724734E+000  -4.89296160E-007    2387.53  <-- SCF
      9  -4.71483006E+004  3.48723495E+000   3.63278680E-008    2439.24  <-- SCF
     10  -4.71483006E+004  3.48722176E+000   4.34196341E-009    2485.03  <-- SCF
     11  -4.71483006E+004  3.48721496E+000   5.98993736E-010    2529.68  <-- SCF
------------------------------------------------------------------------ <-- SCF
 
Final energy, E             =  -47148.24654359     eV
Final free energy (E-TS)    =  -47148.30055923     eV
(energies not corrected for finite basis set)
 
NB est. 0K energy (E-0.5TS)      =  -47148.27355141     eV
 

 ******************************** Constrained Forces ********************************
 *                                                                                  *
 *                           Cartesian components (eV/A)                            *
 * -------------------------------------------------------------------------------- *
 *                         x                    y                    z              *
 *                                                                                  *
 * P               1      0.00000(cons'd)     -0.00000(cons'd)      0.18443         *
 * P               2      0.00000(cons'd)      0.00000(cons'd)      0.29020         *
 * P               3      0.00000(cons'd)     -0.00000(cons'd)      0.18208         *
 * P               4      0.00000(cons'd)      0.00000(cons'd)      0.18207         *
 * P               5      0.00000(cons'd)      0.00000(cons'd)      0.18208         *
 * P               6      0.00000(cons'd)      0.00000(cons'd)      0.18207         *
 * P               7      0.00000(cons'd)      0.00000(cons'd)      0.18823         *
 * P               8      0.00000(cons'd)      0.00000(cons'd)      0.18443         *
 * P               9      0.00000(cons'd)      0.00000(cons'd)      0.18823         *
 * P              10      0.00000(cons'd)      0.00000(cons'd)      0.18823         *
 * P              11      0.00000(cons'd)      0.00000(cons'd)      0.19043         *
 * P              12      0.00000(cons'd)      0.00000(cons'd)      0.29020         *
 * P              13      0.00000(cons'd)      0.00000(cons'd)      0.29054         *
 * P              14      0.00000(cons'd)      0.00000(cons'd)      0.18443         *
 * P              15      0.00000(cons'd)     -0.00000(cons'd)      0.18444         *
 * P              16      0.00000(cons'd)      0.00000(cons'd)      0.19043         *
 * P              17      0.00000(cons'd)      0.00000(cons'd)      0.18823         *
 * P              18      0.00000(cons'd)      0.00000(cons'd)      0.19043         *
 * P              19      0.00000(cons'd)      0.00000(cons'd)      0.19043         *
 * P              20     -0.00000(cons'd)      0.00000(cons'd)      0.29020         *
 * P              21      0.00000(cons'd)     -0.00000(cons'd)      0.29020         *
 * P              22      0.00000(cons'd)      0.00000(cons'd)      0.29054         *
 * P              23      0.00000(cons'd)      0.00000(cons'd)      0.29054         *
 * P              24      0.00000(cons'd)      0.00000(cons'd)      0.29054         *
 * In              1      0.00000(cons'd)      0.00000(cons'd)     -0.29282         *
 * In              2      0.00000(cons'd)      0.00000(cons'd)     -0.29274         *
 * In              3      0.00000(cons'd)     -0.00000(cons'd)     -0.27409         *
 * In              4      0.00000(cons'd)      0.00000(cons'd)     -0.27407         *
 * In              5     -0.00000(cons'd)      0.00000(cons'd)     -0.29275         *
 * In              6      0.00000(cons'd)      0.00000(cons'd)     -0.29281         *
 * In              7      0.00000(cons'd)      0.00000(cons'd)     -0.27409         *
 * In              8     -0.00000(cons'd)      0.00000(cons'd)     -0.09622         *
 * In              9      0.00000(cons'd)     -0.00000(cons'd)     -0.09598         *
 * In             10      0.00000(cons'd)      0.00000(cons'd)     -0.27408         *
 * In             11      0.00000(cons'd)     -0.00000(cons'd)     -0.09621         *
 * In             12      0.00000(cons'd)      0.00000(cons'd)     -0.09598         *
 * In             13      0.00000(cons'd)      0.00000(cons'd)     -0.27405         *
 * In             14      0.00000(cons'd)      0.00000(cons'd)     -0.09598         *
 * In             15     -0.00000(cons'd)      0.00000(cons'd)     -0.29275         *
 * In             16      0.00000(cons'd)      0.00000(cons'd)     -0.27407         *
 * In             17      0.00000(cons'd)     -0.00000(cons'd)     -0.27410         *
 * In             18      0.00000(cons'd)      0.00000(cons'd)     -0.29281         *
 * In             19      0.00000(cons'd)      0.00000(cons'd)     -0.29280         *
 * In             20     -0.00000(cons'd)      0.00000(cons'd)     -0.09620         *
 * In             21      0.00000(cons'd)     -0.00000(cons'd)     -0.09623         *
 * In             22      0.00000(cons'd)      0.00000(cons'd)     -0.27407         *
 * In             23      0.00000(cons'd)      0.00000(cons'd)     -0.09599         *
 * In             24     -0.00000(cons'd)      0.00000(cons'd)     -0.29274         *
 *                                                                                  *
 ************************************************************************************
  
 +------------+-------------+-------------+-----------------+ <-- min LBFGS
 |    Step    |   lambda    |   F.delta'  |    enthalpy     | <-- min LBFGS
 +------------+-------------+-------------+-----------------+ <-- min LBFGS
 |  previous  |    0.000000 |    0.737451 |   -47147.952217 | <-- min LBFGS
 | trial step |    1.000000 |   -0.012235 |   -47148.300559 | <-- min LBFGS
 +------------+-------------+-------------+-----------------+ <-- min LBFGS
  
 LBFGS: finished iteration     1 with enthalpy= -4.71483006E+004 eV
  
 +-----------+-----------------+-----------------+------------+-----+ <-- LBFGS
 | Parameter |      value      |    tolerance    |    units   | OK? | <-- LBFGS
 +-----------+-----------------+-----------------+------------+-----+ <-- LBFGS
 |  dE/ion   |   7.257137E-003 |   2.000000E-005 |         eV | No  | <-- LBFGS
 |  |F|max   |   2.928152E-001 |   1.000000E-003 |       eV/A | No  | <-- LBFGS
 |  |dR|max  |   6.939221E-002 |   1.000000E-003 |          A | No  | <-- LBFGS
 +-----------+-----------------+-----------------+------------+-----+ <-- LBFGS
  

================================================================================
 Starting LBFGS iteration          2 ...
================================================================================
  
 +------------+-------------+-------------+-----------------+ <-- min LBFGS
 |    Step    |   lambda    |   F.delta'  |    enthalpy     | <-- min LBFGS
 +------------+-------------+-------------+-----------------+ <-- min LBFGS
 |  previous  |    0.000000 |    0.433889 |   -47148.300559 | <-- min LBFGS
 +------------+-------------+-------------+-----------------+ <-- min LBFGS
  

--------------------------------------------------------------------------------
 LBFGS: starting iteration         2 with trial guess (lambda=  1.000000)
--------------------------------------------------------------------------------

                           -------------------------------
                                     Cell Contents
                           -------------------------------

            xxxxxxxxxxxxxxxxxxxxxxxxxxxxxxxxxxxxxxxxxxxxxxxxxxxxxxxxxxxxxxxxx
            x  Element         Atom        Fractional coordinates of atoms  x
            x                 Number           u          v          w      x
            x---------------------------------------------------------------x
            x  P                 1         0.000000   0.240167   0.750628   x
            x  P                 2         0.000000   0.690648   0.412203   x
            x  P                 3         0.250000   0.490166   0.750631   x
            x  P                 4         0.750000   0.490166   0.750631   x
            x  P                 5         0.250000  -0.009834   0.750631   x
            x  P                 6         0.750000  -0.009834   0.750631   x
            x  P                 7         0.500000   0.137593   0.083990   x
            x  P                 8         0.500000   0.240167   0.750628   x
            x  P                 9         0.000000   0.637593   0.083991   x
            x  P                10         0.000000   0.137593   0.083991   x
            x  P                11         0.250000   0.387590   0.084000   x
            x  P                12         0.000000   0.190648   0.412203   x
            x  P                13         0.250000  -0.059354   0.412207   x
            x  P                14         0.000000  -0.259833   0.750628   x
            x  P                15         0.500000  -0.259833   0.750628   x
            x  P                16         0.750000   0.387590   0.084000   x
            x  P                17         0.500000   0.637593   0.083990   x
            x  P                18         0.750000   0.887590   0.084000   x
            x  P                19         0.250000   0.887590   0.084000   x
            x  P                20         0.500000   0.690648   0.412203   x
            x  P                21         0.500000   0.190648   0.412203   x
            x  P                22         0.750000   0.440646   0.412207   x
            x  P                23         0.750000  -0.059354   0.412207   x
            x  P                24         0.250000   0.440646   0.412207   x
            x  In                1         0.500000   0.603219   0.664775   x
            x  In                2         0.750000  -0.146781   0.664776   x
            x  In                3         0.250000   0.749555   0.001285   x
            x  In                4         0.750000   0.749555   0.001285   x
            x  In                5         0.250000  -0.146781   0.664776   x
            x  In                6         0.500000   0.103219   0.664776   x
            x  In                7         0.500000   0.499555   0.001286   x
            x  In                8         0.250000   0.799975   0.337109   x
            x  In                9         0.500000   0.549975   0.337109   x
            x  In               10         0.750000   0.249555   0.001285   x
            x  In               11         0.750000   0.299975   0.337109   x
            x  In               12         0.000000   0.049975   0.337110   x
            x  In               13         0.000000  -0.000445   0.001286   x
            x  In               14         0.000000   0.549975   0.337110   x
            x  In               15         0.250000   0.353219   0.664776   x
            x  In               16         0.000000   0.499555   0.001286   x
            x  In               17         0.250000   0.249555   0.001284   x
            x  In               18         0.000000   0.603219   0.664776   x
            x  In               19         0.000000   0.103219   0.664776   x
            x  In               20         0.750000   0.799975   0.337109   x
            x  In               21         0.250000   0.299975   0.337109   x
            x  In               22         0.500000  -0.000445   0.001286   x
            x  In               23         0.500000   0.049975   0.337110   x
            x  In               24         0.750000   0.353219   0.664776   x
            xxxxxxxxxxxxxxxxxxxxxxxxxxxxxxxxxxxxxxxxxxxxxxxxxxxxxxxxxxxxxxxxx


------------------------------------------------------------------------ <-- SCF
SCF loop      Energy           Fermi           Energy gain       Timer   <-- SCF
                               energy          per atom          (sec)   <-- SCF
------------------------------------------------------------------------ <-- SCF
Initial  -4.71432585E+004  0.00000000E+000                      2569.26  <-- SCF
      1  -4.71481844E+004  3.46488984E+000   1.02623861E-001    2635.03  <-- SCF
      2  -4.71484457E+004  3.46479262E+000   5.44293553E-003    2712.13  <-- SCF
      3  -4.71484421E+004  3.46410724E+000  -7.54091863E-005    2778.65  <-- SCF
      4  -4.71484412E+004  3.46503619E+000  -1.84763928E-005    2848.30  <-- SCF
      5  -4.71484408E+004  3.46620896E+000  -8.00999907E-006    2915.12  <-- SCF
      6  -4.71484407E+004  3.46672643E+000  -2.34591198E-006    2983.09  <-- SCF
      7  -4.71484406E+004  3.46695429E+000  -5.40180465E-007    3045.60  <-- SCF
      8  -4.71484406E+004  3.46702650E+000  -3.26701006E-008    3101.32  <-- SCF
      9  -4.71484406E+004  3.46703178E+000   4.26887767E-009    3147.70  <-- SCF
     10  -4.71484406E+004  3.46703086E+000   9.44700901E-010    3192.90  <-- SCF
     11  -4.71484406E+004  3.46702990E+000   2.23639796E-010    3237.49  <-- SCF
------------------------------------------------------------------------ <-- SCF
 
Final energy, E             =  -47148.38763685     eV
Final free energy (E-TS)    =  -47148.44064648     eV
(energies not corrected for finite basis set)
 
NB est. 0K energy (E-0.5TS)      =  -47148.41414167     eV
 

 ******************************** Constrained Forces ********************************
 *                                                                                  *
 *                           Cartesian components (eV/A)                            *
 * -------------------------------------------------------------------------------- *
 *                         x                    y                    z              *
 *                                                                                  *
 * P               1      0.00000(cons'd)      0.00000(cons'd)      0.12814         *
 * P               2      0.00000(cons'd)      0.00000(cons'd)      0.16406         *
 * P               3      0.00000(cons'd)      0.00000(cons'd)      0.12814         *
 * P               4      0.00000(cons'd)      0.00000(cons'd)      0.12814         *
 * P               5      0.00000(cons'd)      0.00000(cons'd)      0.12814         *
 * P               6      0.00000(cons'd)      0.00000(cons'd)      0.12814         *
 * P               7      0.00000(cons'd)      0.00000(cons'd)      0.15147         *
 * P               8     -0.00000(cons'd)     -0.00000(cons'd)      0.12813         *
 * P               9      0.00000(cons'd)      0.00000(cons'd)      0.15147         *
 * P              10      0.00000(cons'd)      0.00000(cons'd)      0.15147         *
 * P              11      0.00000(cons'd)      0.00000(cons'd)      0.15208         *
 * P              12      0.00000(cons'd)     -0.00000(cons'd)      0.16406         *
 * P              13      0.00000(cons'd)      0.00000(cons'd)      0.16367         *
 * P              14      0.00000(cons'd)     -0.00000(cons'd)      0.12814         *
 * P              15      0.00000(cons'd)      0.00000(cons'd)      0.12813         *
 * P              16      0.00000(cons'd)      0.00000(cons'd)      0.15208         *
 * P              17     -0.00000(cons'd)      0.00000(cons'd)      0.15147         *
 * P              18      0.00000(cons'd)      0.00000(cons'd)      0.15208         *
 * P              19      0.00000(cons'd)      0.00000(cons'd)      0.15208         *
 * P              20      0.00000(cons'd)     -0.00000(cons'd)      0.16405         *
 * P              21      0.00000(cons'd)     -0.00000(cons'd)      0.16406         *
 * P              22     -0.00000(cons'd)     -0.00000(cons'd)      0.16367         *
 * P              23      0.00000(cons'd)      0.00000(cons'd)      0.16367         *
 * P              24      0.00000(cons'd)      0.00000(cons'd)      0.16367         *
 * In              1      0.00000(cons'd)      0.00000(cons'd)     -0.19209         *
 * In              2      0.00000(cons'd)      0.00000(cons'd)     -0.19198         *
 * In              3     -0.00000(cons'd)      0.00000(cons'd)     -0.13473         *
 * In              4      0.00000(cons'd)     -0.00000(cons'd)     -0.13473         *
 * In              5      0.00000(cons'd)      0.00000(cons'd)     -0.19198         *
 * In              6      0.00000(cons'd)      0.00000(cons'd)     -0.19209         *
 * In              7      0.00000(cons'd)      0.00000(cons'd)     -0.13470         *
 * In              8      0.00000(cons'd)     -0.00000(cons'd)     -0.11677         *
 * In              9      0.00000(cons'd)      0.00000(cons'd)     -0.11728         *
 * In             10      0.00000(cons'd)      0.00000(cons'd)     -0.13473         *
 * In             11      0.00000(cons'd)      0.00000(cons'd)     -0.11678         *
 * In             12      0.00000(cons'd)     -0.00000(cons'd)     -0.11728         *
 * In             13      0.00000(cons'd)     -0.00000(cons'd)     -0.13471         *
 * In             14      0.00000(cons'd)     -0.00000(cons'd)     -0.11728         *
 * In             15      0.00000(cons'd)      0.00000(cons'd)     -0.19198         *
 * In             16      0.00000(cons'd)      0.00000(cons'd)     -0.13471         *
 * In             17      0.00000(cons'd)     -0.00000(cons'd)     -0.13473         *
 * In             18      0.00000(cons'd)      0.00000(cons'd)     -0.19209         *
 * In             19     -0.00000(cons'd)      0.00000(cons'd)     -0.19209         *
 * In             20      0.00000(cons'd)     -0.00000(cons'd)     -0.11678         *
 * In             21     -0.00000(cons'd)     -0.00000(cons'd)     -0.11677         *
 * In             22      0.00000(cons'd)     -0.00000(cons'd)     -0.13471         *
 * In             23      0.00000(cons'd)      0.00000(cons'd)     -0.11728         *
 * In             24      0.00000(cons'd)      0.00000(cons'd)     -0.19198         *
 *                                                                                  *
 ************************************************************************************
  
 +------------+-------------+-------------+-----------------+ <-- min LBFGS
 |    Step    |   lambda    |   F.delta'  |    enthalpy     | <-- min LBFGS
 +------------+-------------+-------------+-----------------+ <-- min LBFGS
 |  previous  |    0.000000 |    0.433889 |   -47148.300559 | <-- min LBFGS
 | trial step |    1.000000 |    0.238985 |   -47148.440646 | <-- min LBFGS
 +------------+-------------+-------------+-----------------+ <-- min LBFGS
  

--------------------------------------------------------------------------------
 LBFGS: improving iteration         2 with line minimization (lambda=  2.226172)
--------------------------------------------------------------------------------

                           -------------------------------
                                     Cell Contents
                           -------------------------------

            xxxxxxxxxxxxxxxxxxxxxxxxxxxxxxxxxxxxxxxxxxxxxxxxxxxxxxxxxxxxxxxxx
            x  Element         Atom        Fractional coordinates of atoms  x
            x                 Number           u          v          w      x
            x---------------------------------------------------------------x
            x  P                 1         0.000000   0.239242   0.753301   x
            x  P                 2         0.000000   0.689770   0.414737   x
            x  P                 3         0.250000   0.489248   0.753285   x
            x  P                 4         0.750000   0.489248   0.753285   x
            x  P                 5         0.250000  -0.010753   0.753285   x
            x  P                 6         0.750000  -0.010753   0.753285   x
            x  P                 7         0.500000   0.137592   0.083994   x
            x  P                 8         0.500000   0.239242   0.753301   x
            x  P                 9         0.000000   0.637592   0.083994   x
            x  P                10         0.000000   0.137592   0.083994   x
            x  P                11         0.250000   0.387582   0.084022   x
            x  P                12         0.000000   0.189770   0.414737   x
            x  P                13         0.250000  -0.060232   0.414745   x
            x  P                14         0.000000  -0.260758   0.753301   x
            x  P                15         0.500000  -0.260758   0.753301   x
            x  P                16         0.750000   0.387582   0.084022   x
            x  P                17         0.500000   0.637592   0.083994   x
            x  P                18         0.750000   0.887582   0.084023   x
            x  P                19         0.250000   0.887582   0.084023   x
            x  P                20         0.500000   0.689770   0.414737   x
            x  P                21         0.500000   0.189770   0.414737   x
            x  P                22         0.750000   0.439768   0.414745   x
            x  P                23         0.750000  -0.060232   0.414745   x
            x  P                24         0.250000   0.439768   0.414744   x
            x  In                1         0.500000   0.603354   0.664384   x
            x  In                2         0.750000  -0.146647   0.664388   x
            x  In                3         0.250000   0.751297  -0.003747   x
            x  In                4         0.750000   0.751297  -0.003747   x
            x  In                5         0.250000  -0.146647   0.664388   x
            x  In                6         0.500000   0.103354   0.664384   x
            x  In                7         0.500000   0.501296  -0.003745   x
            x  In                8         0.250000   0.799903   0.337316   x
            x  In                9         0.500000   0.549903   0.337317   x
            x  In               10         0.750000   0.251297  -0.003747   x
            x  In               11         0.750000   0.299903   0.337316   x
            x  In               12         0.000000   0.049903   0.337317   x
            x  In               13         0.000000   0.001296  -0.003743   x
            x  In               14         0.000000   0.549903   0.337317   x
            x  In               15         0.250000   0.353353   0.664388   x
            x  In               16         0.000000   0.501296  -0.003744   x
            x  In               17         0.250000   0.251297  -0.003748   x
            x  In               18         0.000000   0.603354   0.664384   x
            x  In               19         0.000000   0.103354   0.664385   x
            x  In               20         0.750000   0.799903   0.337316   x
            x  In               21         0.250000   0.299904   0.337316   x
            x  In               22         0.500000   0.001296  -0.003744   x
            x  In               23         0.500000   0.049903   0.337317   x
            x  In               24         0.750000   0.353353   0.664388   x
            xxxxxxxxxxxxxxxxxxxxxxxxxxxxxxxxxxxxxxxxxxxxxxxxxxxxxxxxxxxxxxxxx


------------------------------------------------------------------------ <-- SCF
SCF loop      Energy           Fermi           Energy gain       Timer   <-- SCF
                               energy          per atom          (sec)   <-- SCF
------------------------------------------------------------------------ <-- SCF
Initial  -4.71417097E+004  0.00000000E+000                      3277.05  <-- SCF
      1  -4.71481192E+004  3.44013680E+000   1.33531206E-001    3342.73  <-- SCF
      2  -4.71485044E+004  3.43999781E+000   8.02543079E-003    3419.63  <-- SCF
      3  -4.71484984E+004  3.43918899E+000  -1.25098939E-004    3486.62  <-- SCF
      4  -4.71484968E+004  3.44025993E+000  -3.29648159E-005    3556.24  <-- SCF
      5  -4.71484961E+004  3.44156863E+000  -1.44455475E-005    3622.94  <-- SCF
      6  -4.71484959E+004  3.44210608E+000  -3.93292507E-006    3691.21  <-- SCF
      7  -4.71484959E+004  3.44235593E+000  -9.01251749E-007    3756.17  <-- SCF
      8  -4.71484959E+004  3.44242229E+000  -3.16808006E-008    3812.96  <-- SCF
      9  -4.71484959E+004  3.44242960E+000   3.75096142E-009    3860.30  <-- SCF
     10  -4.71484959E+004  3.44242783E+000   1.51946162E-009    3905.32  <-- SCF
     11  -4.71484959E+004  3.44242759E+000   2.63985188E-010    3949.71  <-- SCF
------------------------------------------------------------------------ <-- SCF
 
Final energy, E             =  -47148.44492881     eV
Final free energy (E-TS)    =  -47148.49588696     eV
(energies not corrected for finite basis set)
 
NB est. 0K energy (E-0.5TS)      =  -47148.47040789     eV
 

 ******************************** Constrained Forces ********************************
 *                                                                                  *
 *                           Cartesian components (eV/A)                            *
 * -------------------------------------------------------------------------------- *
 *                         x                    y                    z              *
 *                                                                                  *
 * P               1      0.00000(cons'd)      0.00000(cons'd)      0.05976         *
 * P               2      0.00000(cons'd)     -0.00000(cons'd)     -0.01730         *
 * P               3      0.00000(cons'd)      0.00000(cons'd)      0.06180         *
 * P               4      0.00000(cons'd)     -0.00000(cons'd)      0.06181         *
[...]
     In     7      S                   -0.468
     In     8      Dzz                  1.997
     In     8      Dzy                  1.998
     In     8      Dzx                  1.998
     In     8      Dxx-yy               1.997
     In     8      Dxy                  1.997
     In     8      S                    1.468
     In     8      Px                   0.492
     In     8      Py                   0.494
     In     8      Pz                   0.488
     In     8      S                   -0.521
     In     9      Dzz                  1.997
     In     9      Dzy                  1.998
     In     9      Dzx                  1.998
     In     9      Dxx-yy               1.997
     In     9      Dxy                  1.997
     In     9      S                    1.468
     In     9      Px                   0.492
     In     9      Py                   0.494
     In     9      Pz                   0.488
     In     9      S                   -0.521
     In    10      Dzz                  1.998
     In    10      Dzy                  1.999
     In    10      Dzx                  1.999
     In    10      Dxx-yy               1.998
     In    10      Dxy                  1.998
     In    10      S                    1.406
     In    10      Px                   0.475
     In    10      Py                   0.476
     In    10      Pz                   0.334
     In    10      S                   -0.468
     In    11      Dzz                  1.997
     In    11      Dzy                  1.998
     In    11      Dzx                  1.998
     In    11      Dxx-yy               1.997
     In    11      Dxy                  1.997
     In    11      S                    1.468
     In    11      Px                   0.492
     In    11      Py                   0.494
     In    11      Pz                   0.488
     In    11      S                   -0.521
     In    12      Dzz                  1.997
     In    12      Dzy                  1.998
     In    12      Dzx                  1.998
     In    12      Dxx-yy               1.997
     In    12      Dxy                  1.997
     In    12      S                    1.468
     In    12      Px                   0.492
     In    12      Py                   0.494
     In    12      Pz                   0.488
     In    12      S                   -0.521
     In    13      Dzz                  1.998
     In    13      Dzy                  1.999
     In    13      Dzx                  1.999
     In    13      Dxx-yy               1.998
     In    13      Dxy                  1.998
     In    13      S                    1.406
     In    13      Px                   0.475
     In    13      Py                   0.476
     In    13      Pz                   0.334
     In    13      S                   -0.468
     In    14      Dzz                  1.997
     In    14      Dzy                  1.998
     In    14      Dzx                  1.998
     In    14      Dxx-yy               1.997
     In    14      Dxy                  1.997
     In    14      S                    1.468
     In    14      Px                   0.492
     In    14      Py                   0.494
     In    14      Pz                   0.488
     In    14      S                   -0.521
     In    15      Dzz                  1.996
     In    15      Dzy                  1.999
     In    15      Dzx                  1.999
     In    15      Dxx-yy               1.998
     In    15      Dxy                  1.998
     In    15      S                    1.373
     In    15      Px                   0.490
     In    15      Py                   0.500
     In    15      Pz                   0.527
     In    15      S                   -0.433
     In    16      Dzz                  1.998
     In    16      Dzy                  1.999
     In    16      Dzx                  1.999
     In    16      Dxx-yy               1.998
     In    16      Dxy                  1.998
     In    16      S                    1.406
     In    16      Px                   0.475
     In    16      Py                   0.476
     In    16      Pz                   0.334
     In    16      S                   -0.468
     In    17      Dzz                  1.998
     In    17      Dzy                  1.999
     In    17      Dzx                  1.999
     In    17      Dxx-yy               1.998
     In    17      Dxy                  1.998
     In    17      S                    1.406
     In    17      Px                   0.475
     In    17      Py                   0.476
     In    17      Pz                   0.334
     In    17      S                   -0.468
     In    18      Dzz                  1.996
     In    18      Dzy                  1.999
     In    18      Dzx                  1.999
     In    18      Dxx-yy               1.998
     In    18      Dxy                  1.998
     In    18      S                    1.373
     In    18      Px                   0.490
     In    18      Py                   0.500
     In    18      Pz                   0.527
     In    18      S                   -0.433
     In    19      Dzz                  1.996
     In    19      Dzy                  1.999
     In    19      Dzx                  1.999
     In    19      Dxx-yy               1.998
     In    19      Dxy                  1.998
     In    19      S                    1.373
     In    19      Px                   0.490
     In    19      Py                   0.500
     In    19      Pz                   0.527
     In    19      S                   -0.433
     In    20      Dzz                  1.997
     In    20      Dzy                  1.998
     In    20      Dzx                  1.998
     In    20      Dxx-yy               1.997
     In    20      Dxy                  1.997
     In    20      S                    1.468
     In    20      Px                   0.492
     In    20      Py                   0.494
     In    20      Pz                   0.488
     In    20      S                   -0.521
     In    21      Dzz                  1.997
     In    21      Dzy                  1.998
     In    21      Dzx                  1.998
     In    21      Dxx-yy               1.997
     In    21      Dxy                  1.997
     In    21      S                    1.468
     In    21      Px                   0.492
     In    21      Py                   0.494
     In    21      Pz                   0.488
     In    21      S                   -0.521
     In    22      Dzz                  1.998
     In    22      Dzy                  1.999
     In    22      Dzx                  1.999
     In    22      Dxx-yy               1.998
     In    22      Dxy                  1.998
     In    22      S                    1.406
     In    22      Px                   0.475
     In    22      Py                   0.476
     In    22      Pz                   0.334
     In    22      S                   -0.468
     In    23      Dzz                  1.997
     In    23      Dzy                  1.998
     In    23      Dzx                  1.998
     In    23      Dxx-yy               1.997
     In    23      Dxy                  1.997
     In    23      S                    1.468
     In    23      Px                   0.492
     In    23      Py                   0.494
     In    23      Pz                   0.488
     In    23      S                   -0.521
     In    24      Dzz                  1.996
     In    24      Dzy                  1.999
     In    24      Dzx                  1.999
     In    24      Dxx-yy               1.998
     In    24      Dxy                  1.998
     In    24      S                    1.373
     In    24      Px                   0.490
     In    24      Py                   0.500
     In    24      Pz                   0.527
     In    24      S                   -0.433
  -------------------------------------------
                           Total:     432.000
  -------------------------------------------

     Atomic Populations (Mulliken)
     -----------------------------
Species          Ion     s       p       d       f      Total   Charge (e)
==========================================================================
  P               1     1.787   3.895   0.000   0.000   5.681    -0.681
  P               2     1.736   3.917   0.000   0.000   5.653    -0.653
  P               3     1.787   3.895   0.000   0.000   5.681    -0.681
  P               4     1.787   3.895   0.000   0.000   5.681    -0.681
  P               5     1.787   3.895   0.000   0.000   5.681    -0.681
  P               6     1.787   3.895   0.000   0.000   5.681    -0.681
  P               7     1.761   3.835   0.000   0.000   5.596    -0.596
  P               8     1.787   3.895   0.000   0.000   5.681    -0.681
  P               9     1.761   3.835   0.000   0.000   5.596    -0.596
  P              10     1.761   3.835   0.000   0.000   5.596    -0.596
  P              11     1.761   3.835   0.000   0.000   5.596    -0.596
  P              12     1.736   3.917   0.000   0.000   5.653    -0.653
  P              13     1.736   3.917   0.000   0.000   5.653    -0.653
  P              14     1.787   3.895   0.000   0.000   5.681    -0.681
  P              15     1.787   3.895   0.000   0.000   5.681    -0.681
  P              16     1.761   3.835   0.000   0.000   5.596    -0.596
  P              17     1.761   3.835   0.000   0.000   5.596    -0.596
  P              18     1.761   3.835   0.000   0.000   5.596    -0.596
  P              19     1.761   3.835   0.000   0.000   5.596    -0.596
  P              20     1.736   3.917   0.000   0.000   5.653    -0.653
  P              21     1.736   3.917   0.000   0.000   5.653    -0.653
  P              22     1.736   3.917   0.000   0.000   5.653    -0.653
  P              23     1.736   3.917   0.000   0.000   5.653    -0.653
  P              24     1.736   3.917   0.000   0.000   5.653    -0.653
  In              1     0.940   1.517   9.989   0.000  12.446     0.554
  In              2     0.940   1.517   9.989   0.000  12.446     0.554
  In              3     0.938   1.285   9.992   0.000  12.215     0.785
  In              4     0.938   1.285   9.992   0.000  12.215     0.785
  In              5     0.940   1.517   9.989   0.000  12.446     0.554
  In              6     0.940   1.517   9.989   0.000  12.446     0.554
  In              7     0.938   1.285   9.992   0.000  12.215     0.785
  In              8     0.947   1.473   9.988   0.000  12.409     0.591
  In              9     0.947   1.473   9.988   0.000  12.409     0.591
  In             10     0.938   1.285   9.992   0.000  12.215     0.785
  In             11     0.947   1.473   9.988   0.000  12.409     0.591
  In             12     0.947   1.473   9.988   0.000  12.409     0.591
  In             13     0.938   1.285   9.992   0.000  12.215     0.785
  In             14     0.947   1.473   9.988   0.000  12.409     0.591
  In             15     0.940   1.517   9.989   0.000  12.446     0.554
  In             16     0.938   1.285   9.992   0.000  12.215     0.785
  In             17     0.938   1.285   9.992   0.000  12.215     0.785
  In             18     0.940   1.517   9.989   0.000  12.446     0.554
  In             19     0.940   1.517   9.989   0.000  12.446     0.554
  In             20     0.947   1.473   9.988   0.000  12.409     0.591
  In             21     0.947   1.473   9.988   0.000  12.409     0.591
  In             22     0.938   1.285   9.992   0.000  12.215     0.785
  In             23     0.947   1.473   9.988   0.000  12.409     0.591
  In             24     0.940   1.517   9.989   0.000  12.446     0.554
==========================================================================

                 Bond                   Population      Length (A)
======================================================================
              P 23 -- In 20                  0.63        2.53753
              P 13 -- In 8                   0.63        2.53753
              P 22 -- In 11                  0.63        2.53753
              P 24 -- In 21                  0.63        2.53753
              P 24 -- In 14                  0.67        2.53759
              P 22 -- In 14                  0.67        2.53759
              P 22 -- In 9                   0.67        2.53759
              P 13 -- In 12                  0.67        2.53759
              P 23 -- In 12                  0.67        2.53759
              P 24 -- In 9                   0.67        2.53759
              P 23 -- In 23                  0.67        2.53759
              P 13 -- In 23                  0.67        2.53759
              P 20 -- In 20                  0.67        2.53763
              P 2  -- In 20                  0.67        2.53763
              P 21 -- In 11                  0.67        2.53763
              P 2  -- In 8                   0.67        2.53763
              P 12 -- In 11                  0.67        2.53763
              P 12 -- In 21                  0.67        2.53763
              P 20 -- In 8                   0.67        2.53763
              P 21 -- In 21                  0.67        2.53763
              P 21 -- In 23                  0.63        2.53770
              P 20 -- In 9                   0.63        2.53770
              P 12 -- In 12                  0.63        2.53770
              P 2  -- In 14                  0.63        2.53770
              P 20 -- In 1                   0.62        2.55323
              P 2  -- In 18                  0.62        2.55323
              P 21 -- In 6                   0.62        2.55323
              P 12 -- In 19                  0.62        2.55323
              P 24 -- In 15                  0.62        2.55335
              P 13 -- In 5                   0.62        2.55335
              P 23 -- In 2                   0.62        2.55335
              P 22 -- In 24                  0.62        2.55335
              P 18 -- In 20                  0.49        2.56739
              P 19 -- In 8                   0.49        2.56739
              P 16 -- In 11                  0.49        2.56739
              P 11 -- In 21                  0.49        2.56739
              P 9  -- In 14                  0.49        2.56750
              P 17 -- In 9                   0.49        2.56750
              P 10 -- In 12                  0.49        2.56750
              P 7  -- In 23                  0.49        2.56750
              P 10 -- In 13                  0.66        2.56968
              P 9  -- In 16                  0.66        2.56968
              P 7  -- In 22                  0.66        2.56968
              P 17 -- In 7                   0.66        2.56968
              P 17 -- In 4                   0.69        2.56972
              P 9  -- In 4                   0.69        2.56972
              P 7  -- In 10                  0.69        2.56972
              P 10 -- In 10                  0.69        2.56973
              P 9  -- In 3                   0.69        2.56973
              P 10 -- In 17                  0.69        2.56973
              P 17 -- In 3                   0.69        2.56973
              P 7  -- In 17                  0.69        2.56973
              P 19 -- In 13                  0.69        2.56979
              P 18 -- In 13                  0.69        2.56979
              P 11 -- In 16                  0.69        2.56979
              P 18 -- In 22                  0.69        2.56979
              P 16 -- In 16                  0.69        2.56979
              P 19 -- In 22                  0.69        2.56979
              P 16 -- In 7                   0.69        2.56979
              P 11 -- In 7                   0.69        2.56979
              P 16 -- In 10                  0.66        2.56983
              P 18 -- In 4                   0.66        2.56983
              P 11 -- In 17                  0.66        2.56984
              P 19 -- In 3                   0.66        2.56984
              P 1  -- In 19                  0.65        2.58124
              P 8  -- In 6                   0.65        2.58124
              P 14 -- In 18                  0.65        2.58124
              P 15 -- In 1                   0.65        2.58124
              P 3  -- In 18                  0.66        2.58131
              P 4  -- In 18                  0.66        2.58131
              P 5  -- In 19                  0.66        2.58131
              P 4  -- In 1                   0.66        2.58131
              P 6  -- In 19                  0.66        2.58131
              P 6  -- In 6                   0.66        2.58131
              P 3  -- In 1                   0.66        2.58131
              P 5  -- In 6                   0.66        2.58131
              P 15 -- In 2                   0.66        2.58131
              P 14 -- In 2                   0.66        2.58131
              P 8  -- In 24                  0.66        2.58131
              P 14 -- In 5                   0.66        2.58131
              P 1  -- In 24                  0.66        2.58131
              P 1  -- In 15                  0.66        2.58131
              P 15 -- In 5                   0.66        2.58131
              P 8  -- In 15                  0.66        2.58131
              P 4  -- In 24                  0.65        2.58138
              P 6  -- In 2                   0.65        2.58138
              P 3  -- In 15                  0.65        2.58138
              P 5  -- In 5                   0.65        2.58138
======================================================================


     Hirshfeld Analysis
     ------------------
Species   Ion     Hirshfeld Charge (e)
======================================
  P        1                -0.28
  P        2                -0.23
  P        3                -0.28
  P        4                -0.28
  P        5                -0.28
  P        6                -0.28
  P        7                -0.21
  P        8                -0.28
  P        9                -0.21
  P       10                -0.21
  P       11                -0.21
  P       12                -0.23
  P       13                -0.23
  P       14                -0.28
  P       15                -0.28
  P       16                -0.21
  P       17                -0.21
  P       18                -0.21
  P       19                -0.21
  P       20                -0.23
  P       21                -0.23
  P       22                -0.23
  P       23                -0.23
  P       24                -0.23
  In       1                 0.19
  In       2                 0.19
  In       3                 0.31
  In       4                 0.31
  In       5                 0.19
  In       6                 0.19
  In       7                 0.31
  In       8                 0.22
  In       9                 0.22
  In      10                 0.31
  In      11                 0.22
  In      12                 0.22
  In      13                 0.31
  In      14                 0.22
  In      15                 0.19
  In      16                 0.31
  In      17                 0.31
  In      18                 0.19
  In      19                 0.19
  In      20                 0.22
  In      21                 0.22
  In      22                 0.31
  In      23                 0.22
  In      24                 0.19
======================================

 
 A BibTeX formatted list of references used in this run has been written to 
 StackingFaultStructs_(1_1_1)_(1_1_-2)_6.bib
 
Initialisation time =     21.65 s
Calculation time    =   5986.15 s
Finalisation time   =      5.19 s
Total time          =   6012.98 s
Peak Memory Use     = 3461456 kB
 
Overall parallel efficiency rating: Poor (45%)
 
Data was distributed by:-
G-vector (7-way); efficiency rating: Mediocre (50%)
k-point (36-way); efficiency rating: Very good (82%)
