65
Lattice="11.80255 0.0 0.0 0.0 11.80255 0.0 0.0 0.0 11.80255" Properties=species:S:1:pos:R:3:forces:R:3 config_type=Interstitial energy=-63088.3378429 pbc="T T T"
P        1.47531875       1.47531875       4.42595625      -0.01315000       0.01314000      -0.02575000
P        4.42595625       1.47531875       1.47531875       0.23738000       0.23738000       0.23738000
P        1.47531875       4.42595625       1.47531875      -0.01315000      -0.02575000       0.01314000
P        4.42595625       4.42595625       4.42595625       0.00066000       0.02509000       0.02509000
P        1.47531875       1.47531875      10.32723125      -0.23738000       0.23738000      -0.23738000
P        4.42595625       1.47531875       7.37659375       0.01314000       0.01314000       0.02574000
P        1.47531875       4.42595625       7.37659375      -0.00066000       0.02509000      -0.02509000
P        4.42595625       4.42595625      10.32723125       0.01314000      -0.02575000      -0.01314000
P        1.47531875       7.37659375       4.42595625      -0.00066000      -0.02509000       0.02509000
P        4.42595625       7.37659375       1.47531875       0.01314000       0.02574000       0.01314000
P        1.47531875      10.32723125       1.47531875      -0.23738000      -0.23738000       0.23738000
P        4.42595625      10.32723125       4.42595625       0.01314000      -0.01314000      -0.02575000
P        1.47531875       7.37659375      10.32723125      -0.01315000       0.02574000      -0.01314000
P        4.42595625       7.37659375       7.37659375       0.00066000      -0.02509000      -0.02509000
P        1.47531875      10.32723125       7.37659375      -0.01315000      -0.01314000       0.02574000
P        4.42595625      10.32723125      10.32723125       0.23738000      -0.23738000      -0.23738000
P        7.37659375       1.47531875       4.42595625       0.02508000       0.00065000       0.02509000
P       10.32723125       1.47531875       1.47531875       0.02575000       0.01314000       0.01314000
P        7.37659375       4.42595625       1.47531875       0.02508000       0.02509000       0.00065000
P       10.32723125       4.42595625       4.42595625       0.00303000      -0.00303000      -0.00303000
P        7.37659375       1.47531875      10.32723125      -0.02575000       0.01314000      -0.01314000
P       10.32723125       1.47531875       7.37659375      -0.02509000       0.00065000      -0.02509000
P        7.37659375       4.42595625       7.37659375      -0.00303000      -0.00303000       0.00302000
P       10.32723125       4.42595625      10.32723125      -0.02509000       0.02509000      -0.00066000
P        7.37659375       7.37659375       4.42595625      -0.00303000       0.00302000      -0.00303000
P       10.32723125       7.37659375       1.47531875      -0.02509000      -0.02509000       0.00065000
P        7.37659375      10.32723125       1.47531875      -0.02575000      -0.01314000       0.01314000
P       10.32723125      10.32723125       4.42595625      -0.02509000      -0.00066000       0.02509000
P        7.37659375       7.37659375      10.32723125       0.02508000      -0.02509000      -0.00066000
P       10.32723125       7.37659375       7.37659375       0.00303000       0.00302000       0.00302000
P        7.37659375      10.32723125       7.37659375       0.02508000      -0.00066000      -0.02509000
P       10.32723125      10.32723125      10.32723125       0.02575000      -0.01314000      -0.01314000
P        2.95063750       0.00000000       0.00000000       0.00000000      -0.00000000      -0.00000000
In       0.00000000       0.00000000       0.00000000      -0.65168000      -0.00000000      -0.00000000
In       2.95063750       0.00000000       2.95063750       0.00001000      -0.00000000       0.65168000
In       0.00000000       2.95063750       2.95063750      -0.02150000       0.02151000       0.02151000
In       2.95063750       2.95063750       0.00000000       0.00001000       0.65168000      -0.00000000
In       0.00000000       0.00000000       5.90127500      -0.06465000      -0.00000000      -0.00000000
In       2.95063750       0.00000000       8.85191250       0.00000000      -0.00000000      -0.65167000
In       0.00000000       2.95063750       8.85191250      -0.18374000       0.18374000      -0.18373000
In       2.95063750       2.95063750       5.90127500       0.00001000       0.06465000      -0.00000000
In       0.00000000       5.90127500       0.00000000      -0.06465000      -0.00000000      -0.00000000
In       2.95063750       5.90127500       2.95063750       0.00001000      -0.00000000       0.06465000
In       0.00000000       8.85191250       2.95063750      -0.18374000      -0.18373000       0.18374000
In       2.95063750       8.85191250       0.00000000       0.00000000      -0.65167000      -0.00000000
In       0.00000000       5.90127500       5.90127500       0.02836000      -0.00000000      -0.00000000
In       2.95063750       5.90127500       8.85191250       0.00001000      -0.00000000      -0.06464000
In       0.00000000       8.85191250       8.85191250      -0.02150000      -0.02150000      -0.02150000
In       2.95063750       8.85191250       5.90127500       0.00001000      -0.06464000      -0.00000000
In       5.90127500       0.00000000       0.00000000       0.65167000      -0.00000000      -0.00000000
In       8.85191250       0.00000000       2.95063750       0.00001000      -0.00000000       0.06465000
In       5.90127500       2.95063750       2.95063750       0.18374000       0.18374000       0.18374000
In       8.85191250       2.95063750       0.00000000       0.00001000       0.06465000      -0.00000000
In       5.90127500       0.00000000       5.90127500       0.06465000      -0.00000000      -0.00000000
In       8.85191250       0.00000000       8.85191250       0.00001000      -0.00000000      -0.06464000
In       5.90127500       2.95063750       8.85191250       0.02150000       0.02151000      -0.02150000
In       8.85191250       2.95063750       5.90127500       0.00001000      -0.02835000      -0.00000000
In       5.90127500       5.90127500       0.00000000       0.06465000      -0.00000000      -0.00000000
In       8.85191250       5.90127500       2.95063750       0.00001000      -0.00000000      -0.02835000
In       5.90127500       8.85191250       2.95063750       0.02150000      -0.02150000       0.02151000
In       8.85191250       8.85191250       0.00000000       0.00001000      -0.06464000      -0.00000000
In       5.90127500       5.90127500       5.90127500      -0.02836000      -0.00000000      -0.00000000
In       8.85191250       5.90127500       8.85191250       0.00001000      -0.00000000       0.02836000
In       5.90127500       8.85191250       8.85191250       0.18374000      -0.18373000      -0.18373000
In       8.85191250       8.85191250       5.90127500       0.00001000       0.02836000      -0.00000000
65
Lattice="11.80255 0.0 0.0 0.0 11.80255 0.0 0.0 0.0 11.80255" Properties=species:S:1:pos:R:3:forces:R:3 config_type=Interstitial energy=-63088.34282828 pbc="T T T"
P        1.47530695       1.47534236       4.42592084      -0.01456000       0.01455000      -0.02303000
P        4.42627492       1.47563742       1.47563742       0.23389000       0.23389000       0.23389000
P        1.47530695       4.42592084       1.47534236      -0.01456000      -0.02303000       0.01455000
P        4.42595625       4.42599166       4.42599166       0.00076000       0.02545000       0.02545000
P        1.47500008       1.47563742      10.32691258      -0.23390000       0.23389000      -0.23389000
P        4.42596805       1.47534236       7.37662916       0.01456000       0.01455000       0.02303000
P        1.47531875       4.42599166       7.37655834      -0.00076000       0.02545000      -0.02545000
P        4.42596805       4.42592084      10.32720764       0.01456000      -0.02303000      -0.01455000
P        1.47531875       7.37655834       4.42599166      -0.00076000      -0.02545000       0.02545000
P        4.42596805       7.37662916       1.47534236       0.01456000       0.02303000       0.01455000
P        1.47500008      10.32691258       1.47563742      -0.23390000      -0.23389000       0.23389000
P        4.42596805      10.32720764       4.42592084       0.01456000      -0.01455000      -0.02303000
P        1.47530695       7.37662916      10.32720764      -0.01456000       0.02303000      -0.01455000
P        4.42595625       7.37655834       7.37655834       0.00076000      -0.02545000      -0.02545000
P        1.47530695      10.32720764       7.37662916      -0.01456000      -0.01455000       0.02303000
P        4.42627492      10.32691258      10.32691258       0.23389000      -0.23389000      -0.23389000
P        7.37662916       1.47531875       4.42599166       0.02544000       0.00075000       0.02545000
P       10.32726666       1.47534236       1.47534236       0.02303000       0.01455000       0.01455000
P        7.37662916       4.42599166       1.47531875       0.02544000       0.02545000       0.00075000
P       10.32723125       4.42595625       4.42595625       0.00281000      -0.00281000      -0.00281000
P        7.37655834       1.47534236      10.32720764      -0.02304000       0.01455000      -0.01455000
P       10.32719584       1.47531875       7.37655834      -0.02545000       0.00075000      -0.02545000
P        7.37659375       4.42595625       7.37659375      -0.00282000      -0.00281000       0.00281000
P       10.32719584       4.42599166      10.32723125      -0.02545000       0.02545000      -0.00076000
P        7.37659375       7.37659375       4.42595625      -0.00282000       0.00281000      -0.00281000
P       10.32719584       7.37655834       1.47531875      -0.02545000      -0.02545000       0.00075000
P        7.37655834      10.32720764       1.47534236      -0.02304000      -0.01455000       0.01455000
P       10.32719584      10.32723125       4.42599166      -0.02545000      -0.00076000       0.02545000
P        7.37662916       7.37655834      10.32723125       0.02544000      -0.02545000      -0.00076000
P       10.32723125       7.37659375       7.37659375       0.00281000       0.00281000       0.00281000
P        7.37662916      10.32723125       7.37655834       0.02544000      -0.00076000      -0.02545000
P       10.32726666      10.32720764      10.32720764       0.02303000      -0.01455000      -0.01455000
P        2.95063750       0.00000000       0.00000000       0.00000000      -0.00000000      -0.00000000
In      -0.00088519       0.00000000       0.00000000      -0.63952000      -0.00000000      -0.00000000
In       2.95063750       0.00000000       2.95152269       0.00001000      -0.00000000       0.63952000
In      -0.00002361       2.95066111       2.95066111      -0.02105000       0.02105000       0.02105000
In       2.95063750       2.95152269       0.00000000       0.00001000       0.63952000      -0.00000000
In      -0.00008262       0.00000000       5.90127500      -0.06378000      -0.00000000      -0.00000000
In       2.95063750       0.00000000       8.85102731       0.00000000      -0.00000000      -0.63951000
In      -0.00024785       2.95088535       8.85166465      -0.18232000       0.18232000      -0.18231000
In       2.95063750       2.95072012       5.90127500       0.00001000       0.06378000      -0.00000000
In      -0.00008262       5.90127500       0.00000000      -0.06378000      -0.00000000      -0.00000000
In       2.95063750       5.90127500       2.95072012       0.00001000      -0.00000000       0.06378000
In      -0.00024785       8.85166465       2.95088535      -0.18232000      -0.18231000       0.18232000
In       2.95063750       8.85102731       0.00000000       0.00000000      -0.63951000      -0.00000000
In       0.00003541       5.90127500       5.90127500       0.02827000      -0.00000000      -0.00000000
In       2.95063750       5.90127500       8.85182988       0.00001000      -0.00000000      -0.06377000
In      -0.00002361       8.85187709       8.85187709      -0.02105000      -0.02104000      -0.02104000
In       2.95063750       8.85182988       5.90127500       0.00001000      -0.06377000      -0.00000000
In       5.90216019       0.00000000       0.00000000       0.63952000      -0.00000000      -0.00000000
In       8.85191250       0.00000000       2.95072012       0.00001000      -0.00000000       0.06378000
In       5.90152285       2.95088535       2.95088535       0.18232000       0.18232000       0.18232000
In       8.85191250       2.95072012       0.00000000       0.00001000       0.06378000      -0.00000000
In       5.90135762       0.00000000       5.90127500       0.06377000      -0.00000000      -0.00000000
In       8.85191250       0.00000000       8.85182988       0.00001000      -0.00000000      -0.06377000
In       5.90129861       2.95066111       8.85187709       0.02104000       0.02105000      -0.02104000
In       8.85191250       2.95060209       5.90127500       0.00001000      -0.02827000      -0.00000000
In       5.90135762       5.90127500       0.00000000       0.06377000      -0.00000000      -0.00000000
In       8.85191250       5.90127500       2.95060209       0.00001000      -0.00000000      -0.02827000
In       5.90129861       8.85187709       2.95066111       0.02104000      -0.02104000       0.02105000
In       8.85191250       8.85182988       0.00000000       0.00001000      -0.06377000      -0.00000000
In       5.90123959       5.90127500       5.90127500      -0.02827000      -0.00000000      -0.00000000
In       8.85191250       5.90127500       8.85194791       0.00001000      -0.00000000       0.02828000
In       5.90152285       8.85166465       8.85166465       0.18232000      -0.18231000      -0.18231000
In       8.85191250       8.85194791       5.90127500       0.00001000       0.02828000      -0.00000000
65
Lattice="11.80255 0.0 0.0 0.0 11.80255 0.0 0.0 0.0 11.80255" Properties=species:S:1:pos:R:3:forces:R:3 config_type=Interstitial energy=-63088.50034898 pbc="T T T"
P        1.47424472       1.47639278       4.42385540      -0.10525000       0.10525000       0.14313000
P        4.44533604       1.49469854       1.49469854       0.04200000       0.04200000       0.04200000
P        1.47424472       4.42385540       1.47639278      -0.10525000       0.14313000       0.10525000
P        4.42601526       4.42800989       4.42800989       0.00596000       0.04763000       0.04763000
P        1.45593896       1.49469854      10.30785146      -0.04200000       0.04200000      -0.04200000
P        4.42703028       1.47639278       7.37869460       0.10525000       0.10525000      -0.14313000
P        1.47525974       4.42800989       7.37454011      -0.00596000       0.04763000      -0.04763000
P        4.42703028       4.42385540      10.32615722       0.10525000       0.14313000      -0.10525000
P        1.47525974       7.37454011       4.42800989      -0.00596000      -0.04763000       0.04763000
P        4.42703028       7.37869460       1.47639278       0.10525000      -0.14313000       0.10525000
P        1.45593896      10.30785146       1.49469854      -0.04200000      -0.04200000       0.04200000
P        4.42703028      10.32615722       4.42385540       0.10525000      -0.10525000       0.14313000
P        1.47424472       7.37869460      10.32615722      -0.10525000      -0.14313000      -0.10525000
P        4.42601526       7.37454011       7.37454011       0.00596000      -0.04763000      -0.04763000
P        1.47424472      10.32615722       7.37869460      -0.10525000      -0.10525000      -0.14313000
P        4.44533604      10.30785146      10.30785146       0.04200000      -0.04200000      -0.04200000
P        7.37864739       1.47537776       4.42800989       0.04763000       0.00596000       0.04763000
P       10.32933210       1.47639278       1.47639278      -0.14313000       0.10525000       0.10525000
P        7.37864739       4.42800989       1.47537776       0.04763000       0.04763000       0.00596000
P       10.32747910       4.42570840       4.42570840      -0.01071000       0.01071000       0.01071000
P        7.37449290       1.47639278      10.32615722       0.14313000       0.10525000      -0.10525000
P       10.32517761       1.47537776       7.37454011      -0.04763000       0.00596000      -0.04763000
P        7.37634590       4.42570840       7.37684160       0.01071000       0.01071000      -0.01071000
P       10.32517761       4.42800989      10.32717224      -0.04763000       0.04763000      -0.00596000
P        7.37634590       7.37684160       4.42570840       0.01071000      -0.01071000       0.01071000
P       10.32517761       7.37454011       1.47537776      -0.04763000      -0.04763000       0.00596000
P        7.37449290      10.32615722       1.47639278       0.14313000      -0.10525000       0.10525000
P       10.32517761      10.32717224       4.42800989      -0.04763000      -0.00596000       0.04763000
P        7.37864739       7.37454011      10.32717224       0.04763000      -0.04763000      -0.00596000
P       10.32747910       7.37684160       7.37684160      -0.01071000      -0.01071000      -0.01071000
P        7.37864739      10.32717224       7.37454011       0.04763000      -0.00596000      -0.04763000
P       10.32933210      10.32615722      10.32615722      -0.14313000      -0.10525000      -0.10525000
P        2.95063750       0.00000000       0.00000000       0.00000000       0.00000000       0.00000000
In      -0.05321770       0.00000000       0.00000000       0.02485000      -0.00000000      -0.00000000
In       2.95063750       0.00000000       3.00385520      -0.00000000      -0.00000000      -0.02485000
In      -0.00175858       2.95239608       2.95239608       0.00334000      -0.00334000      -0.00334000
In       2.95063750       3.00385520       0.00000000      -0.00000000      -0.02485000      -0.00000000
In      -0.00527574       0.00000000       5.90127500      -0.01988000      -0.00000000      -0.00000000
In       2.95063750       0.00000000       8.79869480      -0.00000000      -0.00000000       0.02485000
In      -0.01500104       2.96563854       8.83691146      -0.10954000       0.10954000      -0.10954000
In       2.95063750       2.95591324       5.90127500      -0.00000000       0.01988000      -0.00000000
In      -0.00527574       5.90127500       0.00000000      -0.01988000      -0.00000000      -0.00000000
In       2.95063750       5.90127500       2.95591324      -0.00000000      -0.00000000       0.01988000
In      -0.01500104       8.83691146       2.96563854      -0.10954000      -0.10954000       0.10954000
In       2.95063750       8.79869480       0.00000000      -0.00000000       0.02485000      -0.00000000
In       0.00231330       5.90127500       5.90127500       0.02658000      -0.00000000      -0.00000000
In       2.95063750       5.90127500       8.84663676      -0.00000000      -0.00000000      -0.01988000
In      -0.00175858       8.85015392       8.85015392       0.00334000       0.00334000       0.00334000
In       2.95063750       8.84663676       5.90127500      -0.00000000      -0.01988000      -0.00000000
In       5.95449270       0.00000000       0.00000000      -0.02485000      -0.00000000      -0.00000000
In       8.85191250       0.00000000       2.95591324      -0.00000000      -0.00000000       0.01988000
In       5.91627604       2.96563854       2.96563854       0.10954000       0.10954000       0.10954000
In       8.85191250       2.95591324       0.00000000      -0.00000000       0.01988000      -0.00000000
In       5.90655074       0.00000000       5.90127500       0.01988000      -0.00000000      -0.00000000
In       8.85191250       0.00000000       8.84663676      -0.00000000      -0.00000000      -0.01988000
In       5.90303358       2.95239608       8.85015392      -0.00334000      -0.00334000       0.00334000
In       8.85191250       2.94832420       5.90127500      -0.00000000      -0.02658000      -0.00000000
In       5.90655074       5.90127500       0.00000000       0.01988000      -0.00000000      -0.00000000
In       8.85191250       5.90127500       2.94832420      -0.00000000      -0.00000000      -0.02658000
In       5.90303358       8.85015392       2.95239608      -0.00334000       0.00334000      -0.00334000
In       8.85191250       8.84663676       0.00000000      -0.00000000      -0.01988000      -0.00000000
In       5.89896170       5.90127500       5.90127500      -0.02658000      -0.00000000      -0.00000000
In       8.85191250       5.90127500       8.85422580      -0.00000000      -0.00000000       0.02658000
In       5.91627604       8.83691146       8.83691146       0.10954000      -0.10954000      -0.10954000
In       8.85191250       8.85422580       5.90127500      -0.00000000       0.02658000      -0.00000000
65
Lattice="11.80255 0.0 0.0 0.0 11.80255 0.0 0.0 0.0 11.80255" Properties=species:S:1:pos:R:3:forces:R:3 config_type=Interstitial energy=-63088.50273187 pbc="T T T"
P        1.47399686       1.47664064       4.42387900      -0.11233000       0.11233000       0.15635000
P        4.44715363       1.49651613       1.49651613       0.02607000       0.02607000       0.02607000
P        1.47399686       4.42387900       1.47664064      -0.11233000       0.15635000       0.11233000
P        4.42602707       4.42825775       4.42825775       0.00602000       0.04910000       0.04910000
P        1.45412137       1.49651613      10.30603387      -0.02607000       0.02607000      -0.02607000
P        4.42727814       1.47664064       7.37867100       0.11233000       0.11233000      -0.15635000
P        1.47524793       4.42825775       7.37429225      -0.00601000       0.04910000      -0.04910000
P        4.42727814       4.42387900      10.32590936       0.11233000       0.15635000      -0.11233000
P        1.47524793       7.37429225       4.42825775      -0.00601000      -0.04910000       0.04910000
P        4.42727814       7.37867100       1.47664064       0.11233000      -0.15635000       0.11233000
P        1.45412137      10.30603387       1.49651613      -0.02607000      -0.02607000       0.02607000
P        4.42727814      10.32590936       4.42387900       0.11233000      -0.11233000       0.15635000
P        1.47399686       7.37867100      10.32590936      -0.11233000      -0.15635000      -0.11233000
P        4.42602707       7.37429225       7.37429225       0.00602000      -0.04910000      -0.04910000
P        1.47399686      10.32590936       7.37867100      -0.11233000      -0.11233000      -0.15635000
P        4.44715363      10.30603387      10.30603387       0.02607000      -0.02607000      -0.02607000
P        7.37889525       1.47538957       4.42825775       0.04910000       0.00602000       0.04910000
P       10.32930850       1.47664064       1.47664064      -0.15635000       0.11233000       0.11233000
P        7.37889525       4.42825775       1.47538957       0.04910000       0.04910000       0.00602000
P       10.32747910       4.42569659       4.42569659      -0.01190000       0.01190000       0.01190000
P        7.37451650       1.47664064      10.32590936       0.15635000       0.11233000      -0.11233000
P       10.32492975       1.47538957       7.37429225      -0.04910000       0.00602000      -0.04910000
P        7.37633409       4.42569659       7.37684160       0.01190000       0.01190000      -0.01190000
P       10.32492975       4.42825775      10.32716043      -0.04910000       0.04910000      -0.00601000
P        7.37633409       7.37684160       4.42569659       0.01190000      -0.01190000       0.01190000
P       10.32492975       7.37429225       1.47538957      -0.04910000      -0.04910000       0.00602000
P        7.37451650      10.32590936       1.47664064       0.15635000      -0.11233000       0.11233000
P       10.32492975      10.32716043       4.42825775      -0.04910000      -0.00601000       0.04910000
P        7.37889525       7.37429225      10.32716043       0.04910000      -0.04910000      -0.00601000
P       10.32747910       7.37684160       7.37684160      -0.01190000      -0.01190000      -0.01190000
P        7.37889525      10.32716043       7.37429225       0.04910000      -0.00601000      -0.04910000
P       10.32930850      10.32590936      10.32590936      -0.15635000      -0.11233000      -0.11233000
P        2.95063750       0.00000000       0.00000000       0.00000000       0.00000000       0.00000000
In      -0.05798593       0.00000000       0.00000000       0.08117000      -0.00000000      -0.00000000
In       2.95063750       0.00000000       3.00862343      -0.00000000      -0.00000000      -0.08117000
In      -0.00191201       2.95254951       2.95254951       0.00499000      -0.00499000      -0.00499000
In       2.95063750       3.00862343       0.00000000      -0.00000000      -0.08117000      -0.00000000
In      -0.00578325       0.00000000       5.90127500      -0.01646000      -0.00000000      -0.00000000
In       2.95063750       0.00000000       8.79392657      -0.00000000      -0.00000000       0.08117000
In      -0.01652357       2.96716107       8.83538893      -0.10221000       0.10221000      -0.10221000
In       2.95063750       2.95642075       5.90127500      -0.00000000       0.01646000      -0.00000000
In      -0.00578325       5.90127500       0.00000000      -0.01646000      -0.00000000      -0.00000000
In       2.95063750       5.90127500       2.95642075      -0.00000000      -0.00000000       0.01646000
In      -0.01652357       8.83538893       2.96716107      -0.10221000      -0.10221000       0.10221000
In       2.95063750       8.79392657       0.00000000      -0.00000000       0.08117000      -0.00000000
In       0.00256115       5.90127500       5.90127500       0.02532000       0.00000000      -0.00000000
In       2.95063750       5.90127500       8.84612925      -0.00000000      -0.00000000      -0.01646000
In      -0.00191201       8.85000049       8.85000049       0.00499000       0.00499000       0.00499000
In       2.95063750       8.84612925       5.90127500      -0.00000000      -0.01646000      -0.00000000
In       5.95926093       0.00000000       0.00000000      -0.08117000      -0.00000000      -0.00000000
In       8.85191250       0.00000000       2.95642075      -0.00000000      -0.00000000       0.01646000
In       5.91779857       2.96716107       2.96716107       0.10221000       0.10221000       0.10221000
In       8.85191250       2.95642075       0.00000000      -0.00000000       0.01646000      -0.00000000
In       5.90705825       0.00000000       5.90127500       0.01646000      -0.00000000      -0.00000000
In       8.85191250       0.00000000       8.84612925      -0.00000000      -0.00000000      -0.01646000
In       5.90318701       2.95254951       8.85000049      -0.00499000      -0.00499000       0.00499000
In       8.85191250       2.94807635       5.90127500      -0.00000000      -0.02532000      -0.00000000
In       5.90705825       5.90127500       0.00000000       0.01646000      -0.00000000      -0.00000000
In       8.85191250       5.90127500       2.94807635      -0.00000000      -0.00000000      -0.02532000
In       5.90318701       8.85000049       2.95254951      -0.00499000       0.00499000      -0.00499000
In       8.85191250       8.84612925       0.00000000      -0.00000000      -0.01646000      -0.00000000
In       5.89871385       5.90127500       5.90127500      -0.02532000      -0.00000000      -0.00000000
In       8.85191250       5.90127500       8.85447365      -0.00000000      -0.00000000       0.02532000
In       5.91779857       8.83538893       8.83538893       0.10221000      -0.10221000      -0.10221000
In       8.85191250       8.85447365       5.90127500      -0.00000000       0.02532000      -0.00000000
65
Lattice="11.80255 0.0 0.0 0.0 11.80255 0.0 0.0 0.0 11.80255" Properties=species:S:1:pos:R:3:forces:R:3 config_type=Interstitial energy=-63088.50318085 pbc="T T T"
P        1.47384343       1.47679407       4.42389080      -0.11668000       0.11668000       0.16434000
P        4.44825127       1.49761377       1.49761377       0.01646000       0.01646000       0.01646000
P        1.47384343       4.42389080       1.47679407      -0.11668000       0.16434000       0.11668000
P        4.42602707       4.42841118       4.42841118       0.00610000       0.04997000       0.04997000
P        1.45302373       1.49761377      10.30493623      -0.01646000       0.01646000      -0.01646000
P        4.42743157       1.47679407       7.37865920       0.11668000       0.11668000      -0.16434000
P        1.47524793       4.42841118       7.37413882      -0.00610000       0.04997000      -0.04997000
P        4.42743157       4.42389080      10.32575593       0.11668000       0.16434000      -0.11668000
P        1.47524793       7.37413882       4.42841118      -0.00610000      -0.04997000       0.04997000
P        4.42743157       7.37865920       1.47679407       0.11668000      -0.16434000       0.11668000
P        1.45302373      10.30493623       1.49761377      -0.01646000      -0.01646000       0.01646000
P        4.42743157      10.32575593       4.42389080       0.11668000      -0.11668000       0.16434000
P        1.47384343       7.37865920      10.32575593      -0.11668000      -0.16434000      -0.11668000
P        4.42602707       7.37413882       7.37413882       0.00610000      -0.04997000      -0.04997000
P        1.47384343      10.32575593       7.37865920      -0.11668000      -0.11668000      -0.16434000
P        4.44825127      10.30493623      10.30493623       0.01646000      -0.01646000      -0.01646000
P        7.37904868       1.47538957       4.42841118       0.04997000       0.00610000       0.04997000