65
Lattice="11.80255 0.0 0.0 0.0 11.80255 0.0 0.0 0.0 11.80255" Properties=species:S:1:pos:R:3:forces:R:3 config_type=Interstitial energy=-63088.01703676 pbc="T T T"
P        1.47531875       1.47531875       4.42595625      -0.00000000      -0.00000000       0.86784000
P        4.42595625       1.47531875       1.47531875       0.86784000      -0.00000000      -0.00000000
P        1.47531875       4.42595625       1.47531875      -0.00000000       0.86784000      -0.00000000
P        4.42595625       4.42595625       4.42595625      -0.00885000      -0.00885000      -0.00885000
P        1.47531875       1.47531875      10.32723125      -0.00000000      -0.00000000      -0.86784000
P        4.42595625       1.47531875       7.37659375       0.03209000      -0.00000000      -0.00000000
P        1.47531875       4.42595625       7.37659375      -0.00000000       0.03209000      -0.00000000
P        4.42595625       4.42595625      10.32723125       0.01605000       0.01605000      -0.01605000
P        1.47531875       7.37659375       4.42595625      -0.00000000      -0.00000000       0.03209000
P        4.42595625       7.37659375       1.47531875       0.03209000      -0.00000000      -0.00000000
P        1.47531875      10.32723125       1.47531875      -0.00000000      -0.86784000      -0.00000000
P        4.42595625      10.32723125       4.42595625       0.01605000      -0.01605000       0.01605000
P        1.47531875       7.37659375      10.32723125      -0.00000000      -0.00000000      -0.03209000
P        4.42595625       7.37659375       7.37659375       0.00943000      -0.00000000      -0.00000000
P        1.47531875      10.32723125       7.37659375      -0.00000000      -0.03209000      -0.00000000
P        4.42595625      10.32723125      10.32723125      -0.00885000       0.00885000       0.00885000
P        7.37659375       1.47531875       4.42595625      -0.00000000      -0.00000000       0.03209000
P       10.32723125       1.47531875       1.47531875      -0.86784000      -0.00000000      -0.00000000
P        7.37659375       4.42595625       1.47531875      -0.00000000       0.03209000      -0.00000000
P       10.32723125       4.42595625       4.42595625      -0.01605000       0.01605000       0.01605000
P        7.37659375       1.47531875      10.32723125      -0.00000000      -0.00000000      -0.03209000
P       10.32723125       1.47531875       7.37659375      -0.03209000      -0.00000000      -0.00000000
P        7.37659375       4.42595625       7.37659375      -0.00000000       0.00943000      -0.00000000
P       10.32723125       4.42595625      10.32723125       0.00885000      -0.00885000       0.00885000
P        7.37659375       7.37659375       4.42595625      -0.00000000      -0.00000000       0.00943000
P       10.32723125       7.37659375       1.47531875      -0.03209000      -0.00000000      -0.00000000
P        7.37659375      10.32723125       1.47531875      -0.00000000      -0.03209000      -0.00000000
P       10.32723125      10.32723125       4.42595625       0.00885000       0.00885000      -0.00885000
P        7.37659375       7.37659375      10.32723125      -0.00000000      -0.00000000      -0.00943000
P       10.32723125       7.37659375       7.37659375      -0.00943000      -0.00000000      -0.00000000
P        7.37659375      10.32723125       7.37659375      -0.00000000      -0.00943000      -0.00000000
P       10.32723125      10.32723125      10.32723125      -0.01605000      -0.01605000      -0.01605000
P        1.47531875       1.47531875       1.47531875      -0.00000000      -0.00000000      -0.00000000
In       0.00000000       0.00000000       0.00000000      -0.65009000      -0.65009000      -0.65009000
In       2.95063750       0.00000000       2.95063750       0.65010000      -0.65010000       0.65010000
In       0.00000000       2.95063750       2.95063750      -0.65010000       0.65010000       0.65010000
In       2.95063750       2.95063750       0.00000000       0.65010000       0.65010000      -0.65010000
In       0.00000000       0.00000000       5.90127500       0.00729000       0.00729000       0.09599000
In       2.95063750       0.00000000       8.85191250      -0.00728000       0.00729000      -0.09599000
In       0.00000000       2.95063750       8.85191250       0.00729000      -0.00728000      -0.09599000
In       2.95063750       2.95063750       5.90127500      -0.00728000      -0.00728000       0.09599000
In       0.00000000       5.90127500       0.00000000       0.00729000       0.09599000       0.00729000
In       2.95063750       5.90127500       2.95063750      -0.00728000       0.09599000      -0.00728000
In       0.00000000       8.85191250       2.95063750       0.00729000      -0.09599000      -0.00728000
In       2.95063750       8.85191250       0.00000000      -0.00728000      -0.09599000       0.00729000
In       0.00000000       5.90127500       5.90127500       0.03488000       0.02454000       0.02454000
In       2.95063750       5.90127500       8.85191250      -0.03488000       0.02454000      -0.02453000
In       0.00000000       8.85191250       8.85191250       0.03488000      -0.02453000      -0.02453000
In       2.95063750       8.85191250       5.90127500      -0.03488000      -0.02453000       0.02454000
In       5.90127500       0.00000000       0.00000000       0.09599000       0.00729000       0.00729000
In       8.85191250       0.00000000       2.95063750      -0.09599000       0.00729000      -0.00728000
In       5.90127500       2.95063750       2.95063750       0.09599000      -0.00728000      -0.00728000
In       8.85191250       2.95063750       0.00000000      -0.09599000      -0.00728000       0.00729000
In       5.90127500       0.00000000       5.90127500       0.02454000       0.03488000       0.02454000
In       8.85191250       0.00000000       8.85191250      -0.02453000       0.03488000      -0.02453000
In       5.90127500       2.95063750       8.85191250       0.02454000      -0.03488000      -0.02453000
In       8.85191250       2.95063750       5.90127500      -0.02453000      -0.03488000       0.02454000
In       5.90127500       5.90127500       0.00000000       0.02454000       0.02454000       0.03488000
In       8.85191250       5.90127500       2.95063750      -0.02453000       0.02454000      -0.03488000
In       5.90127500       8.85191250       2.95063750       0.02454000      -0.02453000      -0.03488000
In       8.85191250       8.85191250       0.00000000      -0.02453000      -0.02453000       0.03488000
In       5.90127500       5.90127500       5.90127500       0.00448000       0.00448000       0.00448000
In       8.85191250       5.90127500       8.85191250      -0.00448000       0.00448000      -0.00448000
In       5.90127500       8.85191250       8.85191250       0.00448000      -0.00448000      -0.00448000
In       8.85191250       8.85191250       5.90127500      -0.00448000      -0.00448000       0.00448000
65
Lattice="11.80255 0.0 0.0 0.0 11.80255 0.0 0.0 0.0 11.80255" Properties=species:S:1:pos:R:3:forces:R:3 config_type=Interstitial energy=-63088.03008092 pbc="T T T"
P        1.47531875       1.47531875       4.42712470      -0.00000000      -0.00000000       0.85234000
P        4.42712470       1.47531875       1.47531875       0.85234000      -0.00000000      -0.00000000
P        1.47531875       4.42712470       1.47531875      -0.00000000       0.85234000      -0.00000000
P        4.42594445       4.42594445       4.42594445      -0.00897000      -0.00897000      -0.00897000
P        1.47531875       1.47531875      10.32605100      -0.00000000      -0.00000000      -0.85234000
P        4.42600346       1.47531875       7.37659375       0.03254000      -0.00000000      -0.00000000
P        1.47531875       4.42600346       7.37659375      -0.00000000       0.03254000      -0.00000000
P        4.42597986       4.42597986      10.32720764       0.02075000       0.02075000      -0.02074000
P        1.47531875       7.37659375       4.42600346      -0.00000000      -0.00000000       0.03254000
P        4.42600346       7.37659375       1.47531875       0.03254000      -0.00000000      -0.00000000
P        1.47531875      10.32605100       1.47531875      -0.00000000      -0.85234000      -0.00000000
P        4.42597986      10.32720764       4.42597986       0.02075000      -0.02074000       0.02075000
P        1.47531875       7.37659375      10.32718404      -0.00000000      -0.00000000      -0.03254000
P        4.42596805       7.37659375       7.37659375       0.00960000      -0.00000000      -0.00000000
P        1.47531875      10.32718404       7.37659375      -0.00000000      -0.03254000      -0.00000000
P        4.42594445      10.32724305      10.32724305      -0.00897000       0.00897000       0.00897000
P        7.37659375       1.47531875       4.42600346      -0.00000000      -0.00000000       0.03254000
P       10.32605100       1.47531875       1.47531875      -0.85234000      -0.00000000      -0.00000000
P        7.37659375       4.42600346       1.47531875      -0.00000000       0.03254000      -0.00000000
P       10.32720764       4.42597986       4.42597986      -0.02074000       0.02075000       0.02075000
P        7.37659375       1.47531875      10.32718404      -0.00000000      -0.00000000      -0.03254000
P       10.32718404       1.47531875       7.37659375      -0.03254000      -0.00000000      -0.00000000
P        7.37659375       4.42596805       7.37659375      -0.00000000       0.00960000      -0.00000000
P       10.32724305       4.42594445      10.32724305       0.00897000      -0.00897000       0.00897000
P        7.37659375       7.37659375       4.42596805      -0.00000000      -0.00000000       0.00960000
P       10.32718404       7.37659375       1.47531875      -0.03254000      -0.00000000      -0.00000000
P        7.37659375      10.32718404       1.47531875      -0.00000000      -0.03254000      -0.00000000
P       10.32724305      10.32724305       4.42594445       0.00897000       0.00897000      -0.00897000
P        7.37659375       7.37659375      10.32721945      -0.00000000      -0.00000000      -0.00960000
P       10.32721945       7.37659375       7.37659375      -0.00960000      -0.00000000      -0.00000000
P        7.37659375      10.32721945       7.37659375      -0.00000000      -0.00960000      -0.00000000
P       10.32720764      10.32720764      10.32720764      -0.02074000      -0.02074000      -0.02074000
P        1.47531875       1.47531875       1.47531875      -0.00000000      -0.00000000      -0.00000000
In      -0.00088519      -0.00088519      -0.00088519      -0.63480000      -0.63480000      -0.63480000
In       2.95151089      -0.00088519       2.95151089       0.63481000      -0.63480000       0.63481000
In      -0.00088519       2.95151089       2.95151089      -0.63480000       0.63481000       0.63481000
In       2.95151089       2.95151089      -0.00088519       0.63481000       0.63481000      -0.63480000
In       0.00001180       0.00001180       5.90140483       0.00562000       0.00562000       0.09681000
In       2.95062570       0.00001180       8.85178267      -0.00562000       0.00562000      -0.09681000
In       0.00001180       2.95062570       8.85178267       0.00562000      -0.00562000      -0.09681000
In       2.95062570       2.95062570       5.90140483      -0.00562000      -0.00562000       0.09681000
In       0.00001180       5.90140483       0.00001180       0.00562000       0.09681000       0.00562000
In       2.95062570       5.90140483       2.95062570      -0.00562000       0.09681000      -0.00562000
In       0.00001180       8.85178267       2.95062570       0.00562000      -0.09681000      -0.00562000
In       2.95062570       8.85178267       0.00001180      -0.00562000      -0.09681000       0.00562000
In       0.00004721       5.90131041       5.90131041       0.03546000       0.02485000       0.02485000
In       2.95059029       5.90131041       8.85187709      -0.03546000       0.02485000      -0.02485000
In       0.00004721       8.85187709       8.85187709       0.03546000      -0.02485000      -0.02485000
In       2.95059029       8.85187709       5.90131041      -0.03546000      -0.02485000       0.02485000
In       5.90140483       0.00001180       0.00001180       0.09681000       0.00562000       0.00562000
In       8.85178267       0.00001180       2.95062570      -0.09681000       0.00562000      -0.00562000
In       5.90140483       2.95062570       2.95062570       0.09681000      -0.00562000      -0.00562000
In       8.85178267       2.95062570       0.00001180      -0.09681000      -0.00562000       0.00562000
In       5.90131041       0.00004721       5.90131041       0.02485000       0.03546000       0.02485000
In       8.85187709       0.00004721       8.85187709      -0.02485000       0.03546000      -0.02485000
In       5.90131041       2.95059029       8.85187709       0.02485000      -0.03546000      -0.02485000
In       8.85187709       2.95059029       5.90131041      -0.02485000      -0.03546000       0.02485000
In       5.90131041       5.90131041       0.00004721       0.02485000       0.02485000       0.03546000
In       8.85187709       5.90131041       2.95059029      -0.02485000       0.02485000      -0.03546000
In       5.90131041       8.85187709       2.95059029       0.02485000      -0.02485000      -0.03546000
In       8.85187709       8.85187709       0.00004721      -0.02485000      -0.02485000       0.03546000
In       5.90128680       5.90128680       5.90128680       0.00407000       0.00407000       0.00407000
In       8.85190070       5.90128680       8.85190070      -0.00407000       0.00407000      -0.00407000
In       5.90128680       8.85190070       8.85190070       0.00407000      -0.00407000      -0.00407000
In       8.85190070       8.85190070       5.90128680      -0.00407000      -0.00407000       0.00407000
65
Lattice="11.80255 0.0 0.0 0.0 11.80255 0.0 0.0 0.0 11.80255" Properties=species:S:1:pos:R:3:forces:R:3 config_type=Interstitial energy=-63088.35568188 pbc="T T T"
P        1.47531875       1.47531875       4.48380055      -0.00000000      -0.00000000       0.15120000
P        4.48380055       1.47531875       1.47531875       0.15120000      -0.00000000      -0.00000000
P        1.47531875       4.48380055       1.47531875      -0.00000000       0.15120000      -0.00000000
P        4.42536612       4.42536612       4.42536612      -0.01537000      -0.01537000      -0.01537000
P        1.47531875       1.47531875      10.26938695      -0.00000000      -0.00000000      -0.15120000
P        4.42809251       1.47531875       7.37659375       0.05560000      -0.00000000      -0.00000000
P        1.47531875       4.42809251       7.37659375      -0.00000000       0.05560000      -0.00000000
P        4.42703028       4.42703028      10.32615722       0.28612000       0.28612000      -0.28611000
P        1.47531875       7.37659375       4.42809251      -0.00000000      -0.00000000       0.05560000
P        4.42809251       7.37659375       1.47531875       0.05560000      -0.00000000      -0.00000000
P        1.47531875      10.26938695       1.47531875      -0.00000000      -0.15120000      -0.00000000
P        4.42703028      10.32615722       4.42703028       0.28612000      -0.28611000       0.28612000
P        1.47531875       7.37659375      10.32509499      -0.00000000      -0.00000000      -0.05560000
P        4.42658179       7.37659375       7.37659375       0.01818000      -0.00000000      -0.00000000
P        1.47531875      10.32509499       7.37659375      -0.00000000      -0.05560000      -0.00000000
P        4.42536612      10.32782138      10.32782138      -0.01537000       0.01538000       0.01538000
P        7.37659375       1.47531875       4.42809251      -0.00000000      -0.00000000       0.05560000
P       10.26938695       1.47531875       1.47531875      -0.15120000      -0.00000000      -0.00000000
P        7.37659375       4.42809251       1.47531875      -0.00000000       0.05560000      -0.00000000
P       10.32615722       4.42703028       4.42703028      -0.28611000       0.28612000       0.28612000
P        7.37659375       1.47531875      10.32509499      -0.00000000      -0.00000000      -0.05560000
P       10.32509499       1.47531875       7.37659375      -0.05560000      -0.00000000      -0.00000000
P        7.37659375       4.42658179       7.37659375      -0.00000000       0.01818000      -0.00000000
P       10.32782138       4.42536612      10.32782138       0.01538000      -0.01537000       0.01538000
P        7.37659375       7.37659375       4.42658179      -0.00000000      -0.00000000       0.01818000
P       10.32509499       7.37659375       1.47531875      -0.05560000      -0.00000000      -0.00000000
P        7.37659375      10.32509499       1.47531875      -0.00000000      -0.05560000      -0.00000000
P       10.32782138      10.32782138       4.42536612       0.01538000       0.01538000      -0.01537000
P        7.37659375       7.37659375      10.32660571      -0.00000000      -0.00000000      -0.01818000
P       10.32660571       7.37659375       7.37659375      -0.01818000      -0.00000000      -0.00000000
P        7.37659375      10.32660571       7.37659375      -0.00000000      -0.01818000      -0.00000000
P       10.32615722      10.32615722      10.32615722      -0.28611000      -0.28611000      -0.28611000
P        1.47531875       1.47531875       1.47531875       0.00000000       0.00000000       0.00000000
In      -0.04332716      -0.04332716      -0.04332716       0.07576000       0.07576000       0.07576000
In       2.99396466      -0.04332716       2.99396466      -0.07576000       0.07576000      -0.07576000
In      -0.04332716       2.99396466       2.99396466       0.07576000      -0.07576000      -0.07576000
In       2.99396466       2.99396466      -0.04332716      -0.07576000      -0.07576000       0.07576000
In       0.00048390       0.00048390       5.90767198      -0.08029000      -0.08029000       0.14197000
In       2.95015360       0.00048390       8.84551552       0.08029000      -0.08029000      -0.14197000
In       0.00048390       2.95015360       8.84551552      -0.08029000       0.08029000      -0.14197000
In       2.95015360       2.95015360       5.90767198       0.08029000       0.08029000       0.14197000
In       0.00048390       5.90767198       0.00048390      -0.08029000       0.14197000      -0.08029000
In       2.95015360       5.90767198       2.95015360       0.08029000       0.14197000       0.08029000
In       0.00048390       8.84551552       2.95015360      -0.08029000      -0.14197000       0.08029000
In       2.95015360       8.84551552       0.00048390       0.08029000      -0.14197000      -0.08029000
In       0.00232510       5.90291555       5.90291555       0.06416000       0.04142000       0.04142000
In       2.94831240       5.90291555       8.85027195      -0.06416000       0.04142000      -0.04142000
In       0.00232510       8.85027195       8.85027195       0.06416000      -0.04142000      -0.04142000
In       2.94831240       8.85027195       5.90291555      -0.06416000      -0.04142000       0.04142000
In       5.90767198       0.00048390       0.00048390       0.14197000      -0.08029000      -0.08029000
In       8.84551552       0.00048390       2.95015360      -0.14197000      -0.08029000       0.08029000
In       5.90767198       2.95015360       2.95015360       0.14197000       0.08029000       0.08029000
In       8.84551552       2.95015360       0.00048390      -0.14197000       0.08029000      -0.08029000
In       5.90291555       0.00232510       5.90291555       0.04142000       0.06416000       0.04142000
In       8.85027195       0.00232510       8.85027195      -0.04142000       0.06416000      -0.04142000
In       5.90291555       2.94831240       8.85027195       0.04142000      -0.06416000      -0.04142000
In       8.85027195       2.94831240       5.90291555      -0.04142000      -0.06416000       0.04142000
In       5.90291555       5.90291555       0.00232510       0.04142000       0.04142000       0.06416000
In       8.85027195       5.90291555       2.94831240      -0.04142000       0.04142000      -0.06416000
In       5.90291555       8.85027195       2.94831240       0.04142000      -0.04142000      -0.06416000
In       8.85027195       8.85027195       0.00232510      -0.04142000      -0.04142000       0.06416000
In       5.90157006       5.90157006       5.90157006      -0.01559000      -0.01559000      -0.01559000
In       8.85161744       5.90157006       8.85161744       0.01558000      -0.01559000       0.01558000
In       5.90157006       8.85161744       8.85161744      -0.01559000       0.01558000       0.01558000
In       8.85161744       8.85161744       5.90157006       0.01558000       0.01558000      -0.01559000
65
Lattice="11.80255 0.0 0.0 0.0 11.80255 0.0 0.0 0.0 11.80255" Properties=species:S:1:pos:R:3:forces:R:3 config_type=Interstitial energy=-63088.35917419 pbc="T T T"
P        1.47531875       1.47531875       4.48715247      -0.00000000      -0.00000000       0.11437000
P        4.48715247       1.47531875       1.47531875       0.11437000      -0.00000000      -0.00000000
P        1.47531875       4.48715247       1.47531875      -0.00000000       0.11437000      -0.00000000
P        4.42530711       4.42530711       4.42530711      -0.01542000      -0.01542000      -0.01542000
P        1.47531875       1.47531875      10.26603503       0.00000000       0.00000000      -0.11437000
P        4.42829315       1.47531875       7.37659375       0.05666000      -0.00000000      -0.00000000
P        1.47531875       4.42829315       7.37659375      -0.00000000       0.05666000      -0.00000000
P        4.42749058       4.42749058      10.32569692       0.29795000       0.29795000      -0.29794000
P        1.47531875       7.37659375       4.42829315      -0.00000000      -0.00000000       0.05666000
P        4.42829315       7.37659375       1.47531875       0.05666000      -0.00000000      -0.00000000
P        1.47531875      10.26603503       1.47531875       0.00000000      -0.11437000       0.00000000
P        4.42749058      10.32569692       4.42749058       0.29795000      -0.29794000       0.29795000
P        1.47531875       7.37659375      10.32489435      -0.00000000      -0.00000000      -0.05666000
P        4.42664080       7.37659375       7.37659375       0.01805000      -0.00000000      -0.00000000
P        1.47531875      10.32489435       7.37659375      -0.00000000      -0.05666000      -0.00000000
P        4.42530711      10.32788039      10.32788039      -0.01542000       0.01542000       0.01542000
P        7.37659375       1.47531875       4.42829315      -0.00000000      -0.00000000       0.05666000
P       10.26603503       1.47531875       1.47531875      -0.11437000       0.00000000       0.00000000
P        7.37659375       4.42829315       1.47531875      -0.00000000       0.05666000      -0.00000000
P       10.32569692       4.42749058       4.42749058      -0.29794000       0.29795000       0.29795000
P        7.37659375       1.47531875      10.32489435      -0.00000000      -0.00000000      -0.05666000
P       10.32489435       1.47531875       7.37659375      -0.05666000      -0.00000000      -0.00000000
P        7.37659375       4.42664080       7.37659375      -0.00000000       0.01805000      -0.00000000
P       10.32788039       4.42530711      10.32788039       0.01542000      -0.01542000       0.01542000
P        7.37659375       7.37659375       4.42664080      -0.00000000      -0.00000000       0.01805000
P       10.32489435       7.37659375       1.47531875      -0.05666000      -0.00000000      -0.00000000
P        7.37659375      10.32489435       1.47531875      -0.00000000      -0.05666000      -0.00000000
P       10.32788039      10.32788039       4.42530711       0.01542000       0.01542000      -0.01542000
P        7.37659375       7.37659375      10.32654670      -0.00000000      -0.00000000      -0.01805000
P       10.32654670       7.37659375       7.37659375      -0.01805000      -0.00000000      -0.00000000
P        7.37659375      10.32654670       7.37659375      -0.00000000      -0.01805000      -0.00000000
P       10.32569692      10.32569692      10.32569692      -0.29794000      -0.29794000      -0.29794000
P        1.47531875       1.47531875       1.47531875       0.00000000       0.00000000       0.00000000
In      -0.04556965      -0.04556965      -0.04556965       0.11057000       0.11057000       0.11057000
In       2.99620715      -0.04556965       2.99620715      -0.11058000       0.11058000      -0.11058000
In      -0.04556965       2.99620715       2.99620715       0.11058000      -0.11058000      -0.11058000
In       2.99620715       2.99620715      -0.04556965      -0.11058000      -0.11058000       0.11058000
In       0.00040129       0.00040129       5.90822670      -0.08463000      -0.08463000       0.14339000
In       2.95023621       0.00040129       8.84496080       0.08463000      -0.08463000      -0.14339000
In       0.00040129       2.95023621       8.84496080      -0.08463000       0.08463000      -0.14339000
In       2.95023621       2.95023621       5.90822670       0.08463000       0.08463000       0.14339000
In       0.00040129       5.90822670       0.00040129      -0.08463000       0.14339000      -0.08463000
In       2.95023621       5.90822670       2.95023621       0.08463000       0.14339000       0.08463000
In       0.00040129       8.84496080       2.95023621      -0.08463000      -0.14339000       0.08463000
In       2.95023621       8.84496080       0.00040129       0.08463000      -0.14339000      -0.08463000
In       0.00253755       5.90305719       5.90305719       0.06451000       0.04253000       0.04253000
In       2.94809995       5.90305719       8.85013031      -0.06451000       0.04253000      -0.04253000
In       0.00253755       8.85013031       8.85013031       0.06451000      -0.04253000      -0.04253000
In       2.94809995       8.85013031       5.90305719      -0.06451000      -0.04253000       0.04253000
In       5.90822670       0.00040129       0.00040129       0.14339000      -0.08463000      -0.08463000
In       8.84496080       0.00040129       2.95023621      -0.14339000      -0.08463000       0.08463000
In       5.90822670       2.95023621       2.95023621       0.14339000       0.08463000       0.08463000
In       8.84496080       2.95023621       0.00040129      -0.14339000       0.08463000      -0.08463000
In       5.90305719       0.00253755       5.90305719       0.04253000       0.06451000       0.04253000
In       8.85013031       0.00253755       8.85013031      -0.04253000       0.06451000      -0.04253000
In       5.90305719       2.94809995       8.85013031       0.04253000      -0.06451000      -0.04253000
In       8.85013031       2.94809995       5.90305719      -0.04253000      -0.06451000       0.04253000
In       5.90305719       5.90305719       0.00253755       0.04253000       0.04253000       0.06451000
In       8.85013031       5.90305719       2.94809995      -0.04253000       0.04253000      -0.06451000
In       5.90305719       8.85013031       2.94809995       0.04253000      -0.04253000      -0.06451000
In       8.85013031       8.85013031       0.00253755      -0.04253000      -0.04253000       0.06451000
In       5.90157006       5.90157006       5.90157006      -0.01650000      -0.01650000      -0.01650000
In       8.85161744       5.90157006       8.85161744       0.01650000      -0.01650000       0.01650000
In       5.90157006       8.85161744       8.85161744      -0.01650000       0.01650000       0.01650000
In       8.85161744       8.85161744       5.90157006       0.01650000       0.01650000      -0.01650000
65
Lattice="11.80255 0.0 0.0 0.0 11.80255 0.0 0.0 0.0 11.80255" Properties=species:S:1:pos:R:3:forces:R:3 config_type=Interstitial energy=-63088.36148953 pbc="T T T"
P        1.47531875       1.47531875       4.49260525      -0.00000000      -0.00000000       0.05426000
P        4.49260525       1.47531875       1.47531875       0.05426000      -0.00000000      -0.00000000
P        1.47531875       4.49260525       1.47531875      -0.00000000       0.05426000      -0.00000000
P        4.42522449       4.42522449       4.42522449      -0.01550000      -0.01550000      -0.01550000
P        1.47531875       1.47531875      10.26058225       0.00000000       0.00000000      -0.05426000
P        4.42861182       1.47531875       7.37659375       0.05838000       0.00000000       0.00000000
P        1.47531875       4.42861182       7.37659375       0.00000000       0.05838000       0.00000000
P        4.42824594       4.42824594      10.32494156       0.31761000       0.31761000      -0.31761000
P        1.47531875       7.37659375       4.42861182      -0.00000000       0.00000000       0.05838000
P        4.42861182       7.37659375       1.47531875       0.05838000       0.00000000       0.00000000
P        1.47531875      10.26058225       1.47531875       0.00000000      -0.05426000       0.00000000
P        4.42824594      10.32494156       4.42824594       0.31761000      -0.31761000       0.31761000
P        1.47531875       7.37659375      10.32457568       0.00000000       0.00000000      -0.05838000
P        4.42674702       7.37659375       7.37659375       0.01784000       0.00000000       0.00000000
P        1.47531875      10.32457568       7.37659375       0.00000000      -0.05838000       0.00000000
P        4.42522449      10.32796301      10.32796301      -0.01550000       0.01550000       0.01550000
P        7.37659375       1.47531875       4.42861182       0.00000000       0.00000000       0.05838000