65
Lattice="11.80255 0.0 0.0 0.0 11.80255 0.0 0.0 0.0 11.80255" Properties=species:S:1:pos:R:3:forces:R:3 config_type=Interstitial energy=-64624.10769032 pbc="T T T"
P        1.47531875       1.47531875       4.42595625      -0.00000000      -0.00000000       0.77397000
P        4.42595625       1.47531875       1.47531875       0.77397000      -0.00000000      -0.00000000
P        1.47531875       4.42595625       1.47531875      -0.00000000       0.77397000      -0.00000000
P        4.42595625       4.42595625       4.42595625      -0.03845000      -0.03845000      -0.03845000
P        1.47531875       1.47531875      10.32723125      -0.00000000      -0.00000000      -0.77397000
P        4.42595625       1.47531875       7.37659375      -0.01853000      -0.00001000      -0.00000000
P        1.47531875       4.42595625       7.37659375      -0.00000000      -0.01853000      -0.00000000
P        4.42595625       4.42595625      10.32723125      -0.03635000      -0.03635000       0.03635000
P        1.47531875       7.37659375       4.42595625      -0.00000000      -0.00000000      -0.01853000
P        4.42595625       7.37659375       1.47531875      -0.01853000      -0.00000000      -0.00000000
P        1.47531875      10.32723125       1.47531875      -0.00000000      -0.77397000      -0.00000000
P        4.42595625      10.32723125       4.42595625      -0.03635000       0.03635000      -0.03635000
P        1.47531875       7.37659375      10.32723125      -0.00000000      -0.00000000       0.01853000
P        4.42595625       7.37659375       7.37659375       0.00210000      -0.00000000      -0.00000000
P        1.47531875      10.32723125       7.37659375      -0.00000000       0.01853000      -0.00000000
P        4.42595625      10.32723125      10.32723125      -0.03845000       0.03845000       0.03845000
P        7.37659375       1.47531875       4.42595625      -0.00000000      -0.00001000      -0.01853000
P       10.32723125       1.47531875       1.47531875      -0.77397000      -0.00000000      -0.00000000
P        7.37659375       4.42595625       1.47531875      -0.00000000      -0.01853000      -0.00000000
P       10.32723125       4.42595625       4.42595625       0.03635000      -0.03635000      -0.03635000
P        7.37659375       1.47531875      10.32723125      -0.00000000      -0.00001000       0.01853000
P       10.32723125       1.47531875       7.37659375       0.01853000      -0.00000000      -0.00000000
P        7.37659375       4.42595625       7.37659375      -0.00000000       0.00210000      -0.00000000
P       10.32723125       4.42595625      10.32723125       0.03845000      -0.03845000       0.03845000
P        7.37659375       7.37659375       4.42595625      -0.00000000      -0.00000000       0.00210000
P       10.32723125       7.37659375       1.47531875       0.01853000      -0.00000000      -0.00000000
P        7.37659375      10.32723125       1.47531875      -0.00000000       0.01853000      -0.00000000
P       10.32723125      10.32723125       4.42595625       0.03845000       0.03845000      -0.03845000
P        7.37659375       7.37659375      10.32723125      -0.00000000      -0.00000000      -0.00210000
P       10.32723125       7.37659375       7.37659375      -0.00210000      -0.00000000      -0.00000000
P        7.37659375      10.32723125       7.37659375      -0.00000000      -0.00210000      -0.00000000
P       10.32723125      10.32723125      10.32723125       0.03635000       0.03635000       0.03635000
In       0.00000000       0.00000000       0.00000000      -1.81754000      -1.81754000      -1.81754000
In       2.95063750       0.00000000       2.95063750       1.81755000      -1.81755000       1.81755000
In       0.00000000       2.95063750       2.95063750      -1.81755000       1.81755000       1.81755000
In       2.95063750       2.95063750       0.00000000       1.81755000       1.81755000      -1.81755000
In       0.00000000       0.00000000       5.90127500      -0.08568000      -0.08568000       0.15002000
In       2.95063750       0.00000000       8.85191250       0.08568000      -0.08568000      -0.15002000
In       0.00000000       2.95063750       8.85191250      -0.08568000       0.08568000      -0.15002000
In       2.95063750       2.95063750       5.90127500       0.08568000       0.08568000       0.15002000
In       0.00000000       5.90127500       0.00000000      -0.08568000       0.15002000      -0.08568000
In       2.95063750       5.90127500       2.95063750       0.08568000       0.15002000       0.08568000
In       0.00000000       8.85191250       2.95063750      -0.08568000      -0.15002000       0.08568000
In       2.95063750       8.85191250       0.00000000       0.08568000      -0.15002000      -0.08568000
In       0.00000000       5.90127500       5.90127500       0.01263000       0.03821000       0.03821000
In       2.95063750       5.90127500       8.85191250      -0.01262000       0.03821000      -0.03821000
In       0.00000000       8.85191250       8.85191250       0.01263000      -0.03821000      -0.03821000
In       2.95063750       8.85191250       5.90127500      -0.01262000      -0.03821000       0.03821000
In       5.90127500       0.00000000       0.00000000       0.15002000      -0.08568000      -0.08568000
In       8.85191250       0.00000000       2.95063750      -0.15002000      -0.08568000       0.08568000
In       5.90127500       2.95063750       2.95063750       0.15002000       0.08568000       0.08568000
In       8.85191250       2.95063750       0.00000000      -0.15002000       0.08568000      -0.08568000
In       5.90127500       0.00000000       5.90127500       0.03821000       0.01263000       0.03821000
In       8.85191250       0.00000000       8.85191250      -0.03821000       0.01263000      -0.03821000
In       5.90127500       2.95063750       8.85191250       0.03821000      -0.01262000      -0.03821000
In       8.85191250       2.95063750       5.90127500      -0.03821000      -0.01262000       0.03821000
In       5.90127500       5.90127500       0.00000000       0.03821000       0.03821000       0.01263000
In       8.85191250       5.90127500       2.95063750      -0.03821000       0.03821000      -0.01262000
In       5.90127500       8.85191250       2.95063750       0.03821000      -0.03821000      -0.01262000
In       8.85191250       8.85191250       0.00000000      -0.03821000      -0.03821000       0.01263000
In       5.90127500       5.90127500       5.90127500       0.02074000       0.02074000       0.02074000
In       8.85191250       5.90127500       8.85191250      -0.02074000       0.02074000      -0.02074000
In       5.90127500       8.85191250       8.85191250       0.02074000      -0.02074000      -0.02074000
In       8.85191250       8.85191250       5.90127500      -0.02074000      -0.02074000       0.02074000
In       1.47531875       1.47531875       1.47531875      -0.00001000      -0.00001000      -0.00001000
65
Lattice="11.80255 0.0 0.0 0.0 11.80255 0.0 0.0 0.0 11.80255" Properties=species:S:1:pos:R:3:forces:R:3 config_type=Interstitial energy=-64624.16510167 pbc="T T T"
P        1.47531875       1.47531875       4.42698307      -0.00000000      -0.00000000       0.75478000
P        4.42698307       1.47531875       1.47531875       0.75478000      -0.00000000      -0.00000000
P        1.47531875       4.42698307       1.47531875      -0.00000000       0.75478000      -0.00000000
P        4.42590904       4.42590904       4.42590904      -0.03719000      -0.03719000      -0.03719000
P        1.47531875       1.47531875      10.32620443      -0.00000000      -0.00000000      -0.75477000
P        4.42593264       1.47531875       7.37659375      -0.01679000      -0.00000000      -0.00000000
P        1.47531875       4.42593264       7.37659375      -0.00000000      -0.01679000      -0.00000000
P        4.42590904       4.42590904      10.32727846      -0.02224000      -0.02224000       0.02224000
P        1.47531875       7.37659375       4.42593264      -0.00000000      -0.00000000      -0.01679000
P        4.42593264       7.37659375       1.47531875      -0.01679000      -0.00000000      -0.00000000
P        1.47531875      10.32620443       1.47531875      -0.00000000      -0.75477000      -0.00000000
P        4.42590904      10.32727846       4.42590904      -0.02224000       0.02224000      -0.02224000
P        1.47531875       7.37659375      10.32725486      -0.00000000      -0.00000000       0.01680000
P        4.42595625       7.37659375       7.37659375       0.00294000      -0.00000000      -0.00000000
P        1.47531875      10.32725486       7.37659375      -0.00000000       0.01680000      -0.00000000
P        4.42590904      10.32727846      10.32727846      -0.03719000       0.03719000       0.03719000
P        7.37659375       1.47531875       4.42593264      -0.00000000      -0.00000000      -0.01679000
P       10.32620443       1.47531875       1.47531875      -0.75477000      -0.00000000      -0.00000000
P        7.37659375       4.42593264       1.47531875      -0.00000000      -0.01679000      -0.00000000
P       10.32727846       4.42590904       4.42590904       0.02224000      -0.02224000      -0.02224000
P        7.37659375       1.47531875      10.32725486      -0.00000000      -0.00000000       0.01680000
P       10.32725486       1.47531875       7.37659375       0.01680000      -0.00000000      -0.00000000
P        7.37659375       4.42595625       7.37659375      -0.00000000       0.00294000      -0.00000000
P       10.32727846       4.42590904      10.32727846       0.03719000      -0.03719000       0.03719000
P        7.37659375       7.37659375       4.42595625      -0.00000000      -0.00000000       0.00294000
P       10.32725486       7.37659375       1.47531875       0.01680000      -0.00000000      -0.00000000
P        7.37659375      10.32725486       1.47531875      -0.00000000       0.01680000      -0.00000000
P       10.32727846      10.32727846       4.42590904       0.03719000       0.03719000      -0.03719000
P        7.37659375       7.37659375      10.32723125      -0.00000000      -0.00000000      -0.00294000
P       10.32723125       7.37659375       7.37659375      -0.00294000      -0.00000000      -0.00000000
P        7.37659375      10.32723125       7.37659375      -0.00000000      -0.00294000      -0.00000000
P       10.32727846      10.32727846      10.32727846       0.02224000       0.02224000       0.02224000
In      -0.00241952      -0.00241952      -0.00241952      -1.77035000      -1.77035000      -1.77035000
In       2.95305702      -0.00241952       2.95305702       1.77036000      -1.77035000       1.77036000
In      -0.00241952       2.95305702       2.95305702      -1.77035000       1.77036000       1.77036000
In       2.95305702       2.95305702      -0.00241952       1.77036000       1.77036000      -1.77035000
In      -0.00011803      -0.00011803       5.90147564      -0.08492000      -0.08492000       0.14899000
In       2.95075553      -0.00011803       8.85171186       0.08492000      -0.08492000      -0.14899000
In      -0.00011803       2.95075553       8.85171186      -0.08492000       0.08492000      -0.14899000
In       2.95075553       2.95075553       5.90147564       0.08492000       0.08492000       0.14899000
In      -0.00011803       5.90147564      -0.00011803      -0.08492000       0.14899000      -0.08492000
In       2.95075553       5.90147564       2.95075553       0.08492000       0.14899000       0.08492000
In      -0.00011803       8.85171186       2.95075553      -0.08492000      -0.14899000       0.08492000
In       2.95075553       8.85171186      -0.00011803       0.08492000      -0.14899000      -0.08492000
In       0.00001180       5.90132221       5.90132221       0.01511000       0.03909000       0.03909000
In       2.95062570       5.90132221       8.85186529      -0.01510000       0.03909000      -0.03909000
In       0.00001180       8.85186529       8.85186529       0.01511000      -0.03909000      -0.03909000
In       2.95062570       8.85186529       5.90132221      -0.01510000      -0.03909000       0.03909000
In       5.90147564      -0.00011803      -0.00011803       0.14899000      -0.08492000      -0.08492000
In       8.85171186      -0.00011803       2.95075553      -0.14899000      -0.08492000       0.08492000
In       5.90147564       2.95075553       2.95075553       0.14899000       0.08492000       0.08492000
In       8.85171186       2.95075553      -0.00011803      -0.14899000       0.08492000      -0.08492000
In       5.90132221       0.00001180       5.90132221       0.03909000       0.01511000       0.03909000
In       8.85186529       0.00001180       8.85186529      -0.03909000       0.01511000      -0.03909000
In       5.90132221       2.95062570       8.85186529       0.03909000      -0.01510000      -0.03909000
In       8.85186529       2.95062570       5.90132221      -0.03909000      -0.01510000       0.03909000
In       5.90132221       5.90132221       0.00001180       0.03909000       0.03909000       0.01511000
In       8.85186529       5.90132221       2.95062570      -0.03909000       0.03909000      -0.01510000
In       5.90132221       8.85186529       2.95062570       0.03909000      -0.03909000      -0.01510000
In       8.85186529       8.85186529       0.00001180      -0.03909000      -0.03909000       0.01511000
In       5.90129861       5.90129861       5.90129861       0.01965000       0.01965000       0.01965000
In       8.85188889       5.90129861       8.85188889      -0.01965000       0.01965000      -0.01965000
In       5.90129861       8.85188889       8.85188889       0.01965000      -0.01965000      -0.01965000
In       8.85188889       8.85188889       5.90129861      -0.01965000      -0.01965000       0.01965000
In       1.47531875       1.47531875       1.47531875      -0.00001000      -0.00001000      -0.00001000
65
Lattice="11.80255 0.0 0.0 0.0 11.80255 0.0 0.0 0.0 11.80255" Properties=species:S:1:pos:R:3:forces:R:3 config_type=Interstitial energy=-64625.25291472 pbc="T T T"
P        1.47531875       1.47531875       4.46587247      -0.00000000      -0.00000000       0.10072000
P        4.46587247       1.47531875       1.47531875       0.10072000      -0.00000000      -0.00000000
P        1.47531875       4.46587247       1.47531875      -0.00000000       0.10072000      -0.00000000
P        4.42397342       4.42397342       4.42397342       0.01055000       0.01055000       0.01055000
P        1.47531875       1.47531875      10.28731503      -0.00000000      -0.00000000      -0.10072000
P        4.42500024       1.47531875       7.37659375       0.05101000      -0.00000000      -0.00000000
P        1.47531875       4.42500024       7.37659375      -0.00000000       0.05101000      -0.00000000
P        4.42407964       4.42407964      10.32910786       0.73803000       0.73803000      -0.73802000
P        1.47531875       7.37659375       4.42500024      -0.00000000      -0.00000000       0.05101000
P        4.42500024       7.37659375       1.47531875       0.05101000      -0.00000000      -0.00000000
P        1.47531875      10.28731503       1.47531875      -0.00000000      -0.10072000      -0.00000000
P        4.42407964      10.32910786       4.42407964       0.73803000      -0.73802000       0.73803000
P        1.47531875       7.37659375      10.32818726      -0.00000000      -0.00000000      -0.05101000
P        4.42606247       7.37659375       7.37659375       0.03424000      -0.00000000      -0.00000000
P        1.47531875      10.32818726       7.37659375      -0.00000000      -0.05101000      -0.00000000
P        4.42397342      10.32921408      10.32921408       0.01055000      -0.01055000      -0.01055000
P        7.37659375       1.47531875       4.42500024      -0.00000000      -0.00000000       0.05101000
P       10.28731503       1.47531875       1.47531875      -0.10072000      -0.00000000      -0.00000000
P        7.37659375       4.42500024       1.47531875      -0.00000000       0.05101000      -0.00000000
P       10.32910786       4.42407964       4.42407964      -0.73802000       0.73803000       0.73803000
P        7.37659375       1.47531875      10.32818726      -0.00000000      -0.00000000      -0.05101000
P       10.32818726       1.47531875       7.37659375      -0.05101000      -0.00000000      -0.00000000
P        7.37659375       4.42606247       7.37659375      -0.00000000       0.03424000      -0.00000000
P       10.32921408       4.42397342      10.32921408      -0.01055000       0.01055000      -0.01055000
P        7.37659375       7.37659375       4.42606247      -0.00000000      -0.00000000       0.03424000
P       10.32818726       7.37659375       1.47531875      -0.05101000      -0.00000000      -0.00000000
P        7.37659375      10.32818726       1.47531875      -0.00000000      -0.05101000      -0.00000000
P       10.32921408      10.32921408       4.42397342      -0.01055000      -0.01055000       0.01055000
P        7.37659375       7.37659375      10.32712503      -0.00000000      -0.00000000      -0.03424000
P       10.32712503       7.37659375       7.37659375      -0.03424000      -0.00000000      -0.00000000
P        7.37659375      10.32712503       7.37659375      -0.00000000      -0.03424000      -0.00000000
P       10.32910786      10.32910786      10.32910786      -0.73802000      -0.73802000      -0.73802000
In      -0.09372405      -0.09372405      -0.09372405       0.00566000       0.00566000       0.00566000
In       3.04436155      -0.09372405       3.04436155      -0.00566000       0.00566000      -0.00566000
In      -0.09372405       3.04436155       3.04436155       0.00566000      -0.00566000      -0.00566000
In       3.04436155       3.04436155      -0.09372405      -0.00566000      -0.00566000       0.00566000
In      -0.00441415      -0.00441415       5.90900567      -0.05552000      -0.05552000       0.11127000
In       2.95505165      -0.00441415       8.84417003       0.05552000      -0.05552000      -0.11127000
In      -0.00441415       2.95505165       8.84417003      -0.05552000       0.05552000      -0.11127000
In       2.95505165       2.95505165       5.90900567       0.05552000       0.05552000       0.11127000
In      -0.00441415       5.90900567      -0.00441415      -0.05552000       0.11127000      -0.05552000
In       2.95505165       5.90900567       2.95505165       0.05552000       0.11127000       0.05552000
In      -0.00441415       8.84417003       2.95505165      -0.05552000      -0.11127000       0.05552000
In       2.95505165       8.84417003      -0.00441415       0.05552000      -0.11127000      -0.05552000
In       0.00064914       5.90324603       5.90324603       0.10738000       0.07508000       0.07508000
In       2.94998836       5.90324603       8.84994147      -0.10738000       0.07508000      -0.07508000
In       0.00064914       8.84994147       8.84994147       0.10738000      -0.07508000      -0.07507000
In       2.94998836       8.84994147       5.90324603      -0.10738000      -0.07508000       0.07508000
In       5.90900567      -0.00441415      -0.00441415       0.11127000      -0.05552000      -0.05552000
In       8.84417003      -0.00441415       2.95505165      -0.11127000      -0.05552000       0.05552000
In       5.90900567       2.95505165       2.95505165       0.11127000       0.05552000       0.05552000
In       8.84417003       2.95505165      -0.00441415      -0.11127000       0.05552000      -0.05552000
In       5.90324603       0.00064914       5.90324603       0.07508000       0.10738000       0.07508000
In       8.84994147       0.00064914       8.84994147      -0.07508000       0.10738000      -0.07508000
In       5.90324603       2.94998836       8.84994147       0.07508000      -0.10738000      -0.07508000
In       8.84994147       2.94998836       5.90324603      -0.07508000      -0.10738000       0.07508000
In       5.90324603       5.90324603       0.00064914       0.07508000       0.07508000       0.10738000
In       8.84994147       5.90324603       2.94998836      -0.07508000       0.07508000      -0.10738000
In       5.90324603       8.84994147       2.94998836       0.07508000      -0.07508000      -0.10738000
In       8.84994147       8.84994147       0.00064914      -0.07508000      -0.07508000       0.10738000
In       5.90234903       5.90234903       5.90234903      -0.02133000      -0.02133000      -0.02133000
In       8.85083847       5.90234903       8.85083847       0.02133000      -0.02133000       0.02133000
In       5.90234903       8.85083847       8.85083847      -0.02133000       0.02133000       0.02133000
In       8.85083847       8.85083847       5.90234903       0.02133000       0.02133000      -0.02133000
In       1.47531875       1.47531875       1.47531875       0.00000000       0.00000000       0.00000000
65
Lattice="11.80255 0.0 0.0 0.0 11.80255 0.0 0.0 0.0 11.80255" Properties=species:S:1:pos:R:3:forces:R:3 config_type=Interstitial energy=-64625.26264984 pbc="T T T"
P        1.47531875       1.47531875       4.46653342      -0.00000000      -0.00000000       0.09264000
P        4.46653342       1.47531875       1.47531875       0.09264000      -0.00000000      -0.00000000
P        1.47531875       4.46653342       1.47531875      -0.00000000       0.09264000      -0.00000000
P        4.42396162       4.42396162       4.42396162       0.01103000       0.01103000       0.01103000
P        1.47531875       1.47531875      10.28665408      -0.00000000      -0.00000000      -0.09264000
P        4.42505926       1.47531875       7.37659375       0.05142000      -0.00000000      -0.00000000
P        1.47531875       4.42505926       7.37659375      -0.00000000       0.05142000      -0.00000000
P        4.42504745       4.42504745      10.32814005       0.73776000       0.73776000      -0.73775000
P        1.47531875       7.37659375       4.42505926      -0.00000000      -0.00000000       0.05142000
P        4.42505926       7.37659375       1.47531875       0.05142000      -0.00000000      -0.00000000
P        1.47531875      10.28665408       1.47531875      -0.00000000      -0.09264000      -0.00000000
P        4.42504745      10.32814005       4.42504745       0.73776000      -0.73775000       0.73776000
P        1.47531875       7.37659375      10.32812824      -0.00000000      -0.00000000      -0.05141000
P        4.42610968       7.37659375       7.37659375       0.03360000      -0.00000000      -0.00000000
P        1.47531875      10.32812824       7.37659375      -0.00000000      -0.05141000      -0.00000000
P        4.42396162      10.32922588      10.32922588       0.01103000      -0.01103000      -0.01103000
P        7.37659375       1.47531875       4.42505926      -0.00000000      -0.00000000       0.05142000
P       10.28665408       1.47531875       1.47531875      -0.09264000      -0.00000000      -0.00000000
P        7.37659375       4.42505926       1.47531875      -0.00000000       0.05142000      -0.00000000
P       10.32814005       4.42504745       4.42504745      -0.73775000       0.73776000       0.73776000
P        7.37659375       1.47531875      10.32812824      -0.00000000      -0.00000000      -0.05141000
P       10.32812824       1.47531875       7.37659375      -0.05141000      -0.00000000      -0.00000000
P        7.37659375       4.42610968       7.37659375      -0.00000000       0.03360000      -0.00000000
P       10.32922588       4.42396162      10.32922588      -0.01103000       0.01103000      -0.01103000
P        7.37659375       7.37659375       4.42610968      -0.00000000      -0.00000000       0.03360000
P       10.32812824       7.37659375       1.47531875      -0.05141000      -0.00000000      -0.00000000
P        7.37659375      10.32812824       1.47531875      -0.00000000      -0.05141000      -0.00000000
P       10.32922588      10.32922588       4.42396162      -0.01103000      -0.01103000       0.01103000
P        7.37659375       7.37659375      10.32707782      -0.00000000      -0.00000000      -0.03360000
P       10.32707782       7.37659375       7.37659375      -0.03360000      -0.00000000      -0.00000000
P        7.37659375      10.32707782       7.37659375      -0.00000000      -0.03360000      -0.00000000
P       10.32814005      10.32814005      10.32814005      -0.73775000      -0.73775000      -0.73775000
In      -0.09496332      -0.09496332      -0.09496332       0.02038000       0.02038000       0.02038000
In       3.04560082      -0.09496332       3.04560082      -0.02039000       0.02039000      -0.02039000
In      -0.09496332       3.04560082       3.04560082       0.02039000      -0.02039000      -0.02039000
In       3.04560082       3.04560082      -0.09496332      -0.02039000      -0.02039000       0.02039000
In      -0.00455578      -0.00455578       5.90926533      -0.05479000      -0.05479000       0.10964000
In       2.95519328      -0.00455578       8.84392217       0.05479000      -0.05479000      -0.10964000
In      -0.00455578       2.95519328       8.84392217      -0.05479000       0.05479000      -0.10964000
In       2.95519328       2.95519328       5.90926533       0.05479000       0.05479000       0.10964000
In      -0.00455578       5.90926533      -0.00455578      -0.05479000       0.10964000      -0.05479000
In       2.95519328       5.90926533       2.95519328       0.05479000       0.10964000       0.05479000
In      -0.00455578       8.84392217       2.95519328      -0.05479000      -0.10964000       0.05479000
In       2.95519328       8.84392217      -0.00455578       0.05479000      -0.10964000      -0.05479000
In       0.00080257       5.90337585       5.90337585       0.10722000       0.07663000       0.07663000
In       2.94983493       5.90337585       8.84981165      -0.10722000       0.07663000      -0.07663000
In       0.00080257       8.84981165       8.84981165       0.10722000      -0.07663000      -0.07663000
In       2.94983493       8.84981165       5.90337585      -0.10722000      -0.07663000       0.07663000
In       5.90926533      -0.00455578      -0.00455578       0.10964000      -0.05479000      -0.05479000
In       8.84392217      -0.00455578       2.95519328      -0.10964000      -0.05479000       0.05479000
In       5.90926533       2.95519328       2.95519328       0.10964000       0.05479000       0.05479000
In       8.84392217       2.95519328      -0.00455578      -0.10964000       0.05479000      -0.05479000
In       5.90337585       0.00080257       5.90337585       0.07663000       0.10722000       0.07663000
In       8.84981165       0.00080257       8.84981165      -0.07663000       0.10722000      -0.07663000
In       5.90337585       2.94983493       8.84981165       0.07663000      -0.10722000      -0.07663000
In       8.84981165       2.94983493       5.90337585      -0.07663000      -0.10722000       0.07663000
In       5.90337585       5.90337585       0.00080257       0.07663000       0.07663000       0.10722000
In       8.84981165       5.90337585       2.94983493      -0.07663000       0.07663000      -0.10722000
In       5.90337585       8.84981165       2.94983493       0.07663000      -0.07663000      -0.10722000
In       8.84981165       8.84981165       0.00080257      -0.07663000      -0.07663000       0.10722000
In       5.90232543       5.90232543       5.90232543      -0.02145000      -0.02145000      -0.02145000
In       8.85086207       5.90232543       8.85086207       0.02145000      -0.02145000       0.02145000
In       5.90232543       8.85086207       8.85086207      -0.02145000       0.02145000       0.02145000
In       8.85086207       8.85086207       5.90232543       0.02145000       0.02145000      -0.02145000
In       1.47531875       1.47531875       1.47531875       0.00000000       0.00000000       0.00000000
65
Lattice="11.80255 0.0 0.0 0.0 11.80255 0.0 0.0 0.0 11.80255" Properties=species:S:1:pos:R:3:forces:R:3 config_type=Interstitial energy=-64625.45645827 pbc="T T T"
P        1.47531875       1.47531875       4.49140139       0.00000000       0.00000000      -0.19095000
P        4.49140139       1.47531875       1.47531875      -0.19095000       0.00000000       0.00000000
P        1.47531875       4.49140139       1.47531875       0.00000000      -0.19095000       0.00000000
P        4.42350132       4.42350132       4.42350132       0.02785000       0.02785000       0.02785000
P        1.47531875       1.47531875      10.26178611       0.00000000       0.00000000       0.19095000
P        4.42713650       1.47531875       7.37659375       0.06589000       0.00000000       0.00000000
P        1.47531875       4.42713650       7.37659375       0.00000000       0.06589000       0.00000000
P        4.46111605       4.46111605      10.29207145       0.73503000       0.73503000      -0.73503000
P        1.47531875       7.37659375       4.42713650       0.00000000       0.00000000       0.06589000
P        4.42713650       7.37659375       1.47531875       0.06589000       0.00000000       0.00000000
P        1.47531875      10.26178611       1.47531875       0.00000000       0.19095000       0.00000000
P        4.46111605      10.29207145       4.46111605       0.73503000      -0.73503000       0.73503000
P        1.47531875       7.37659375      10.32605100       0.00000000       0.00000000      -0.06589000
P        4.42788007       7.37659375       7.37659375       0.00694000       0.00000000       0.00000000
P        1.47531875      10.32605100       7.37659375       0.00000000      -0.06589000       0.00000000
P        4.42350132      10.32968618      10.32968618       0.02785000      -0.02785000      -0.02785000
P        7.37659375       1.47531875       4.42713650       0.00000000       0.00000000       0.06589000