63
Lattice="11.802547 0.0 0.0 0.0 11.802547 0.0 0.0 0.0 11.802547" Properties=species:S:1:pos:R:3:forces:R:3 config_type=Vacancy energy=-61124.21333101 pbc="T T T"
P        1.47531838       1.47531838       4.42595512       0.04225000       0.04225000       0.04916000
P        4.42595512       1.47531838       1.47531838       0.04916000       0.04225000       0.04225000
P        1.47531838       4.42595512       1.47531838       0.04225000       0.04916000       0.04225000
P        4.42595512       4.42595512       4.42595512       0.01607000       0.01607000       0.01607000
P        1.47531838       1.47531838      10.32722863      -0.01252000      -0.01252000       0.01252000
P        4.42595512       1.47531838       7.37659188       0.03514000       0.05506000      -0.03514000
P        1.47531838       4.42595512       7.37659188       0.05506000       0.03514000      -0.03514000
P        4.42595512       4.42595512      10.32722863       0.03514000       0.03514000      -0.05506000
P        1.47531838       7.37659188       4.42595512       0.05506000      -0.03514000       0.03514000
P        4.42595512       7.37659188       1.47531838       0.03514000      -0.03514000       0.05506000
P        1.47531838      10.32722863       1.47531838      -0.01252000       0.01252000      -0.01252000
P        4.42595512      10.32722863       4.42595512       0.03514000      -0.05506000       0.03514000
P        1.47531838       7.37659188      10.32722863       0.04225000      -0.04916000      -0.04225000
P        4.42595512       7.37659188       7.37659188       0.01607000      -0.01607000      -0.01607000
P        1.47531838      10.32722863       7.37659188       0.04225000      -0.04225000      -0.04916000
P        4.42595512      10.32722863      10.32722863       0.04916000      -0.04225000      -0.04225000
P        7.37659188       1.47531838       4.42595512      -0.03514000       0.05506000       0.03514000
P       10.32722863       1.47531838       1.47531838       0.01252000      -0.01252000      -0.01252000
P        7.37659188       4.42595512       1.47531838      -0.03514000       0.03514000       0.05506000
P       10.32722863       4.42595512       4.42595512      -0.05506000       0.03514000       0.03514000
P        7.37659188       1.47531838      10.32722863      -0.04916000       0.04225000      -0.04225000
P       10.32722863       1.47531838       7.37659188      -0.04225000       0.04225000      -0.04916000
P        7.37659188       4.42595512       7.37659188      -0.01607000       0.01607000      -0.01607000
P       10.32722863       4.42595512      10.32722863      -0.04225000       0.04916000      -0.04225000
P        7.37659188       7.37659188       4.42595512      -0.01607000      -0.01607000       0.01607000
P       10.32722863       7.37659188       1.47531838      -0.04225000      -0.04916000       0.04225000
P        7.37659188      10.32722863       1.47531838      -0.04916000      -0.04225000       0.04225000
P       10.32722863      10.32722863       4.42595512      -0.04225000      -0.04225000       0.04916000
P        7.37659188       7.37659188      10.32722863      -0.03514000      -0.03514000      -0.05506000
P       10.32722863       7.37659188       7.37659188      -0.05506000      -0.03514000      -0.03514000
P        7.37659188      10.32722863       7.37659188      -0.03514000      -0.05506000      -0.03514000
P       10.32722863      10.32722863      10.32722863       0.01252000       0.01252000       0.01252000
In       2.95063675       0.00000000       2.95063675      -0.16718000      -0.02650000      -0.16718000
In       0.00000000       2.95063675       2.95063675      -0.02650000      -0.16718000      -0.16718000
In       2.95063675       2.95063675       0.00000000      -0.16718000      -0.16718000      -0.02650000
In       0.00000000       0.00000000       5.90127350       0.00000000       0.00000000      -0.00000000
In       2.95063675       0.00000000       8.85191025      -0.16718000       0.02650000       0.16718000
In       0.00000000       2.95063675       8.85191025       0.02650000      -0.16718000       0.16718000
In       2.95063675       2.95063675       5.90127350      -0.04197000      -0.04197000      -0.01446000
In       0.00000000       5.90127350       0.00000000       0.00000000      -0.00001000      -0.00000000
In       2.95063675       5.90127350       2.95063675      -0.04197000      -0.01446000      -0.04197000
In       0.00000000       8.85191025       2.95063675       0.02650000       0.16718000      -0.16718000
In       2.95063675       8.85191025       0.00000000      -0.16718000       0.16718000       0.02650000
In       0.00000000       5.90127350       5.90127350      -0.00000000      -0.00001000      -0.00000000
In       2.95063675       5.90127350       8.85191025      -0.04197000       0.01445000       0.04197000
In       0.00000000       8.85191025       8.85191025      -0.02650000       0.16718000       0.16718000
In       2.95063675       8.85191025       5.90127350      -0.04197000       0.04197000       0.01445000
In       5.90127350       0.00000000       0.00000000      -0.00000000       0.00000000      -0.00000000
In       8.85191025       0.00000000       2.95063675       0.16718000       0.02650000      -0.16718000
In       5.90127350       2.95063675       2.95063675      -0.01446000      -0.04197000      -0.04197000
In       8.85191025       2.95063675       0.00000000       0.16718000      -0.16718000       0.02649000
In       5.90127350       0.00000000       5.90127350      -0.00000000       0.00000000      -0.00000000
In       8.85191025       0.00000000       8.85191025       0.16718000      -0.02649000       0.16718000
In       5.90127350       2.95063675       8.85191025       0.01445000      -0.04197000       0.04197000
In       8.85191025       2.95063675       5.90127350       0.04197000      -0.04197000       0.01445000
In       5.90127350       5.90127350       0.00000000      -0.00000000      -0.00001000      -0.00000000
In       8.85191025       5.90127350       2.95063675       0.04197000       0.01445000      -0.04197000
In       5.90127350       8.85191025       2.95063675       0.01445000       0.04197000      -0.04197000
In       8.85191025       8.85191025       0.00000000       0.16718000       0.16718000      -0.02650000
In       5.90127350       5.90127350       5.90127350      -0.00000000      -0.00001000      -0.00000000
In       8.85191025       5.90127350       8.85191025       0.04197000      -0.01446000       0.04197000
In       5.90127350       8.85191025       8.85191025      -0.01446000       0.04197000       0.04197000
In       8.85191025       8.85191025       5.90127350       0.04197000       0.04197000      -0.01446000
63
Lattice="11.802547 0.0 0.0 0.0 11.802547 0.0 0.0 0.0 11.802547" Properties=species:S:1:pos:R:3:forces:R:3 config_type=Vacancy energy=-61124.21449363 pbc="T T T"
P        1.47537739       1.47537739       4.42602594       0.04122000       0.04122000       0.04788000
P        4.42602594       1.47537739       1.47537739       0.04788000       0.04122000       0.04122000
P        1.47537739       4.42602594       1.47537739       0.04122000       0.04788000       0.04122000
P        4.42597873       4.42597873       4.42597873       0.01557000       0.01557000       0.01557000
P        1.47530657       1.47530657      10.32724043      -0.01315000      -0.01315000       0.01315000
P        4.42600234       1.47538919       7.37654466       0.03389000       0.05372000      -0.03388000
P        1.47538919       4.42600234       7.37654466       0.05372000       0.03389000      -0.03388000
P        4.42600234       4.42600234      10.32715781       0.03389000       0.03389000      -0.05372000
P        1.47538919       7.37654466       4.42600234       0.05372000      -0.03388000       0.03389000
P        4.42600234       7.37654466       1.47538919       0.03389000      -0.03388000       0.05372000
P        1.47530657      10.32724043       1.47530657      -0.01315000       0.01315000      -0.01315000
P        4.42600234      10.32715781       4.42600234       0.03389000      -0.05372000       0.03389000
P        1.47537739       7.37652106      10.32716961       0.04122000      -0.04787000      -0.04122000
P        4.42597873       7.37656827       7.37656827       0.01557000      -0.01557000      -0.01557000
P        1.47537739      10.32716961       7.37652106       0.04122000      -0.04122000      -0.04787000
P        4.42602594      10.32716961      10.32716961       0.04788000      -0.04122000      -0.04122000
P        7.37654466       1.47538919       4.42600234      -0.03388000       0.05372000       0.03389000
P       10.32724043       1.47530657       1.47530657       0.01315000      -0.01315000      -0.01315000
P        7.37654466       4.42600234       1.47538919      -0.03388000       0.03389000       0.05372000
P       10.32715781       4.42600234       4.42600234      -0.05372000       0.03389000       0.03389000
P        7.37652106       1.47537739      10.32716961      -0.04787000       0.04122000      -0.04122000
P       10.32716961       1.47537739       7.37652106      -0.04122000       0.04122000      -0.04787000
P        7.37656827       4.42597873       7.37656827      -0.01557000       0.01557000      -0.01557000
P       10.32716961       4.42602594      10.32716961      -0.04122000       0.04788000      -0.04122000
P        7.37656827       7.37656827       4.42597873      -0.01557000      -0.01557000       0.01557000
P       10.32716961       7.37652106       1.47537739      -0.04122000      -0.04787000       0.04122000
P        7.37652106      10.32716961       1.47537739      -0.04787000      -0.04122000       0.04122000
P       10.32716961      10.32716961       4.42602594      -0.04122000      -0.04122000       0.04788000
P        7.37654466       7.37654466      10.32715781      -0.03388000      -0.03388000      -0.05372000
P       10.32715781       7.37654466       7.37654466      -0.05372000      -0.03388000      -0.03388000
P        7.37654466      10.32715781       7.37654466      -0.03388000      -0.05372000      -0.03388000
P       10.32724043      10.32724043      10.32724043       0.01315000       0.01315000       0.01315000
In       2.95041250      -0.00003541       2.95041250      -0.16414000      -0.02623000      -0.16414000
In      -0.00003541       2.95041250       2.95041250      -0.02623000      -0.16414000      -0.16414000
In       2.95041250       2.95041250      -0.00003541      -0.16414000      -0.16414000      -0.02623000
In       0.00000000       0.00000000       5.90127350       0.00000000       0.00000000      -0.00001000
In       2.95041250       0.00003541       8.85213450      -0.16414000       0.02623000       0.16414000
In       0.00003541       2.95041250       8.85213450       0.02623000      -0.16414000       0.16414000
In       2.95057774       2.95057774       5.90124989      -0.04058000      -0.04058000      -0.01412000
In       0.00000000       5.90127350       0.00000000       0.00000000      -0.00001000       0.00000000
In       2.95057774       5.90124989       2.95057774      -0.04058000      -0.01412000      -0.04058000
In       0.00003541       8.85213450       2.95041250       0.02623000       0.16414000      -0.16414000
In       2.95041250       8.85213450       0.00003541      -0.16414000       0.16414000       0.02623000
In       0.00000000       5.90127350       5.90127350       0.00000000      -0.00001000      -0.00001000
In       2.95057774       5.90129711       8.85196926      -0.04058000       0.01410000       0.04058000
In      -0.00003541       8.85213450       8.85213450      -0.02623000       0.16414000       0.16414000
In       2.95057774       8.85196926       5.90129711      -0.04058000       0.04058000       0.01410000
In       5.90127350       0.00000000       0.00000000      -0.00001000       0.00000000       0.00000000
In       8.85213450       0.00003541       2.95041250       0.16414000       0.02623000      -0.16414000
In       5.90124989       2.95057774       2.95057774      -0.01412000      -0.04058000      -0.04058000
In       8.85213450       2.95041250       0.00003541       0.16414000      -0.16414000       0.02623000
In       5.90127350       0.00000000       5.90127350      -0.00001000       0.00000000      -0.00001000
In       8.85213450      -0.00003541       8.85213450       0.16414000      -0.02623000       0.16414000
In       5.90129711       2.95057774       8.85196926       0.01410000      -0.04058000       0.04058000
In       8.85196926       2.95057774       5.90129711       0.04058000      -0.04058000       0.01410000
In       5.90127350       5.90127350       0.00000000      -0.00001000      -0.00001000       0.00000000
In       8.85196926       5.90129711       2.95057774       0.04058000       0.01410000      -0.04058000
In       5.90129711       8.85196926       2.95057774       0.01410000       0.04058000      -0.04058000
In       8.85213450       8.85213450      -0.00003541       0.16414000       0.16414000      -0.02623000
In       5.90127350       5.90127350       5.90127350      -0.00001000      -0.00001000      -0.00001000
In       8.85196926       5.90124989       8.85196926       0.04058000      -0.01412000       0.04058000
In       5.90124989       8.85196926       8.85196926      -0.01412000       0.04058000       0.04058000
In       8.85196926       8.85196926       5.90124989       0.04058000       0.04058000      -0.01412000
63
Lattice="11.802547 0.0 0.0 0.0 11.802547 0.0 0.0 0.0 11.802547" Properties=species:S:1:pos:R:3:forces:R:3 config_type=Vacancy energy=-61124.24694638 pbc="T T T"
P        1.47815099       1.47815099       4.42924804      -0.01010000      -0.01010000      -0.01728000
P        4.42924804       1.47815099       1.47815099      -0.01728000      -0.01010000      -0.01010000
P        1.47815099       4.42924804       1.47815099      -0.01010000      -0.01728000      -0.01010000
P        4.42702916       4.42702916       4.42702916      -0.00975000      -0.00975000      -0.00975000
P        1.47448039       1.47448039      10.32806661      -0.06404000      -0.06404000       0.06404000
P        4.42831563       1.47901257       7.37423137      -0.02561000      -0.01315000       0.02561000
P        1.47901257       4.42831563       7.37423137      -0.01315000      -0.02561000       0.02561000
P        4.42831563       4.42831563      10.32353443      -0.02561000      -0.02561000       0.01315000
P        1.47901257       7.37423137       4.42831563      -0.01315000       0.02561000      -0.02561000
P        4.42831563       7.37423137       1.47901257      -0.02561000       0.02561000      -0.01315000
P        1.47448039      10.32806661       1.47448039      -0.06404000       0.06404000      -0.06404000
P        4.42831563      10.32353443       4.42831563      -0.02561000       0.01315000      -0.02561000
P        1.47815099       7.37329896      10.32439601      -0.01010000       0.01727000       0.01010000
P        4.42702916       7.37551784       7.37551784      -0.00975000       0.00975000       0.00975000
P        1.47815099      10.32439601       7.37329896      -0.01010000       0.01010000       0.01728000
P        4.42924804      10.32439601      10.32439601      -0.01728000       0.01010000       0.01010000
P        7.37423137       1.47901257       4.42831563       0.02561000      -0.01315000      -0.02561000
P       10.32806661       1.47448039       1.47448039       0.06404000      -0.06404000      -0.06404000
P        7.37423137       4.42831563       1.47901257       0.02561000      -0.02561000      -0.01315000
P       10.32353443       4.42831563       4.42831563       0.01315000      -0.02561000      -0.02561000
P        7.37329896       1.47815099      10.32439601       0.01727000      -0.01010000       0.01010000
P       10.32439601       1.47815099       7.37329896       0.01010000      -0.01010000       0.01727000
P        7.37551784       4.42702916       7.37551784       0.00975000      -0.00975000       0.00975000
P       10.32439601       4.42924804      10.32439601       0.01010000      -0.01728000       0.01010000
P        7.37551784       7.37551784       4.42702916       0.00975000       0.00975000      -0.00975000
P       10.32439601       7.37329896       1.47815099       0.01010000       0.01727000      -0.01010000
P        7.37329896      10.32439601       1.47815099       0.01728000       0.01010000      -0.01010000
P       10.32439601      10.32439601       4.42924804       0.01010000       0.01010000      -0.01728000
P        7.37423137       7.37423137      10.32353443       0.02561000       0.02561000       0.01315000
P       10.32353443       7.37423137       7.37423137       0.01315000       0.02561000       0.02561000
P        7.37423137      10.32353443       7.37423137       0.02561000       0.01315000       0.02561000
P       10.32806661      10.32806661      10.32806661       0.06404000       0.06404000       0.06404000
In       2.93942433      -0.00178218       2.93942433      -0.04755000      -0.02288000      -0.04755000
In      -0.00178218       2.93942433       2.93942433      -0.02288000      -0.04755000      -0.04755000
In       2.93942433       2.93942433      -0.00178218      -0.04755000      -0.04755000      -0.02288000
In       0.00000000       0.00000000       5.90127350      -0.00000000      -0.00000000      -0.00000000
In       2.93942433       0.00178218       8.86312267      -0.04755000       0.02287000       0.04755000
In       0.00178218       2.93942433       8.86312267       0.02288000      -0.04755000       0.04755000
In       2.94782774       2.94782774       5.90030569       0.01933000       0.01933000       0.00318000
In       0.00000000       5.90127350       0.00000000      -0.00000000       0.00000000      -0.00000000
In       2.94782774       5.90030569       2.94782774       0.01933000       0.00318000       0.01933000
In       0.00178218       8.86312267       2.93942433       0.02287000       0.04755000      -0.04755000
In       2.93942433       8.86312267       0.00178218      -0.04755000       0.04755000       0.02287000
In       0.00000000       5.90127350       5.90127350       0.00000000      -0.00000000      -0.00000000
In       2.94782774       5.90224131       8.85471926       0.01933000      -0.00318000      -0.01933000
In      -0.00178218       8.86312267       8.86312267      -0.02288000       0.04755000       0.04755000
In       2.94782774       8.85471926       5.90224131       0.01933000      -0.01933000      -0.00318000
In       5.90127350       0.00000000       0.00000000      -0.00000000      -0.00000000      -0.00000000
In       8.86312267       0.00178218       2.93942433       0.04755000       0.02287000      -0.04755000
In       5.90030569       2.94782774       2.94782774       0.00318000       0.01933000       0.01933000
In       8.86312267       2.93942433       0.00178218       0.04755000      -0.04755000       0.02288000
In       5.90127350       0.00000000       5.90127350      -0.00000000      -0.00000000      -0.00000000
In       8.86312267      -0.00178218       8.86312267       0.04755000      -0.02288000       0.04755000
In       5.90224131       2.94782774       8.85471926      -0.00318000       0.01933000      -0.01933000
In       8.85471926       2.94782774       5.90224131      -0.01933000       0.01933000      -0.00318000
In       5.90127350       5.90127350       0.00000000      -0.00000000      -0.00000000       0.00000000
In       8.85471926       5.90224131       2.94782774      -0.01933000      -0.00318000       0.01933000
In       5.90224131       8.85471926       2.94782774      -0.00318000      -0.01933000       0.01933000
In       8.86312267       8.86312267      -0.00178218       0.04755000       0.04755000      -0.02288000
In       5.90127350       5.90127350       5.90127350      -0.00000000       0.00000000      -0.00000000
In       8.85471926       5.90030569       8.85471926      -0.01933000       0.00318000      -0.01933000
In       5.90030569       8.85471926       8.85471926       0.00318000      -0.01933000      -0.01933000
In       8.85471926       8.85471926       5.90030569      -0.01933000      -0.01933000       0.00318000
63
Lattice="11.802547 0.0 0.0 0.0 11.802547 0.0 0.0 0.0 11.802547" Properties=species:S:1:pos:R:3:forces:R:3 config_type=Vacancy energy=-61124.24807027 pbc="T T T"
P        1.47865850       1.47865850       4.42983816      -0.01963000      -0.01963000      -0.02959000
P        4.42983816       1.47865850       1.47865850      -0.02959000      -0.01963000      -0.01963000
P        1.47865850       4.42983816       1.47865850      -0.01963000      -0.02959000      -0.01963000
P        4.42721800       4.42721800       4.42721800      -0.01416000      -0.01416000      -0.01416000
P        1.47422074       1.47422074      10.32832626      -0.07386000      -0.07386000       0.07386000
P        4.42870512       1.47967351       7.37384188      -0.03610000      -0.02518000       0.03610000
P        1.47967351       4.42870512       7.37384188      -0.02518000      -0.03610000       0.03610000
P        4.42870512       4.42870512      10.32287349      -0.03610000      -0.03610000       0.02518000
P        1.47967351       7.37384188       4.42870512      -0.02518000       0.03610000      -0.03610000
P        4.42870512       7.37384188       1.47967351      -0.03610000       0.03610000      -0.02518000
P        1.47422074      10.32832626       1.47422074      -0.07386000       0.07386000      -0.07386000
P        4.42870512      10.32287349       4.42870512      -0.03610000       0.02518000      -0.03610000
P        1.47865850       7.37270884      10.32388850      -0.01963000       0.02959000       0.01963000
P        4.42721800       7.37532900       7.37532900      -0.01416000       0.01416000       0.01416000
P        1.47865850      10.32388850       7.37270884      -0.01963000       0.01963000       0.02959000
P        4.42983816      10.32388850      10.32388850      -0.02959000       0.01963000       0.01963000
P        7.37384188       1.47967351       4.42870512       0.03610000      -0.02518000      -0.03610000
P       10.32832626       1.47422074       1.47422074       0.07386000      -0.07386000      -0.07386000
P        7.37384188       4.42870512       1.47967351       0.03610000      -0.03610000      -0.02518000
P       10.32287349       4.42870512       4.42870512       0.02518000      -0.03610000      -0.03610000
P        7.37270884       1.47865850      10.32388850       0.02959000      -0.01963000       0.01963000
P       10.32388850       1.47865850       7.37270884       0.01963000      -0.01963000       0.02959000
P        7.37532900       4.42721800       7.37532900       0.01416000      -0.01416000       0.01416000
P       10.32388850       4.42983816      10.32388850       0.01963000      -0.02959000       0.01963000
P        7.37532900       7.37532900       4.42721800       0.01416000       0.01416000      -0.01416000
P       10.32388850       7.37270884       1.47865850       0.01963000       0.02959000      -0.01963000
P        7.37270884      10.32388850       1.47865850       0.02959000       0.01963000      -0.01963000
P       10.32388850      10.32388850       4.42983816       0.01963000       0.01963000      -0.02959000
P        7.37384188       7.37384188      10.32287349       0.03610000       0.03610000       0.02518000
P       10.32287349       7.37384188       7.37384188       0.02518000       0.03610000       0.03610000
P        7.37384188      10.32287349       7.37384188       0.03610000       0.02518000       0.03610000
P       10.32832626      10.32832626      10.32832626       0.07386000       0.07386000       0.07386000
In       2.93727627      -0.00214806       2.93727627      -0.02558000      -0.02139000      -0.02558000
In      -0.00214806       2.93727627       2.93727627      -0.02139000      -0.02558000      -0.02558000
In       2.93727627       2.93727627      -0.00214806      -0.02558000      -0.02558000      -0.02139000
In       0.00000000       0.00000000       5.90127350      -0.00000000      -0.00000000       0.00000000
In       2.93727627       0.00214806       8.86527073      -0.02558000       0.02139000       0.02558000
In       0.00214806       2.93727627       8.86527073       0.02139000      -0.02558000       0.02558000
In       2.94733204       2.94733204       5.90012865       0.03008000       0.03008000       0.00664000
In       0.00000000       5.90127350       0.00000000      -0.00000000       0.00000000      -0.00000000
In       2.94733204       5.90012865       2.94733204       0.03008000       0.00664000       0.03008000
In       0.00214806       8.86527073       2.93727627       0.02139000       0.02558000      -0.02558000
In       2.93727627       8.86527073       0.00214806      -0.02558000       0.02558000       0.02139000
In       0.00000000       5.90127350       5.90127350       0.00000000       0.00000000       0.00000000
In       2.94733204       5.90241835       8.85521496       0.03008000      -0.00663000      -0.03008000
In      -0.00214806       8.86527073       8.86527073      -0.02139000       0.02558000       0.02558000
In       2.94733204       8.85521496       5.90241835       0.03008000      -0.03008000      -0.00664000
In       5.90127350       0.00000000       0.00000000       0.00000000      -0.00000000      -0.00000000
In       8.86527073       0.00214806       2.93727627       0.02558000       0.02139000      -0.02558000
In       5.90012865       2.94733204       2.94733204       0.00664000       0.03008000       0.03008000
In       8.86527073       2.93727627       0.00214806       0.02558000      -0.02558000       0.02139000
In       5.90127350       0.00000000       5.90127350       0.00000000      -0.00000000       0.00000000
In       8.86527073      -0.00214806       8.86527073       0.02558000      -0.02139000       0.02558000
In       5.90241835       2.94733204       8.85521496      -0.00664000       0.03008000      -0.03008000
In       8.85521496       2.94733204       5.90241835      -0.03008000       0.03008000      -0.00664000
In       5.90127350       5.90127350       0.00000000       0.00000000       0.00000000       0.00000000
In       8.85521496       5.90241835       2.94733204      -0.03008000      -0.00663000       0.03008000
In       5.90241835       8.85521496       2.94733204      -0.00664000      -0.03008000       0.03008000
In       8.86527073       8.86527073      -0.00214806       0.02558000       0.02558000      -0.02139000
In       5.90127350       5.90127350       5.90127350       0.00000000       0.00000000       0.00000000
In       8.85521496       5.90012865       8.85521496      -0.03008000       0.00664000      -0.03008000
In       5.90012865       8.85521496       8.85521496       0.00664000      -0.03008000      -0.03008000
In       8.85521496       8.85521496       5.90012865      -0.03008000      -0.03008000       0.00664000
63
Lattice="11.802547 0.0 0.0 0.0 11.802547 0.0 0.0 0.0 11.802547" Properties=species:S:1:pos:R:3:forces:R:3 config_type=Vacancy energy=-61124.24835816 pbc="T T T"
P        1.47871751       1.47871751       4.42989718      -0.02086000      -0.02086000      -0.03131000
P        4.42989718       1.47871751       1.47871751      -0.03131000      -0.02086000      -0.02086000
P        1.47871751       4.42989718       1.47871751      -0.02086000      -0.03131000      -0.02086000
P        4.42722980       4.42722980       4.42722980      -0.01450000      -0.01450000      -0.01450000
P        1.47406731       1.47406731      10.32847969      -0.07544000      -0.07544000       0.07544000
P        4.42871692       1.47975613       7.37383008      -0.03753000      -0.02698000       0.03752000
P        1.47975613       4.42871692       7.37383008      -0.02698000      -0.03753000       0.03752000
P        4.42871692       4.42871692      10.32279087      -0.03753000      -0.03753000       0.02698000
P        1.47975613       7.37383008       4.42871692      -0.02698000       0.03752000      -0.03753000
P        4.42871692       7.37383008       1.47975613      -0.03753000       0.03752000      -0.02698000
P        1.47406731      10.32847969       1.47406731      -0.07544000       0.07544000      -0.07544000
P        4.42871692      10.32279087       4.42871692      -0.03753000       0.02698000      -0.03753000
P        1.47871751       7.37264982      10.32382949      -0.02086000       0.03130000       0.02086000
P        4.42722980       7.37531720       7.37531720      -0.01450000       0.01450000       0.01450000
P        1.47871751      10.32382949       7.37264982      -0.02086000       0.02086000       0.03130000
P        4.42989718      10.32382949      10.32382949      -0.03131000       0.02086000       0.02086000
P        7.37383008       1.47975613       4.42871692       0.03752000      -0.02698000      -0.03753000
P       10.32847969       1.47406731       1.47406731       0.07544000      -0.07544000      -0.07544000
P        7.37383008       4.42871692       1.47975613       0.03752000      -0.03753000      -0.02698000
P       10.32279087       4.42871692       4.42871692       0.02698000      -0.03753000      -0.03753000
P        7.37264982       1.47871751      10.32382949       0.03130000      -0.02086000       0.02086000
P       10.32382949       1.47871751       7.37264982       0.02086000      -0.02086000       0.03130000
P        7.37531720       4.42722980       7.37531720       0.01450000      -0.01450000       0.01450000
P       10.32382949       4.42989718      10.32382949       0.02086000      -0.03131000       0.02086000
P        7.37531720       7.37531720       4.42722980       0.01450000       0.01450000      -0.01450000