64
Lattice="11.802547 0.0 0.0 0.0 11.802547 0.0 0.0 0.0 11.802547" Properties=species:S:1:pos:R:3:forces:R:3 config_type=Antisite energy=-64412.46358616 pbc="T T T"
P        4.42595512       1.47531838       1.47531838       0.11491000      -0.02286000      -0.11490000
P        1.47531838       4.42595512       1.47531838      -0.02286000       0.11491000      -0.11490000
P        4.42595512       4.42595512       4.42595512       0.11491000       0.11491000       0.02287000
P        1.47531838       1.47531838      10.32722863       0.00001000       0.00001000      -0.00001000
P        4.42595512       1.47531838       7.37659188       0.11491000       0.02287000       0.11491000
P        1.47531838       4.42595512       7.37659188       0.02287000       0.11491000       0.11491000
P        4.42595512       4.42595512      10.32722863       0.00360000       0.00360000      -0.01999000
P        1.47531838       7.37659188       4.42595512       0.00001000      -0.00000000       0.00000000
P        4.42595512       7.37659188       1.47531838       0.00360000       0.01998000      -0.00359000
P        1.47531838      10.32722863       1.47531838       0.02287000      -0.11491000      -0.11490000
P        4.42595512      10.32722863       4.42595512       0.11491000      -0.11491000      -0.02286000
P        1.47531838       7.37659188      10.32722863       0.00001000      -0.00000000      -0.00001000
P        4.42595512       7.37659188       7.37659188       0.00360000      -0.01998000       0.00359000
P        1.47531838      10.32722863       7.37659188      -0.02286000      -0.11491000       0.11491000
P        4.42595512      10.32722863      10.32722863       0.00360000      -0.00360000       0.01998000
P        7.37659188       1.47531838       4.42595512      -0.00000000       0.00001000       0.00001000
P       10.32722863       1.47531838       1.47531838      -0.11491000       0.02287000      -0.11490000
P        7.37659188       4.42595512       1.47531838       0.01998000       0.00360000      -0.00359000
P       10.32722863       4.42595512       4.42595512      -0.11491000       0.11491000      -0.02286000
P        7.37659188       1.47531838      10.32722863      -0.00000000       0.00001000      -0.00001000
P       10.32722863       1.47531838       7.37659188      -0.11492000      -0.02286000       0.11491000
P        7.37659188       4.42595512       7.37659188      -0.01998000       0.00360000       0.00359000
P       10.32722863       4.42595512      10.32722863      -0.00360000       0.00360000       0.01998000
P        7.37659188       7.37659188       4.42595512      -0.00000000      -0.00000000       0.00000000
P       10.32722863       7.37659188       1.47531838      -0.00360000      -0.01998000      -0.00359000
P        7.37659188      10.32722863       1.47531838      -0.01998000      -0.00360000      -0.00359000
P       10.32722863      10.32722863       4.42595512      -0.11491000      -0.11491000       0.02287000
P        7.37659188       7.37659188      10.32722863      -0.00000000      -0.00000000      -0.00001000
P       10.32722863       7.37659188       7.37659188      -0.00360000       0.01998000       0.00359000
P        7.37659188      10.32722863       7.37659188       0.01998000      -0.00360000       0.00359000
P       10.32722863      10.32722863      10.32722863      -0.00360000      -0.00360000      -0.01999000
In       1.47531838       1.47531838       4.42595512       0.00000000       0.00000000       0.00001000
In       0.00000000       0.00000000       0.00000000       0.00955000       0.00955000       0.01952000
In       2.95063675       0.00000000       2.95063675       0.91810000      -0.91810000      -0.91811000
In       0.00000000       2.95063675       2.95063675      -0.91810000       0.91810000      -0.91811000
In       2.95063675       2.95063675       0.00000000      -0.00956000      -0.00956000       0.01952000
In       0.00000000       0.00000000       5.90127350      -0.91810000      -0.91810000       0.91810000
In       2.95063675       0.00000000       8.85191025      -0.00956000       0.00955000      -0.01951000
In       0.00000000       2.95063675       8.85191025       0.00955000      -0.00956000      -0.01951000
In       2.95063675       2.95063675       5.90127350       0.91810000       0.91810000       0.91810000
In       0.00000000       5.90127350       0.00000000       0.02011000       0.01048000      -0.01049000
In       2.95063675       5.90127350       2.95063675      -0.00956000      -0.01952000       0.00955000
In       0.00000000       8.85191025       2.95063675       0.00955000       0.01952000       0.00955000
In       2.95063675       8.85191025       0.00000000      -0.02011000      -0.01048000      -0.01049000
In       0.00000000       5.90127350       5.90127350       0.00955000      -0.01952000      -0.00956000
In       2.95063675       5.90127350       8.85191025      -0.02012000       0.01048000       0.01049000
In       0.00000000       8.85191025       8.85191025       0.02011000      -0.01048000       0.01049000
In       2.95063675       8.85191025       5.90127350      -0.00956000       0.01952000      -0.00956000
In       5.90127350       0.00000000       0.00000000       0.01048000       0.02011000      -0.01049000
In       8.85191025       0.00000000       2.95063675       0.01952000       0.00955000       0.00955000
In       5.90127350       2.95063675       2.95063675      -0.01952000      -0.00956000       0.00955000
In       8.85191025       2.95063675       0.00000000      -0.01048000      -0.02012000      -0.01049000
In       5.90127350       0.00000000       5.90127350      -0.01952000       0.00955000      -0.00956000
In       8.85191025       0.00000000       8.85191025      -0.01048000       0.02011000       0.01049000
In       5.90127350       2.95063675       8.85191025       0.01048000      -0.02012000       0.01049000
In       8.85191025       2.95063675       5.90127350       0.01952000      -0.00956000      -0.00956000
In       5.90127350       5.90127350       0.00000000      -0.00327000      -0.00327000       0.00327000
In       8.85191025       5.90127350       2.95063675      -0.01048000       0.01048000       0.02011000
In       5.90127350       8.85191025       2.95063675       0.01048000      -0.01048000       0.02011000
In       8.85191025       8.85191025       0.00000000       0.00327000       0.00327000       0.00327000
In       5.90127350       5.90127350       5.90127350       0.01048000       0.01048000      -0.02012000
In       8.85191025       5.90127350       8.85191025       0.00327000      -0.00327000      -0.00326000
In       5.90127350       8.85191025       8.85191025      -0.00327000       0.00327000      -0.00326000
In       8.85191025       8.85191025       5.90127350      -0.01048000      -0.01048000      -0.02012000
64
Lattice="11.802547 0.0 0.0 0.0 11.802547 0.0 0.0 0.0 11.802547" Properties=species:S:1:pos:R:3:forces:R:3 config_type=Antisite energy=-64412.47725512 pbc="T T T"
P        4.42610856       1.47528297       1.47516494       0.11574000      -0.02118000      -0.11573000
P        1.47528297       4.42610856       1.47516494      -0.02118000       0.11574000      -0.11573000
P        4.42610856       4.42610856       4.42599053       0.11574000       0.11574000       0.02119000
P        1.47531838       1.47531838      10.32722863       0.00001000       0.00001000      -0.00001000
P        4.42610856       1.47535378       7.37674531       0.11574000       0.02119000       0.11573000
P        1.47535378       4.42610856       7.37674531       0.02119000       0.11574000       0.11573000
P        4.42595512       4.42595512      10.32720502       0.00343000       0.00343000      -0.01958000
P        1.47531838       7.37659188       4.42595512       0.00001000      -0.00000000       0.00000000
P        4.42595512       7.37661548       1.47531838       0.00343000       0.01958000      -0.00342000
P        1.47535378      10.32707519       1.47516494       0.02119000      -0.11574000      -0.11573000
P        4.42610856      10.32707519       4.42591972       0.11574000      -0.11574000      -0.02118000
P        1.47531838       7.37659188      10.32722863       0.00000000      -0.00000000      -0.00001000
P        4.42595512       7.37656827       7.37659188       0.00343000      -0.01958000       0.00343000
P        1.47528297      10.32707519       7.37674531      -0.02118000      -0.11574000       0.11573000
P        4.42595512      10.32722863      10.32725223       0.00343000      -0.00343000       0.01957000
P        7.37659188       1.47531838       4.42595512      -0.00000000       0.00001000       0.00000000
P       10.32707519       1.47535378       1.47516494      -0.11574000       0.02119000      -0.11573000
P        7.37661548       4.42595512       1.47531838       0.01958000       0.00343000      -0.00342000
P       10.32707519       4.42610856       4.42591972      -0.11574000       0.11574000      -0.02118000
P        7.37659188       1.47531838      10.32722863      -0.00000000       0.00000000      -0.00001000
P       10.32707519       1.47528297       7.37674531      -0.11574000      -0.02118000       0.11573000
P        7.37656827       4.42595512       7.37659188      -0.01958000       0.00343000       0.00343000
P       10.32722863       4.42595512      10.32725223      -0.00343000       0.00343000       0.01957000
P        7.37659188       7.37659188       4.42595512      -0.00000000      -0.00000000       0.00000000
P       10.32722863       7.37656827       1.47531838      -0.00343000      -0.01958000      -0.00342000
P        7.37656827      10.32722863       1.47531838      -0.01958000      -0.00343000      -0.00342000
P       10.32707519      10.32707519       4.42599053      -0.11574000      -0.11574000       0.02119000
P        7.37659188       7.37659188      10.32722863      -0.00000000      -0.00000000      -0.00001000
P       10.32722863       7.37661548       7.37659188      -0.00343000       0.01958000       0.00343000
P        7.37661548      10.32722863       7.37659188       0.01958000      -0.00343000       0.00343000
P       10.32722863      10.32722863      10.32720502      -0.00343000      -0.00343000      -0.01958000
In       1.47531838       1.47531838       4.42595512       0.00000000       0.00000000       0.00000000
In       0.00001180       0.00001180       0.00002361       0.00953000       0.00953000       0.01863000
In       2.95185241      -0.00120386       2.94943289       0.90211000      -0.90211000      -0.90212000
In      -0.00120386       2.95185241       2.94943289      -0.90211000       0.90211000      -0.90212000
In       2.95062495       2.95062495       0.00002361      -0.00953000      -0.00953000       0.01863000
In      -0.00120386      -0.00120386       5.90248916      -0.90211000      -0.90211000       0.90211000
In       2.95062495       0.00001180       8.85188664      -0.00953000       0.00953000      -0.01862000
In       0.00001180       2.95062495       8.85188664       0.00953000      -0.00953000      -0.01862000
In       2.95185241       2.95185241       5.90248916       0.90211000       0.90211000       0.90211000
In       0.00002361       5.90128530      -0.00001180       0.01984000       0.01157000      -0.01157000
In       2.95062495       5.90124989       2.95064855      -0.00953000      -0.01863000       0.00952000
In       0.00001180       8.85193386       2.95064855       0.00953000       0.01863000       0.00952000
In       2.95061314       8.85189845      -0.00001180      -0.01985000      -0.01157000      -0.01157000
In       0.00001180       5.90124989       5.90126170       0.00953000      -0.01863000      -0.00953000
In       2.95061314       5.90128530       8.85192205      -0.01985000       0.01157000       0.01158000
In       0.00002361       8.85189845       8.85192205       0.01984000      -0.01157000       0.01158000
In       2.95062495       8.85193386       5.90126170      -0.00953000       0.01863000      -0.00953000
In       5.90128530       0.00002361      -0.00001180       0.01157000       0.01984000      -0.01157000
In       8.85193386       0.00001180       2.95064855       0.01863000       0.00953000       0.00952000
In       5.90124989       2.95062495       2.95064855      -0.01863000      -0.00953000       0.00952000
In       8.85189845       2.95061314      -0.00001180      -0.01157000      -0.01985000      -0.01157000
In       5.90124989       0.00001180       5.90126170      -0.01863000       0.00953000      -0.00953000
In       8.85189845       0.00002361       8.85192205      -0.01157000       0.01984000       0.01158000
In       5.90128530       2.95061314       8.85192205       0.01157000      -0.01985000       0.01158000
In       8.85193386       2.95062495       5.90126170       0.01863000      -0.00953000      -0.00953000
In       5.90127350       5.90127350       0.00000000      -0.00311000      -0.00311000       0.00310000
In       8.85189845       5.90128530       2.95066036      -0.01157000       0.01157000       0.01984000
In       5.90128530       8.85189845       2.95066036       0.01157000      -0.01157000       0.01984000
In       8.85191025       8.85191025       0.00000000       0.00311000       0.00311000       0.00310000
In       5.90128530       5.90128530       5.90124989       0.01157000       0.01157000      -0.01985000
In       8.85191025       5.90127350       8.85191025       0.00311000      -0.00311000      -0.00310000
In       5.90127350       8.85191025       8.85191025      -0.00311000       0.00311000      -0.00310000
In       8.85189845       8.85189845       5.90124989      -0.01157000      -0.01157000      -0.01985000
64
Lattice="11.802547 0.0 0.0 0.0 11.802547 0.0 0.0 0.0 11.802547" Properties=species:S:1:pos:R:3:forces:R:3 config_type=Antisite energy=-64412.9325309 pbc="T T T"
P        4.43503128       1.47351259       1.46624222       0.15637000       0.08138000      -0.15638000
P        1.47351259       4.43503128       1.46624222       0.08138000       0.15637000      -0.15638000
P        4.43503128       4.43503128       4.42776091       0.15638000       0.15637000      -0.08138000
P        1.47531838       1.47531838      10.32722863      -0.00000000      -0.00000000       0.00000000
P        4.43503128       1.47712416       7.38566803       0.15638000      -0.08138000       0.15638000
P        1.47712416       4.43503128       7.38566803      -0.08138000       0.15638000       0.15638000
P        4.42623839       4.42623839      10.32564708      -0.00974000      -0.00974000       0.00410000
P        1.47531838       7.37659188       4.42595512      -0.00000000       0.00000000      -0.00000000
P        4.42623839       7.37817342       1.47503511      -0.00974000      -0.00410000       0.00973000
P        1.47712416      10.31815247       1.46624222      -0.08138000      -0.15638000      -0.15638000
P        4.43503128      10.31815247       4.42414934       0.15638000      -0.15638000       0.08138000
P        1.47531838       7.37659188      10.32722863      -0.00000000       0.00000000       0.00000000
P        4.42623839       7.37501033       7.37687514      -0.00974000       0.00410000      -0.00973000
P        1.47351259      10.31815247       7.38566803       0.08138000      -0.15638000       0.15638000
P        4.42623839      10.32694536      10.32881017      -0.00974000       0.00974000      -0.00410000
P        7.37659188       1.47531838       4.42595512       0.00000000      -0.00000000      -0.00000000
P       10.31815247       1.47712416       1.46624222      -0.15638000      -0.08138000      -0.15638000
P        7.37817342       4.42623839       1.47503511      -0.00410000      -0.00974000       0.00973000
P       10.31815247       4.43503128       4.42414934      -0.15638000       0.15638000       0.08138000
P        7.37659188       1.47531838      10.32722863       0.00000000      -0.00000000       0.00000000
P       10.31815247       1.47351259       7.38566803      -0.15638000       0.08138000       0.15638000
P        7.37501033       4.42623839       7.37687514       0.00410000      -0.00974000      -0.00974000
P       10.32694536       4.42623839      10.32881017       0.00974000      -0.00974000      -0.00410000
P        7.37659188       7.37659188       4.42595512       0.00000000       0.00000000      -0.00000000
P       10.32694536       7.37501033       1.47503511       0.00974000       0.00410000       0.00973000
P        7.37501033      10.32694536       1.47503511       0.00410000       0.00974000       0.00973000
P       10.31815247      10.31815247       4.42776091      -0.15638000      -0.15638000      -0.08138000
P        7.37659188       7.37659188      10.32722863       0.00000000       0.00000000       0.00000000
P       10.32694536       7.37817342       7.37687514       0.00974000      -0.00410000      -0.00973000
P        7.37817342      10.32694536       7.37687514      -0.00410000       0.00974000      -0.00973000
P       10.32694536      10.32694536      10.32564708       0.00974000       0.00974000       0.00410000
In       1.47531838       1.47531838       4.42595512      -0.00000000      -0.00000000      -0.00000000
In       0.00075536       0.00075536       0.00154613       0.00974000       0.00974000      -0.02564000
In       3.02313980      -0.07250305       2.87813370       0.13261000      -0.13260000      -0.13260000
In      -0.07250305       3.02313980       2.87813370      -0.13261000       0.13261000      -0.13260000
In       2.94988139       2.94988139       0.00154613      -0.00974000      -0.00974000      -0.02564000
In      -0.07250305      -0.07250305       5.97377655      -0.13261000      -0.13261000       0.13260000
In       2.94988139       0.00075536       8.85036412      -0.00974000       0.00974000       0.02564000
In       0.00075536       2.94988139       8.85036412       0.00974000      -0.00974000       0.02564000
In       3.02313980       3.02313980       5.97377655       0.13261000       0.13261000       0.13261000
In       0.00159334       5.90209968      -0.00082618       0.01191000       0.07895000      -0.07895000
In       2.94988139       5.89972737       2.95139211      -0.00974000       0.02564000       0.00975000
In       0.00075536       8.85345638       2.95139211       0.00974000      -0.02564000       0.00974000
In       2.94904341       8.85108407      -0.00082618      -0.01191000      -0.07895000      -0.07895000
In       0.00075536       5.89972737       5.90051814       0.00974000       0.02564000      -0.00974000
In       2.94904341       5.90209968       8.85273643      -0.01191000       0.07895000       0.07895000
In       0.00159334       8.85108407       8.85273643       0.01191000      -0.07895000       0.07895000
In       2.94988139       8.85345638       5.90051814      -0.00974000      -0.02564000      -0.00974000
In       5.90209968       0.00159334      -0.00082618       0.07895000       0.01191000      -0.07895000
In       8.85345638       0.00075536       2.95139211      -0.02564000       0.00974000       0.00975000
In       5.89972737       2.94988139       2.95139211       0.02564000      -0.00974000       0.00974000
In       8.85108407       2.94904341      -0.00082618      -0.07895000      -0.01191000      -0.07895000
In       5.89972737       0.00075536       5.90051814       0.02564000       0.00974000      -0.00974000
In       8.85108407       0.00159334       8.85273643      -0.07895000       0.01191000       0.07895000
In       5.90209968       2.94904341       8.85273643       0.07895000      -0.01191000       0.07895000
In       8.85345638       2.94988139       5.90051814      -0.02564000      -0.00974000      -0.00974000
In       5.90101384       5.90101384       0.00025966       0.00509000       0.00509000      -0.00509000
In       8.85108407       5.90209968       2.95223009      -0.07895000       0.07895000       0.01192000
In       5.90209968       8.85108407       2.95223009       0.07895000      -0.07895000       0.01192000
In       8.85216991       8.85216991       0.00025966      -0.00509000      -0.00509000      -0.00509000
In       5.90209968       5.90209968       5.89968016       0.07895000       0.07895000      -0.01191000
In       8.85216991       5.90101384       8.85165059      -0.00509000       0.00509000       0.00509000
In       5.90101384       8.85216991       8.85165059       0.00509000      -0.00509000       0.00509000
In       8.85108407       8.85108407       5.89968016      -0.07895000      -0.07895000      -0.01191000
64
Lattice="11.802547 0.0 0.0 0.0 11.802547 0.0 0.0 0.0 11.802547" Properties=species:S:1:pos:R:3:forces:R:3 config_type=Antisite energy=-64412.95329368 pbc="T T T"
P        4.43726197       1.47325293       1.46401153       0.16292000       0.10290000      -0.16292000
P        1.47325293       4.43726197       1.46401153       0.10290000       0.16292000      -0.16292000
P        4.43726197       4.43726197       4.42802057       0.16292000       0.16292000      -0.10291000
P        1.47531838       1.47531838      10.32722863      -0.00000000      -0.00000000       0.00000000
P        4.43726197       1.47738382       7.38789872       0.16292000      -0.10291000       0.16292000
P        1.47738382       4.43726197       7.38789872      -0.10291000       0.16292000       0.16292000
P        4.42628560       4.42628560      10.32531661      -0.01191000      -0.01191000       0.00893000
P        1.47531838       7.37659188       4.42595512      -0.00000000       0.00000000      -0.00000000
P        4.42628560       7.37850389       1.47498790      -0.01191000      -0.00893000       0.01190000
P        1.47738382      10.31592178       1.46401153      -0.10291000      -0.16292000      -0.16292000
P        4.43726197      10.31592178       4.42388968       0.16292000      -0.16292000       0.10290000
P        1.47531838       7.37659188      10.32722863      -0.00000000       0.00000000       0.00000000
P        4.42628560       7.37467986       7.37692235      -0.01191000       0.00893000      -0.01191000
P        1.47325293      10.31592178       7.38789872       0.10290000      -0.16292000       0.16292000
P        4.42628560      10.32689815      10.32914064      -0.01191000       0.01191000      -0.00893000
P        7.37659188       1.47531838       4.42595512       0.00000000      -0.00000000      -0.00001000
P       10.31592178       1.47738382       1.46401153      -0.16292000      -0.10291000      -0.16292000
P        7.37850389       4.42628560       1.47498790      -0.00893000      -0.01191000       0.01190000
P       10.31592178       4.43726197       4.42388968      -0.16292000       0.16292000       0.10290000
P        7.37659188       1.47531838      10.32722863       0.00000000      -0.00000000       0.00000000
P       10.31592178       1.47325293       7.38789872      -0.16292000       0.10290000       0.16292000
P        7.37467986       4.42628560       7.37692235       0.00893000      -0.01191000      -0.01191000
P       10.32689815       4.42628560      10.32914064       0.01191000      -0.01191000      -0.00893000
P        7.37659188       7.37659188       4.42595512       0.00000000       0.00000000      -0.00000000
P       10.32689815       7.37467986       1.47498790       0.01191000       0.00893000       0.01190000
P        7.37467986      10.32689815       1.47498790       0.00893000       0.01191000       0.01190000
P       10.31592178      10.31592178       4.42802057      -0.16292000      -0.16292000      -0.10291000
P        7.37659188       7.37659188      10.32722863       0.00000000       0.00000000       0.00000000
P       10.32689815       7.37850389       7.37692235       0.01191000      -0.00893000      -0.01191000
P        7.37850389      10.32689815       7.37692235      -0.00893000       0.01191000      -0.01191000
P       10.32689815      10.32689815      10.32531661       0.01191000       0.01191000       0.00893000
In       1.47531838       1.47531838       4.42595512      -0.00000000      -0.00000000      -0.00000000
In       0.00093240       0.00093240       0.00184120       0.00983000       0.00983000      -0.03487000
In       3.03916766      -0.08853091       2.86210584      -0.00784000       0.00785000       0.00785000
In      -0.08853091       3.03916766       2.86210584       0.00784000      -0.00784000       0.00785000
In       2.94970435       2.94970435       0.00184120      -0.00983000      -0.00983000      -0.03487000
In      -0.08853091      -0.08853091       5.98980441       0.00785000       0.00785000      -0.00785000
In       2.94970435       0.00093240       8.85006905      -0.00983000       0.00983000       0.03487000
In       0.00093240       2.94970435       8.85006905       0.00983000      -0.00983000       0.03487000
In       3.03916766       3.03916766       5.98980441      -0.00784000      -0.00784000      -0.00784000
In       0.00195922       5.90240654      -0.00113304       0.01050000       0.09414000      -0.09413000
In       2.94970435       5.89943230       2.95156915      -0.00983000       0.03488000       0.00984000
In       0.00093240       8.85375145       2.95156915       0.00983000      -0.03488000       0.00984000
In       2.94867753       8.85077721      -0.00113304      -0.01050000      -0.09414000      -0.09413000
In       0.00093240       5.89943230       5.90034110       0.00983000       0.03488000      -0.00983000
In       2.94867753       5.90240654       8.85304329      -0.01050000       0.09414000       0.09413000
In       0.00195922       8.85077721       8.85304329       0.01050000      -0.09414000       0.09413000
In       2.94970435       8.85375145       5.90034110      -0.00983000      -0.03488000      -0.00983000
In       5.90240654       0.00195922      -0.00113304       0.09414000       0.01050000      -0.09413000
In       8.85375145       0.00093240       2.95156915      -0.03488000       0.00983000       0.00984000
In       5.89943230       2.94970435       2.95156915       0.03488000      -0.00983000       0.00984000
In       8.85077721       2.94867753      -0.00113304      -0.09414000      -0.01050000      -0.09413000
In       5.89943230       0.00093240       5.90034110       0.03488000       0.00983000      -0.00983000
In       8.85077721       0.00195922       8.85304329      -0.09414000       0.01050000       0.09413000
In       5.90240654       2.94867753       8.85304329       0.09414000      -0.01050000       0.09413000
In       8.85375145       2.94970435       5.90034110      -0.03488000      -0.00983000      -0.00983000
In       5.90096663       5.90096663       0.00030687       0.00646000       0.00646000      -0.00646000
In       8.85077721       5.90240654       2.95259597      -0.09414000       0.09414000       0.01051000
In       5.90240654       8.85077721       2.95259597       0.09414000      -0.09414000       0.01051000
In       8.85221712       8.85221712       0.00030687      -0.00646000      -0.00646000      -0.00646000
In       5.90240654       5.90240654       5.89931428       0.09414000       0.09413000      -0.01050000
In       8.85221712       5.90096663       8.85160338      -0.00646000       0.00646000       0.00645000
In       5.90096663       8.85221712       8.85160338       0.00646000      -0.00646000       0.00645000
In       8.85077721       8.85077721       5.89931428      -0.09414000      -0.09414000      -0.01050000
64
Lattice="11.802547 0.0 0.0 0.0 11.802547 0.0 0.0 0.0 11.802547" Properties=species:S:1:pos:R:3:forces:R:3 config_type=Antisite energy=-64412.9558872 pbc="T T T"
P        4.43813535       1.47332374       1.46314995       0.16274000       0.10712000      -0.16274000
P        1.47332374       4.43813535       1.46314995       0.10712000       0.16274000      -0.16274000
P        4.43813535       4.43813535       4.42794976       0.16274000       0.16274000      -0.10713000
P        1.47531838       1.47531838      10.32722863      -0.00000000      -0.00000000       0.00000000
P        4.43813535       1.47731301       7.38876030       0.16274000      -0.10713000       0.16274000
P        1.47731301       4.43813535       7.38876030      -0.10713000       0.16274000       0.16274000
P        4.42628560       4.42628560      10.32523399      -0.01232000      -0.01232000       0.01000000
P        1.47531838       7.37659188       4.42595512      -0.00000000       0.00000000      -0.00001000
P        4.42628560       7.37858651       1.47498790      -0.01232000      -0.00999000       0.01231000
P        1.47731301      10.31506020       1.46314995      -0.10713000      -0.16274000      -0.16274000
P        4.43813535      10.31506020       4.42396049       0.16274000      -0.16274000       0.10712000
P        1.47531838       7.37659188      10.32722863      -0.00000000       0.00000000       0.00000000
P        4.42628560       7.37459724       7.37692235      -0.01232000       0.01000000      -0.01231000
P        1.47332374      10.31506020       7.38876030       0.10712000      -0.16274000       0.16274000
P        4.42628560      10.32689815      10.32922326      -0.01232000       0.01232000      -0.00999000
P        7.37659188       1.47531838       4.42595512       0.00000000      -0.00000000      -0.00001000
P       10.31506020       1.47731301       1.46314995      -0.16274000      -0.10713000      -0.16274000
P        7.37858651       4.42628560       1.47498790      -0.00999000      -0.01232000       0.01231000
P       10.31506020       4.43813535       4.42396049      -0.16274000       0.16274000       0.10712000
P        7.37659188       1.47531838      10.32722863       0.00000000      -0.00000000       0.00000000
P       10.31506020       1.47332374       7.38876030      -0.16274000       0.10712000       0.16274000