 +-------------------------------------------------+
 |                                                 |
 |      CCC   AA    SSS  TTTTT  EEEEE  PPPP        |
 |     C     A  A  S       T    E      P   P       |
 |     C     AAAA   SS     T    EEE    PPPP        |
 |     C     A  A     S    T    E      P           |
 |      CCC  A  A  SSS     T    EEEEE  P           |
 |                                                 |
 +-------------------------------------------------+
 |                                                 |
 | Welcome to Academic Release CASTEP version 24.1 |
 | Ab Initio Total Energy Program                  |
 |                                                 |
 | Authors:                                        |
 | M. Segall, M. Probert, C. Pickard, P. Hasnip,   |
 | S. Clark, K. Refson, J. R. Yates,               |
 | A. Bartok-Partay, M. Payne                      |
 |                                                 |
 | Contributors:                                   |
 | P. Lindan, P. Haynes, J. White, V. Milman,      |
 | N. Govind, M. Gibson, P. Tulip, V. Cocula,      |
 | B. Montanari, D. Quigley, M. Glover,            |
 | L. Bernasconi, A. Perlov, M. Plummer,           |
 | E. McNellis, J. Meyer, J. Gale, D. Jochym       |
 | J. Aarons, B. Walker, R. Gillen, D. Jones       |
 | T. Green, I. J. Bush, C. J. Armstrong,          |
 | E. J. Higgins, E. L. Brown, M. S. McFly,        |
 | J. Wilkins, B-C. Shih, P. J. P. Byrne,          |
 | R. J. Maurer, J. C. Womack, J. Dziedzic,        |
 | L. LeBlanc, T. K. Stenczel, J. Kermode,         |
 | S. Sturniolo, B. Shi, B. Durham, M. Evans,      |
 | M. J. Smith, A. Tamerus, Z. Hawkhead,           |
 | V. Ravindran, T. Hollins, S. A. Joyce,          |
 | R. T. Strong, A. M. Reilly, S. J. Donaldson     |
 |                                                 |
 | Copyright (c) 2000 - 2023                       |
 |                                                 |
 |     Distributed under license from Cambridge    |
 |     Enterprise for academic use only.           |
 |                                                 |
 | Please cite                                     |
 |                                                 |
 |     "First principles methods using CASTEP"     |
 |                                                 |
 |         Zeitschrift fuer Kristallographie       |
 |           220(5-6) pp. 567-570 (2005)           |
 |                                                 |
 | S. J. Clark, M. D. Segall, C. J. Pickard,       |
 | P. J. Hasnip, M. J. Probert, K. Refson,         |
 | M. C. Payne                                     |
 |                                                 |
 |       in all publications arising from          |
 |              your use of CASTEP                 |
 |                                                 |
 +-------------------------------------------------+
 |                                                 |
 |              http://www.castep.org              |
 |                                                 |
 +-------------------------------------------------+



 Compiled for  GNU 11.2.0 on 04-04-2024 18:39:17
 from code version 6355fd106 Castep241_branch Thu Mar 7 17:56:19 2024 +0000
 Compiler: GNU Fortran 11.2.0; Optimisation: FAST
 Comms   : MPI VERSION : CRAY MPICH version 8.1.23.14 (ANL base 3.4a2)
 MATHLIBS: default (LAPACK version 3.10.1)
 FFT Lib : fftw3 version commercial-fftw-3.3.10-sse2-avx-avx2-avx2_128
 Fundamental constants values: CODATA 2018

 Run started: Wed, 02 Apr 2025 13:20:32 +0100

 Atomic calculation performed for P: 1s2 2s2 2p6 3s2 3p3

 Converged in 47 iterations to an ae energy of -9309.074 eV

   ============================================================                
   | Pseudopotential Report - Date of generation  2-04-2025   |                
   ------------------------------------------------------------                
   | Element: P Ionic charge:  5.00 Level of theory: RSCAN    |                
   | Atomic Solver: Koelling-Harmon                           |                
   |                                                          |                
   |               Reference Electronic Structure             |                
   |         Orbital         Occupation         Energy        |                
   |            3s              2.000           -0.535        |                
   |            3p              3.000           -0.209        |                
   |                                                          |                
   |                 Pseudopotential Definition               |                
   |        Beta     l      e      Rc     scheme   norm       |                
   |          1      0   -0.535   1.807     qc      0         |                
   |          2      0    0.250   1.807     qc      0         |                
   |          3      1   -0.209   1.807     qc      0         |                
   |          4      1    0.250   1.807     qc      0         |                
   |          5      2    0.000   1.807     qc      0         |                
   |          6      2    0.250   1.807     qc      0         |                
   |         loc     3    0.000   1.807     pn      0         |                
   |                                                          |                
   | Augmentation charge Rinner = 1.263                       |                
   | Partial core correction Rc = 1.263                       |                
   ------------------------------------------------------------                
   | "3|1.8|4|4|5|30:31:32"                                   |                
   ------------------------------------------------------------                
   |      Author: Chris J. Pickard, Cambridge University      |                
   ============================================================                
 Warning: otfg_output_psp cannot write out meta-GGA pseudopotentials presently.

 Atomic calculation performed for In:
 1s2 2s2 2p6 3s2 3p6 3d10 4s2 4p6 4d10 5s2 5p1

 Converged in 84 iterations to an ae energy of -160093.328 eV

   ============================================================                
   | Pseudopotential Report - Date of generation  2-04-2025   |                
   ------------------------------------------------------------                
   | Element: In Ionic charge: 13.00 Level of theory: RSCAN   |                
   | Atomic Solver: Koelling-Harmon                           |                
   |                                                          |                
   |               Reference Electronic Structure             |                
   |         Orbital         Occupation         Energy        |                
   |            4d             10.000           -0.711        |                
   |            5s              2.000           -0.313        |                
   |            5p              1.000           -0.095        |                
   |                                                          |                
   |                 Pseudopotential Definition               |                
   |        Beta     l      e      Rc     scheme   norm       |                
   |          1      0   -0.313   2.501     qc      0         |                
   |          2      0    0.250   2.501     qc      0         |                
   |          3      1   -0.095   2.501     qc      0         |                
   |          4      1    0.250   2.501     qc      0         |                
   |          5      2   -0.711   2.207     qc      0         |                
   |          6      2    0.250   2.207     qc      0         |                
   |         loc     3    0.000   2.501     pn      0         |                
   |                                                          |                
   | Augmentation charge Rinner = 1.504                       |                
   | Partial core correction Rc = 1.504                       |                
   ------------------------------------------------------------                
   | "3|2.5|2.5|1.5|7|8|9|50:51:42U2.2U2.2"                   |                
   ------------------------------------------------------------                
   |      Author: Chris J. Pickard, Cambridge University      |                
   ============================================================                
 Warning: otfg_output_psp cannot write out meta-GGA pseudopotentials presently.

 Pseudo atomic calculation performed for P 3s2 3p3

 Converged in 23 iterations to a total energy of -208.0292 eV

 Pseudo atomic calculation performed for In 4d10 5s2 5p1

 Converged in 42 iterations to a total energy of -1747.4501 eV
 Calculation parallelised over 108 processes.
 Data is distributed by G-vector(3-way) and k-point(36-way)
 Each process may use up to 16 threads.

 ************************************ Title ************************************
 

 ***************************** General Parameters ******************************
  
 output verbosity                               : normal  (1)
 write checkpoint data to                       : P_Interstitial_Dumbbell_hash.check
 type of calculation                            : geometry optimization
 stress calculation                             : off
 density difference calculation                 : off
 electron localisation func (ELF) calculation   : off
 Hirshfeld analysis                             : on
 polarisation (Berry phase) analysis            : off
 molecular orbital projected DOS                : off
 deltaSCF calculation                           : off
 unlimited duration calculation
 timing information                             : on
 memory usage estimate                          : on
 write extra output files                       : on
 write final potential to formatted file        : off
 write final density to formatted file          : off
 write BibTeX reference list                    : on
 write OTFG pseudopotential files               : on
 write electrostatic potential file             : on
 write bands file                               : on
 checkpoint writing                             : off
  
 output         length unit                     : A
 output           mass unit                     : amu
 output           time unit                     : ps
 output         charge unit                     : e
 output           spin unit                     : hbar/2
 output         energy unit                     : eV
 output          force unit                     : eV/A
 output       velocity unit                     : A/ps
 output       pressure unit                     : GPa
 output     inv_length unit                     : 1/A
 output      frequency unit                     : cm-1
 output force constant unit                     : eV/A**2
 output         volume unit                     : A**3
 output   IR intensity unit                     : (D/A)**2/amu
 output         dipole unit                     : D
 output         efield unit                     : eV/A/e
 output        entropy unit                     : J/mol/K
 output    efield chi2 unit                     : pm/V
  
 wavefunctions paging                           : none
 random number generator seed                   :  132032823
 data distribution                              : optimal for this architecture
 optimization strategy                          : balance speed and memory

 *********************** Exchange-Correlation Parameters ***********************
  
 using functional                               : RSCAN
 relativistic treatment                         : Koelling-Harmon
 DFT+D: Semi-empirical dispersion correction    : off

 ************************* Pseudopotential Parameters **************************
  
 pseudopotential representation                 : reciprocal space
 <beta|phi> representation                      : reciprocal space
 spin-orbit coupling                            : off

 **************************** Basis Set Parameters *****************************
  
 plane wave basis set cut-off                   :   900.0000   eV
 size of standard grid                          :     2.0000
 size of   fine   gmax                          :    30.7390   1/A
 finite basis set correction                    : none

 **************************** Electronic Parameters ****************************
  
 number of  electrons                           :  581.0    
 net charge of system                           :  0.000    
 net spin   of system                           :  1.000    
 number of  up  spins                           :  291.0    
 number of down spins                           :  290.0    
 treating system as spin-polarized
 number of bands                                :        349

 ********************* Electronic Minimization Parameters **********************
  
 Method: Treating system as metallic with density mixing treatment of electrons,
         and number of  SD  steps               :          1
         and number of  CG  steps               :          4
  
 total energy / atom convergence tol.           : 0.1000E-07   eV
 eigen-energy convergence tolerance             : 0.2234E-08   eV
 max force / atom convergence tol.              : ignored
 convergence tolerance window                   :          3   cycles
 max. number of SCF cycles                      :         50
 number of fixed-spin iterations                :         10
 smearing scheme                                : Gaussian
 smearing width                                 : 0.2000       eV
 Fermi energy convergence tolerance             : 0.2721E-13   eV
 periodic dipole correction                     : NONE

 ************************** Density Mixing Parameters **************************
  
 density-mixing scheme                          : Pulay
 max. length of mixing history                  :         15
 charge density mixing amplitude                : 0.5000    
   spin density mixing amplitude                :  2.000    
 cut-off energy for mixing                      :  900.0       eV

 *********************** Population Analysis Parameters ************************
  
 Population analysis with cutoff                :  3.000       A
 Population analysis output                     : summary and pdos components

 ********************** Geometry Optimization Parameters ***********************
  
 optimization method                            : LBFGS
 max. no. of LBFGS updates                      : unbounded
 preconditioned LBFGS is activated
 preconditioner type                            : EXP
     stabilization constant                     :     0.1000
     parameter A                                :     3.0000
     nearest neighbor distance                  : automatic
     cut-off distance                           : automatic
     parameter mu                               : automatic
 variable cell method                           : fixed basis quality
 max. number of steps                           :         30
 estimated bulk modulus                         :  500.0       GPa
 estimated <frequency>                          :  1668.       cm-1
 geom line minimiser                            : on
 with line minimiser tolerance                  :     0.4000
  with spin fully able to relax for all steps
 total energy convergence tolerance             : 0.2000E-04   eV/atom
        max ionic |force| tolerance             : 0.1000E-02   eV/A
 max ionic |displacement| tolerance             : 0.1000E-02   A
   max |stress component| tolerance             : 0.1000       GPa
 convergence tolerance window                   :          2   steps
 backup results every                           :          5   steps
 write geom trajectory file                     : on

 *******************************************************************************
  

                           -------------------------------
                                      Unit Cell
                           -------------------------------
        Real Lattice(A)                      Reciprocal Lattice(1/A)
    11.8016820    -0.0000080    -0.0000080        0.532397442   0.000000361   0.000000361
    -0.0000080    11.8016820    -0.0000080        0.000000361   0.532397442   0.000000361
    -0.0000080    -0.0000080    11.8016820        0.000000361   0.000000361   0.532397442

                       Lattice parameters(A)       Cell Angles
                    a =     11.801682          alpha =   90.000078
                    b =     11.801682          beta  =   90.000078
                    c =     11.801682          gamma =   90.000078

                       Current cell volume =          1643.734705       A**3
                                   density =             2.857097   AMU/A**3
                                           =             4.744322     g/cm^3

                           -------------------------------
                                     Cell Contents
                           -------------------------------
                         Total number of ions in cell =   65
                      Total number of species in cell =    2
                        Max number of any one species =   33

            xxxxxxxxxxxxxxxxxxxxxxxxxxxxxxxxxxxxxxxxxxxxxxxxxxxxxxxxxxxx
            x  Element    Atom        Fractional coordinates of atoms  x
            x            Number           u          v          w      x
            x----------------------------------------------------------x
            x  P            1         0.118578   0.117022   0.373073   x 
            x  P            2         0.378263   0.115184   0.115184   x 
            x  P            3         0.118578   0.373073   0.117022   x 
            x  P            4         0.334918   0.437232   0.437232   x 
            x  P            5         0.124025   0.123413   0.874126   x 
            x  P            6         0.373829   0.123690   0.622463   x 
            x  P            7         0.118579   0.373080   0.629130   x 
            x  P            8         0.373979   0.373077   0.873077   x 
            x  P            9         0.118579   0.629130   0.373080   x 
            x  P           10         0.373829   0.622463   0.123690   x 
            x  P           11         0.124025   0.874126   0.123413   x 
            x  P           12         0.373979   0.873077   0.373077   x 
            x  P           13         0.124026   0.622740   0.872027   x 
            x  P           14         0.378264   0.630971   0.630971   x 
            x  P           15         0.124026   0.872027   0.622740   x 
            x  P           16         0.369359   0.873077   0.873077   x 
            x  P           17         0.628970   0.120170   0.375479   x 
            x  P           18         0.874111   0.122493   0.122493   x 
            x  P           19         0.628970   0.375479   0.120170   x 
            x  P           20         0.877375   0.373077   0.373077   x 
            x  P           21         0.623974   0.122270   0.872070   x 
            x  P           22         0.875113   0.122204   0.623950   x 
            x  P           23         0.628970   0.370674   0.625984   x 
            x  P           24         0.870780   0.373077   0.873077   x 
            x  P           25         0.628970   0.625984   0.370674   x 
            x  P           26         0.875113   0.623950   0.122204   x 
            x  P           27         0.623974   0.872070   0.122270   x 
            x  P           28         0.870780   0.873077   0.373077   x 
            x  P           29         0.623974   0.623883   0.874084   x 
            x  P           30         0.874112   0.623660   0.623660   x 
            x  P           31         0.623974   0.874084   0.623883   x 
            x  P           32         0.873828   0.873077   0.873077   x 
            x  P           33         0.334918   0.308926   0.308926   x 
            x  In           1        -0.000595  -0.002363  -0.002363   x 
            x  In           2         0.251159  -0.000409   0.246695   x 
            x  In           3         0.000485   0.246936   0.246936   x 
            x  In           4         0.251159   0.246695  -0.000409   x 
            x  In           5        -0.004029  -0.006175   0.498785   x 
            x  In           6         0.247215  -0.000788   0.746941   x 
            x  In           7        -0.004029   0.247370   0.752329   x 
            x  In           8         0.236024   0.240538   0.505614   x 
            x  In           9        -0.004029   0.498785  -0.006175   x 
            x  In          10         0.236024   0.505614   0.240538   x 
            x  In          11        -0.004029   0.752329   0.247370   x 
            x  In          12         0.247215   0.746941  -0.000788   x 
            x  In          13         0.000486   0.499217   0.499217   x 
            x  In          14         0.251159   0.499459   0.746561   x 
            x  In          15        -0.000594   0.748517   0.748517   x 
            x  In          16         0.251159   0.746561   0.499459   x 
            x  In          17         0.500059  -0.007774  -0.007774   x 
            x  In          18         0.749733  -0.003053   0.246295   x 
            x  In          19         0.516112   0.234806   0.234806   x 
            x  In          20         0.749733   0.246295  -0.003053   x 
            x  In          21         0.498342  -0.002370   0.498058   x 
            x  In          22         0.749458  -0.001529   0.747684   x 
            x  In          23         0.498342   0.248096   0.748524   x 
            x  In          24         0.753459   0.248389   0.497765   x 
            x  In          25         0.498342   0.498058  -0.002370   x 
            x  In          26         0.753459   0.497765   0.248389   x 
            x  In          27         0.498342   0.748524   0.248096   x 
            x  In          28         0.749458   0.747684  -0.001529   x 
            x  In          29         0.516114   0.511350   0.511350   x 
            x  In          30         0.749733   0.499859   0.749207   x 
            x  In          31         0.500060   0.753930   0.753930   x 
            x  In          32         0.749733   0.749207   0.499859   x 
            xxxxxxxxxxxxxxxxxxxxxxxxxxxxxxxxxxxxxxxxxxxxxxxxxxxxxxxxxxxx


                         No user defined ionic velocities

                           -------------------------------
                                   Details of Species
                           -------------------------------

                               Mass of species in AMU
                                    P   30.9737600
                                    In  114.8180000

                          Electric Quadrupole Moment (Barn)
                                    P    1.0000000 No Isotope Defined
                                    In    0.7700000 Isotope115

                          Files used for pseudopotentials:
                                    P 3|1.8|4|4|5|30:31:32
                                    In 3|2.5|2.5|1.5|7|8|9|50:51:42U2.2U2.2

                           -------------------------------
                              k-Points For BZ Sampling
                           -------------------------------
                       MP grid size for SCF calculation is  4  4  4
                            with an offset of   0.125  0.125  0.125
                       Number of kpoints used =            36

                           -------------------------------
                               Symmetry and Constraints
                           -------------------------------

                      Maximum deviation from symmetry =  0.00000         ANG

                      Number of symmetry operations   =           1
                      Number of ionic constraints     =           3
                      Point group of crystal =     1: C1, 1, 1
                      Space group of crystal =    35: Cmm2, C 2 -2

             Set iprint > 1 for details on symmetry rotations/translations

                         Centre of mass is constrained
             Set iprint > 1 for details of linear ionic constraints

                         Number of cell constraints= 6
                         Cell constraints are:  0 0 0 0 0 0

                         External pressure/stress (GPa)
                          0.00000   0.00000   0.00000
                                    0.00000   0.00000
                                              0.00000
 
+---------------- MEMORY AND SCRATCH DISK ESTIMATES PER PROCESS --------------+
|                                                     Memory          Disk    |
| Baseline code, static data and system overhead      368.0 MB         0.0 MB |
| BLAS internal memory storage                          0.0 MB         0.0 MB |
| Model and support data                             4327.0 MB         0.0 MB |
| Electronic energy minimisation requirements        1326.9 MB         0.0 MB |
| Force calculation requirements                      127.4 MB         0.0 MB |
|                                               ----------------------------- |
| Approx. total storage required per process         6021.9 MB         0.0 MB |
|                                                                             |
| Requirements will fluctuate during execution and may exceed these estimates |
+-----------------------------------------------------------------------------+
Calculating approximate eigenstates for fixed initial Hamiltonian
Cut-off for approx. calculation is   89.988 eV
Improving approx. states at cut-off of  450.000 eV
Resetting cut-off to  900.000 eV
Calculating total energy with cut-off of  900.000 eV.
------------------------------------------------------------------------ <-- SCF
SCF loop      Energy           Fermi           Energy gain       Timer   <-- SCF
                               energy          per atom          (sec)   <-- SCF
------------------------------------------------------------------------ <-- SCF
Initial  -6.32550386E+004  0.00000000E+000                       461.64  <-- SCF
      1  -6.30179687E+004  2.90236678E+000  -3.64722916E+000     924.08  <-- SCF
      2  -6.30182503E+004  2.90198898E+000   4.33244787E-003    1255.08  <-- SCF
      3  -6.30841829E+004  3.18771915E+000   1.01434758E+000    1613.23  <-- SCF
      4  -6.30957856E+004  3.27203404E+000   1.78502724E-001    2117.40  <-- SCF
      5  -6.31019660E+004  3.43200703E+000   9.50832859E-002    2470.60  <-- SCF
      6  -6.30903080E+004  3.62890114E+000  -1.79353871E-001    2819.59  <-- SCF
      7  -6.30889781E+004  3.67688733E+000  -2.04602664E-002    3179.59  <-- SCF
      8  -6.30890958E+004  3.71584966E+000   1.81097296E-003    3548.74  <-- SCF
      9  -6.30899316E+004  3.74188793E+000   1.28588236E-002    3904.70  <-- SCF
     10  -6.30902151E+004  3.71926876E+000   4.36144631E-003    4259.70  <-- SCF
     11  -6.30902200E+004  3.71229841E+000   7.41384900E-005    4621.92  <-- SCF
     12  -6.30902221E+004  3.70585231E+000   3.25150642E-005    4992.70  <-- SCF
     13  -6.30902231E+004  3.70546933E+000   1.51252598E-005    5364.25  <-- SCF
     14  -6.30902233E+004  3.70452222E+000   3.42645575E-006    5720.93  <-- SCF
     15  -6.30902233E+004  3.70375664E+000   8.55893799E-007    6063.86  <-- SCF
     16  -6.30902233E+004  3.70371177E+000   2.56059416E-007    6384.68  <-- SCF
     17  -6.30902234E+004  3.70354769E+000   7.80329435E-008    6676.16  <-- SCF
     18  -6.30902234E+004  3.70358908E+000   2.50353147E-008    6929.70  <-- SCF
     19  -6.30902234E+004  3.70363236E+000   9.21352735E-009    7178.33  <-- SCF
     20  -6.30902234E+004  3.70363275E+000   2.38519504E-009    7440.97  <-- SCF
     21  -6.30902234E+004  3.70363720E+000   6.75446723E-010    7698.68  <-- SCF
------------------------------------------------------------------------ <-- SCF
 
Integrated Spin Density     =    0.992901     hbar/2
Integrated |Spin Density|   =     1.21830     hbar/2
 
Final energy, E             =  -63090.21887007     eV
Final free energy (E-TS)    =  -63090.22335354     eV
(energies not corrected for finite basis set)
 
NB est. 0K energy (E-0.5TS)      =  -63090.22111181     eV
 
 
+---------------- MEMORY AND SCRATCH DISK ESTIMATES PER PROCESS --------------+
|                                                     Memory          Disk    |
| Model and support data                             2768.5 MB         0.0 MB |
| Electronic energy minimisation requirements        1326.9 MB         0.0 MB |
| Geometry minimisation requirements                 1707.4 MB         0.0 MB |
|                                               ----------------------------- |
| Approx. total storage required per process         5802.8 MB         0.0 MB |
|                                                                             |
| Requirements will fluctuate during execution and may exceed these estimates |
+-----------------------------------------------------------------------------+
 

 ************************************** Forces **************************************
 *                                                                                  *
 *                           Cartesian components (eV/A)                            *
 * -------------------------------------------------------------------------------- *
 *                         x                    y                    z              *
 *                                                                                  *
 * P               1      0.01845             -0.01044              0.00734         *
 * P               2     -0.01382              0.01644              0.01644         *
 * P               3      0.01845              0.00734             -0.01044         *
 * P               4      0.00390             -0.02982             -0.02982         *
 * P               5     -0.00114              0.01338             -0.01850         *
 * P               6      0.03299              0.00381             -0.00873         *
 * P               7      0.01971             -0.01410              0.01476         *
 * P               8     -0.02928             -0.00294             -0.00290         *
 * P               9      0.01971              0.01476             -0.01410         *
 * P              10      0.03299             -0.00873              0.00381         *
 * P              11     -0.00114             -0.01850              0.01338         *
 * P              12     -0.02928             -0.00290             -0.00294         *
 * P              13     -0.00197             -0.01927              0.01496         *
 * P              14     -0.01292             -0.02450             -0.02450         *
 * P              15     -0.00197              0.01496             -0.01927         *
 * P              16      0.04651             -0.00384             -0.00384         *
 * P              17      0.00392              0.01700             -0.01881         *
 * P              18      0.01677             -0.01368             -0.01368         *
 * P              19      0.00392             -0.01881              0.01700         *
 * P              20      0.00509             -0.00348             -0.00348         *
 * P              21     -0.01935             -0.01961             -0.01289         *
 * P              22      0.01271             -0.00246             -0.00114         *
 * P              23      0.00396              0.02471             -0.00721         *
 * P              24      0.02619             -0.00430             -0.00444         *
 * P              25      0.00396             -0.00721              0.02471         *
 * P              26      0.01271             -0.00114             -0.00246         *
 * P              27     -0.01935             -0.01289             -0.01961         *
 * P              28      0.02619             -0.00444             -0.00430         *
 * P              29     -0.01820              0.01486              0.00915         *
 * P              30      0.01739              0.00853              0.00853         *
 * P              31     -0.01820              0.00915              0.01486         *
 * P              32     -0.00830             -0.00297             -0.00297         *
 * P              33      0.00316              0.03151              0.03151         *
 * In              1     -0.00792             -0.00905             -0.00905         *
 * In              2      0.00616             -0.01688              0.02273         *
 * In              3     -0.04930              0.02303              0.02303         *
 * In              4      0.00616              0.02273             -0.01688         *
 * In              5     -0.01997              0.01553             -0.01704         *
 * In              6     -0.02436             -0.03961              0.04270         *
 * In              7     -0.01992              0.02021             -0.01219         *
 * In              8     -0.06277              0.00236              0.00092         *
 * In              9     -0.01997             -0.01704              0.01553         *
 * In             10     -0.06277              0.00092              0.00236         *
 * In             11     -0.01992             -0.01219              0.02021         *
 * In             12     -0.02436              0.04270             -0.03961         *
 * In             13     -0.04930             -0.01997             -0.01997         *
 * In             14      0.00612             -0.01961              0.01983         *
 * In             15     -0.00790              0.01216              0.01216         *
 * In             16      0.00612              0.01983             -0.01961         *
 * In             17     -0.00395              0.02478              0.02478         *
 * In             18     -0.01140             -0.00874              0.05531         *
 * In             19      0.02589              0.00018              0.00018         *
 * In             20     -0.01140              0.05531             -0.00874         *
 * In             21      0.04359              0.00561             -0.04965         *
 * In             22      0.02470              0.00363             -0.00056         *
 * In             23      0.04364              0.05262             -0.00266         *
 * In             24     -0.01589             -0.02865              0.03164         *
 * In             25      0.04359             -0.04966              0.00561         *
 * In             26     -0.01589              0.03164             -0.02865         *
 * In             27      0.04364             -0.00266              0.05262         *
 * In             28      0.02470             -0.00056              0.00363         *
 * In             29      0.02591              0.00303              0.00303         *
 * In             30     -0.01151             -0.05222              0.01176         *
 * In             31     -0.00400             -0.02163             -0.02163         *
 * In             32     -0.01151              0.01176             -0.05222         *
 *                                                                                  *
 ************************************************************************************
 EXP precond LBFGS => estimated nearest neighbor distance :  2.553       A
 EXP precond LBFGS => estimated cutoff distance :  5.107       A

 ************************************** Forces **************************************
 *                                                                                  *
 *                           Cartesian components (eV/A)                            *
 * -------------------------------------------------------------------------------- *
 *                         x                    y                    z              *
 *                                                                                  *
 * P               1      0.01845             -0.01044              0.00734         *
 * P               2     -0.01382              0.01644              0.01644         *
 * P               3      0.01845              0.00734             -0.01044         *
 * P               4      0.00390             -0.02982             -0.02982         *
 * P               5     -0.00114              0.01338             -0.01850         *
 * P               6      0.03299              0.00381             -0.00873         *
 * P               7      0.01971             -0.01410              0.01476         *
 * P               8     -0.02928             -0.00294             -0.00290         *
 * P               9      0.01971              0.01476             -0.01410         *
 * P              10      0.03299             -0.00873              0.00381         *
 * P              11     -0.00114             -0.01850              0.01338         *
 * P              12     -0.02928             -0.00290             -0.00294         *
 * P              13     -0.00197             -0.01927              0.01496         *
 * P              14     -0.01292             -0.02450             -0.02450         *
 * P              15     -0.00197              0.01496             -0.01927         *
 * P              16      0.04651             -0.00384             -0.00384         *
 * P              17      0.00392              0.01700             -0.01881         *
 * P              18      0.01677             -0.01368             -0.01368         *
 * P              19      0.00392             -0.01881              0.01700         *
 * P              20      0.00509             -0.00348             -0.00348         *
 * P              21     -0.01935             -0.01961             -0.01289         *
 * P              22      0.01271             -0.00246             -0.00114         *
 * P              23      0.00396              0.02471             -0.00721         *
 * P              24      0.02619             -0.00430             -0.00444         *
 * P              25      0.00396             -0.00721              0.02471         *
 * P              26      0.01271             -0.00114             -0.00246         *
 * P              27     -0.01935             -0.01289             -0.01961         *
 * P              28      0.02619             -0.00444             -0.00430         *
 * P              29     -0.01820              0.01486              0.00915         *
 * P              30      0.01739              0.00853              0.00853         *
 * P              31     -0.01820              0.00915              0.01486         *
 * P              32     -0.00830             -0.00297             -0.00297         *
 * P              33      0.00316              0.03151              0.03151         *
 * In              1     -0.00792             -0.00905             -0.00905         *
 * In              2      0.00616             -0.01688              0.02273         *
 * In              3     -0.04930              0.02303              0.02303         *
 * In              4      0.00616              0.02273             -0.01688         *
 * In              5     -0.01997              0.01553             -0.01704         *
 * In              6     -0.02436             -0.03961              0.04270         *
 * In              7     -0.01992              0.02021             -0.01219         *
 * In              8     -0.06277              0.00236              0.00092         *
 * In              9     -0.01997             -0.01704              0.01553         *
 * In             10     -0.06277              0.00092              0.00236         *
 * In             11     -0.01992             -0.01219              0.02021         *
 * In             12     -0.02436              0.04270             -0.03961         *
 * In             13     -0.04930             -0.01997             -0.01997         *
 * In             14      0.00612             -0.01961              0.01983         *
 * In             15     -0.00790              0.01216              0.01216         *
 * In             16      0.00612              0.01983             -0.01961         *
 * In             17     -0.00395              0.02478              0.02478         *
 * In             18     -0.01140             -0.00874              0.05531         *
 * In             19      0.02589              0.00018              0.00018         *
 * In             20     -0.01140              0.05531             -0.00874         *
 * In             21      0.04359              0.00561             -0.04965         *
 * In             22      0.02470              0.00363             -0.00056         *
 * In             23      0.04364              0.05262             -0.00266         *
 * In             24     -0.01589             -0.02865              0.03164         *
 * In             25      0.04359             -0.04966              0.00561         *
 * In             26     -0.01589              0.03164             -0.02865         *
 * In             27      0.04364             -0.00266              0.05262         *
 * In             28      0.02470             -0.00056              0.00363         *
 * In             29      0.02591              0.00303              0.00303         *
 * In             30     -0.01151             -0.05222              0.01176         *
 * In             31     -0.00400             -0.02163             -0.02163         *
 * In             32     -0.01151              0.01176             -0.05222         *
 *                                                                                  *
 ************************************************************************************
 doing test perturbation to get energy scale for EXP preconditioner

                           -------------------------------
                                     Cell Contents
                           -------------------------------

            xxxxxxxxxxxxxxxxxxxxxxxxxxxxxxxxxxxxxxxxxxxxxxxxxxxxxxxxxxxxxxxxx
            x  Element         Atom        Fractional coordinates of atoms  x
            x                 Number           u          v          w      x
            x---------------------------------------------------------------x
            x  P                 1         0.118834   0.117308   0.373959   x
            x  P                 2         0.379063   0.115465   0.115465   x
            x  P                 3         0.118834   0.373959   0.117308   x
            x  P                 4         0.335630   0.438259   0.438259   x
            x  P                 5         0.124293   0.123714   0.875933   x
            x  P                 6         0.374620   0.123992   0.623863   x
            x  P                 7         0.118835   0.373966   0.630543   x
            x  P                 8         0.374770   0.373963   0.874882   x
            x  P                 9         0.118835   0.630543   0.373966   x
            x  P                10         0.374620   0.623863   0.123992   x
            x  P                11         0.124293   0.875933   0.123714   x
            x  P                12         0.374770   0.874882   0.373963   x
            x  P                13         0.124294   0.624141   0.873831   x
            x  P                14         0.379064   0.632387   0.632387   x
            x  P                15         0.124294   0.873831   0.624141   x
            x  P                16         0.370141   0.874883   0.874883   x
            x  P                17         0.630244   0.120463   0.376370   x
            x  P                18         0.875772   0.122792   0.122792   x
            x  P                19         0.630244   0.376370   0.120463   x
            x  P                20         0.879041   0.373963   0.373963   x
            x  P                21         0.625239   0.122569   0.873874   x
            x  P                22         0.876775   0.122502   0.625353   x
            x  P                23         0.630244   0.371555   0.627391   x
            x  P                24         0.872436   0.373963   0.874882   x
            x  P                25         0.630244   0.627391   0.371555   x
            x  P                26         0.876775   0.625353   0.122502   x
            x  P                27         0.625239   0.873874   0.122569   x
            x  P                28         0.872436   0.874882   0.373963   x
            x  P                29         0.625240   0.625286   0.875891   x
            x  P                30         0.875772   0.625062   0.625062   x
            x  P                31         0.625240   0.875891   0.625286   x
            x  P                32         0.875489   0.874882   0.874882   x
            x  P                33         0.335630   0.309667   0.309667   x
            x  In                1         1.001227   0.999592   0.999592   x
            x  In                2         0.251697   1.001548   0.247291   x
            x  In                3         0.000486   0.247533   0.247533   x
            x  In                4         0.251697   0.247291   1.001548   x
            x  In                5         0.997788   0.995776   0.499941   x
            x  In                6         0.247745   1.001169   0.748559   x
            x  In                7         0.997788   0.247967   0.753955   x
            x  In                8         0.236530   0.241119   0.506785   x
            x  In                9         0.997788   0.499941   0.995776   x
            x  In               10         0.236530   0.506785   0.241119   x
            x  In               11         0.997788   0.753955   0.247967   x
            x  In               12         0.247745   0.748559   1.001169   x
            x  In               13         0.000487   0.500374   0.500374   x
            x  In               14         0.251698   0.500617   0.748178   x
            x  In               15         1.001227   0.750137   0.750137   x
            x  In               16         0.251698   0.748178   0.500617   x
            x  In               17         0.501097   0.994175   0.994175   x
            x  In               18         0.751209   0.998901   0.246890   x
            x  In               19         0.517181   0.235374   0.235374   x
            x  In               20         0.751209   0.246890   0.998901   x
            x  In               21         0.499377   0.999585   0.499213   x
            x  In               22         0.750933   1.000426   0.749302   x
            x  In               23         0.499377   0.248695   0.750144   x
            x  In               24         0.754941   0.248989   0.498919   x
            x  In               25         0.499377   0.499213   0.999585   x
            x  In               26         0.754941   0.498919   0.248989   x
            x  In               27         0.499377   0.750144   0.248695   x
            x  In               28         0.750933   0.749302   1.000426   x
            x  In               29         0.517183   0.512532   0.512532   x
            x  In               30         0.751209   0.501018   0.750829   x
            x  In               31         0.501098   0.755559   0.755559   x
            x  In               32         0.751209   0.750829   0.501018   x
            xxxxxxxxxxxxxxxxxxxxxxxxxxxxxxxxxxxxxxxxxxxxxxxxxxxxxxxxxxxxxxxxx


------------------------------------------------------------------------ <-- SCF
SCF loop      Energy           Fermi           Energy gain       Timer   <-- SCF
                               energy          per atom          (sec)   <-- SCF
------------------------------------------------------------------------ <-- SCF
Initial  -6.30860158E+004  0.00000000E+000                      8229.85  <-- SCF
      1  -6.30897271E+004  3.70503725E+000   5.70960764E-002    8643.93  <-- SCF
      2  -6.30901788E+004  3.70498261E+000   6.95008291E-003    9052.66  <-- SCF
      3  -6.30901853E+004  3.70331905E+000   9.92732989E-005    9408.17  <-- SCF
      4  -6.30901884E+004  3.70100612E+000   4.84865034E-005    9771.74  <-- SCF
      5  -6.30901890E+004  3.70041946E+000   8.63695228E-006   10203.87  <-- SCF
      6  -6.30901891E+004  3.69994071E+000   2.02900179E-006   10574.80  <-- SCF
      7  -6.30901891E+004  3.69948232E+000   4.47361995E-007   10953.45  <-- SCF
      8  -6.30901891E+004  3.69936346E+000   7.48445608E-008   11248.36  <-- SCF
      9  -6.30901891E+004  3.69915799E+000   2.57575934E-010   11550.55  <-- SCF
     10  -6.30901891E+004  3.69915800E+000  -2.67665753E-010   11816.43  <-- SCF
     11  -6.30901891E+004  3.69914396E+000   9.37591631E-010   12066.63  <-- SCF
------------------------------------------------------------------------ <-- SCF
 
Integrated Spin Density     =    0.992968     hbar/2
Integrated |Spin Density|   =     1.21900     hbar/2
 
Final energy, E             =  -63090.18469766     eV
Final free energy (E-TS)    =  -63090.18914884     eV
(energies not corrected for finite basis set)
 
NB est. 0K energy (E-0.5TS)      =  -63090.18692325     eV
 

 ************************************** Forces **************************************
 *                                                                                  *
 *                           Cartesian components (eV/A)                            *
 * -------------------------------------------------------------------------------- *
 *                         x                    y                    z              *
 *                                                                                  *
 * P               1      0.09718              0.15270             -0.04905         *
 * P               2     -0.05202              0.15498              0.15498         *
 * P               3      0.09718             -0.04905              0.15270         *
 * P               4      0.01140             -0.07128             -0.07128         *
 * P               5      0.11591              0.13606             -0.03454         *
 * P               6      0.02649              0.12284             -0.01320         *
 * P               7      0.09047              0.01487             -0.03892         *
 * P               8     -0.02846             -0.00994             -0.01725         *
 * P               9      0.09047             -0.03892              0.01487         *
 * P              10      0.02649             -0.01320              0.12284         *
 * P              11      0.11591             -0.03454              0.13606         *
 * P              12     -0.02846             -0.01725             -0.00994         *
 * P              13      0.11236             -0.02263             -0.00556         *
 * P              14     -0.01901             -0.03048             -0.03048         *
 * P              15      0.11236             -0.00556             -0.02263         *
 * P              16      0.04295             -0.02176             -0.02176         *
 * P              17     -0.00343              0.13683             -0.02757         *
 * P              18     -0.04252              0.07701              0.07701         *
 * P              19     -0.00343             -0.02757              0.13683         *
 * P              20     -0.10272             -0.01125             -0.01125         *
 * P              21     -0.01914              0.10526             -0.03036         *
 * P              22     -0.00018              0.12249             -0.00713         *
 * P              23     -0.00472              0.02010             -0.01685         *
 * P              24      0.00405             -0.01183             -0.01973         *
 * P              25     -0.00472             -0.01685              0.02010         *
 * P              26     -0.00018             -0.00713              0.12249         *
 * P              27     -0.01914             -0.03036              0.10526         *
 * P              28      0.00405             -0.01973             -0.01183         *
 * P              29     -0.01979              0.01058             -0.00537         *
 * P              30     -0.04215              0.03554              0.03554         *
 * P              31     -0.01979             -0.00537              0.01058         *
 * P              32     -0.02297             -0.01811             -0.01811         *
 * P              33      0.03229              0.06661              0.06661         *
 * In              1     -0.10788             -0.13415             -0.13415         *
 * In              2      0.02271             -0.11638              0.05040         *
 * In              3      0.03590              0.04195              0.04195         *
 * In              4      0.02271              0.05040             -0.11638         *
 * In              5     -0.13345             -0.11134             -0.00821         *
 * In              6     -0.00337             -0.15810              0.04516         *
 * In              7     -0.12481              0.04380             -0.00878         *
 * In              8     -0.05307              0.03261             -0.00625         *
 * In              9     -0.13345             -0.00821             -0.11134         *
 * In             10     -0.05307             -0.00625              0.03261         *
 * In             11     -0.12481             -0.00878              0.04380         *
 * In             12     -0.00337              0.04516             -0.15810         *
 * In             13      0.03427             -0.01394             -0.01394         *
 * In             14      0.01890             -0.01786              0.02057         *
 * In             15     -0.10298              0.02007              0.02007         *
 * In             16      0.01890              0.02057             -0.01786         *
 * In             17      0.01522             -0.11715             -0.11715         *
 * In             18     -0.01442             -0.13748              0.08262         *
 * In             19      0.00075              0.02582              0.02582         *
 * In             20     -0.01442              0.08262             -0.13748         *
 * In             21      0.04425             -0.11147             -0.04928         *
 * In             22      0.02547             -0.11516              0.00136         *
 * In             23      0.04500              0.07281              0.00318         *
 * In             24     -0.02436             -0.01833              0.04464         *
 * In             25      0.04425             -0.04928             -0.11147         *
 * In             26     -0.02436              0.04464             -0.01833         *
 * In             27      0.04500              0.00318              0.07281         *
 * In             28      0.02547              0.00136             -0.11516         *
 * In             29      0.00983              0.00137              0.00137         *
 * In             30     -0.01443             -0.05661              0.02250         *
 * In             31     -0.00863             -0.02141             -0.02141         *
 * In             32     -0.01443              0.02250             -0.05661         *
 *                                                                                  *
 ************************************************************************************
 EXP precond LBFGS => estimated parameter mu :  1.450       eV/A**2
 LBFGS: finished iteration     0 with enthalpy= -6.30902234E+004 eV
  
 +-----------+-----------------+-----------------+------------+-----+ <-- LBFGS
 | Parameter |      value      |    tolerance    |    units   | OK? | <-- LBFGS
 +-----------+-----------------+-----------------+------------+-----+ <-- LBFGS
 |  dE/ion   |   0.000000E+000 |   2.000000E-005 |         eV | No  | <-- LBFGS
 |  |F|max   |   2.252691E-001 |   1.000000E-003 |       eV/A | No  | <-- LBFGS
 |  |dR|max  |   3.233591E-015 |   1.000000E-003 |          A | No  | <-- LBFGS
 +-----------+-----------------+-----------------+------------+-----+ <-- LBFGS
  

================================================================================
 Starting LBFGS iteration          1 ...
================================================================================
  
 +------------+-------------+-------------+-----------------+ <-- min LBFGS
 |    Step    |   lambda    |   F.delta'  |    enthalpy     | <-- min LBFGS
 +------------+-------------+-------------+-----------------+ <-- min LBFGS
 |  previous  |    0.000000 |    0.126167 |   -63090.223354 | <-- min LBFGS
 +------------+-------------+-------------+-----------------+ <-- min LBFGS
  

--------------------------------------------------------------------------------
 LBFGS: starting iteration         1 with trial guess (lambda=  1.000000)
--------------------------------------------------------------------------------

                           -------------------------------
                                     Cell Contents
                           -------------------------------

            xxxxxxxxxxxxxxxxxxxxxxxxxxxxxxxxxxxxxxxxxxxxxxxxxxxxxxxxxxxxxxxxx
            x  Element         Atom        Fractional coordinates of atoms  x
            x                 Number           u          v          w      x
            x---------------------------------------------------------------x
            x  P                 1         0.118547   0.116984   0.373189   x
            x  P                 2         0.378196   0.115418   0.115418   x
            x  P                 3         0.118547   0.373189   0.116984   x
            x  P                 4         0.334874   0.437027   0.437027   x
            x  P                 5         0.123952   0.123557   0.873961   x
            x  P                 6         0.374154   0.123787   0.622336   x
            x  P                 7         0.118561   0.372908   0.629214   x
            x  P                 8         0.373859   0.373050   0.873061   x
            x  P                 9         0.118561   0.629214   0.372908   x
            x  P                10         0.374154   0.622336   0.123787   x
            x  P                11         0.123952   0.873961   0.123557   x
            x  P                12         0.373859   0.873061   0.373050   x
            x  P                13         0.123946   0.622528   0.872157   x
            x  P                14         0.378208   0.630678   0.630678   x
            x  P                15         0.123946   0.872157   0.622528   x
            x  P                16         0.369747   0.873038   0.873038   x
            x  P                17         0.629094   0.120341   0.375372   x
            x  P                18         0.874151   0.122462   0.122462   x
            x  P                19         0.629094   0.375372   0.120341   x
            x  P                20         0.877239   0.373062   0.373062   x
            x  P                21         0.623930   0.122285   0.871969   x
            x  P                22         0.875173   0.122225   0.623907   x
            x  P                23         0.629096   0.370856   0.625926   x
            x  P                24         0.870936   0.373039   0.873049   x
            x  P                25         0.629096   0.625926   0.370856   x
            x  P                26         0.875173   0.623907   0.122225   x
            x  P                27         0.623930   0.871969   0.122285   x
            x  P                28         0.870936   0.873049   0.373039   x
            x  P                29         0.623942   0.623829   0.874160   x
            x  P                30         0.874160   0.623654   0.623654   x
            x  P                31         0.623942   0.874160   0.623829   x
            x  P                32         0.873772   0.873046   0.873046   x
            x  P                33         0.334867   0.309172   0.309172   x
            x  In                1        -0.000705  -0.002434  -0.002434   x
            x  In                2         0.251169  -0.000514   0.246958   x
            x  In                3        -0.000010   0.247153   0.247153   x
            x  In                4         0.251169   0.246958  -0.000514   x
            x  In                5        -0.004222  -0.006027   0.498623   x
            x  In                6         0.247072  -0.001055   0.747202   x
            x  In                7        -0.004219   0.247526   0.752202   x
            x  In                8         0.235516   0.240559   0.505627   x
            x  In                9        -0.004222   0.498623  -0.006027   x
            x  In               10         0.235516   0.505627   0.240559   x
            x  In               11        -0.004219   0.752202   0.247526   x
            x  In               12         0.247072   0.747202  -0.001055   x
            x  In               13        -0.000004   0.499021   0.499021   x
            x  In               14         0.251173   0.499189   0.746684   x
            x  In               15        -0.000704   0.748582   0.748582   x
            x  In               16         0.251173   0.746684   0.499189   x
            x  In               17         0.500094  -0.007529  -0.007529   x
            x  In               18         0.749680  -0.003110   0.246762   x
            x  In               19         0.516358   0.234898   0.234898   x
            x  In               20         0.749680   0.246762  -0.003110   x
            x  In               21         0.498787  -0.002270   0.497590   x
            x  In               22         0.749680  -0.001455   0.747614   x
            x  In               23         0.498786   0.248585   0.748459   x
            x  In               24         0.753351   0.248204   0.498003   x
            x  In               25         0.498787   0.497590  -0.002270   x
            x  In               26         0.753351   0.498003   0.248204   x
            x  In               27         0.498786   0.748459   0.248585   x
            x  In               28         0.749680   0.747614  -0.001455   x
            x  In               29         0.516364   0.511318   0.511318   x
            x  In               30         0.749683   0.499410   0.749295   x
            x  In               31         0.500099   0.753682   0.753682   x
            x  In               32         0.749683   0.749295   0.499410   x
            xxxxxxxxxxxxxxxxxxxxxxxxxxxxxxxxxxxxxxxxxxxxxxxxxxxxxxxxxxxxxxxxx


------------------------------------------------------------------------ <-- SCF
SCF loop      Energy           Fermi           Energy gain       Timer   <-- SCF
                               energy          per atom          (sec)   <-- SCF
------------------------------------------------------------------------ <-- SCF
Initial  -6.30860255E+004  0.00000000E+000                     12357.24  <-- SCF
      1  -6.30897443E+004  3.70645461E+000   5.72121679E-002   12776.74  <-- SCF
      2  -6.30902180E+004  3.70639864E+000   7.28761825E-003   13186.68  <-- SCF
      3  -6.30902242E+004  3.70989446E+000   9.47792845E-005   13546.15  <-- SCF
      4  -6.30902271E+004  3.71311005E+000   4.54767368E-005   13918.79  <-- SCF
      5  -6.30902277E+004  3.71389284E+000   8.67303138E-006   14315.39  <-- SCF
      6  -6.30902278E+004  3.71435595E+000   2.28403528E-006   14673.49  <-- SCF
      7  -6.30902279E+004  3.71477830E+000   3.61210555E-007   15049.42  <-- SCF
      8  -6.30902279E+004  3.71495097E+000   4.91179983E-008   15355.34  <-- SCF
      9  -6.30902279E+004  3.71517928E+000  -1.43237349E-009   15650.01  <-- SCF
     10  -6.30902279E+004  3.71549728E+000   7.39602739E-010   15906.67  <-- SCF
     11  -6.30902279E+004  3.71553286E+000   1.04972188E-009   16152.26  <-- SCF
------------------------------------------------------------------------ <-- SCF
 
Integrated Spin Density     =    0.993171     hbar/2
Integrated |Spin Density|   =     1.21797     hbar/2
 
Final energy, E             =  -63090.22362222     eV
Final free energy (E-TS)    =  -63090.22786628     eV
(energies not corrected for finite basis set)
 
NB est. 0K energy (E-0.5TS)      =  -63090.22574425     eV
 

 ************************************** Forces **************************************
 *                                                                                  *
 *                           Cartesian components (eV/A)                            *
 * -------------------------------------------------------------------------------- *
 *                         x                    y                    z              *
 *                                                                                  *
 * P               1     -0.00322              0.00529             -0.02504         *
 * P               2     -0.01535              0.00888              0.00888         *
 * P               3     -0.00322             -0.02504              0.00529         *
 * P               4      0.03736              0.04534              0.04534         *
 * P               5     -0.00680              0.00556              0.00164         *
 * P               6      0.00530              0.00017              0.00085         *
 * P               7     -0.00417              0.02595             -0.00514         *
 * P               8      0.01126              0.00036              0.00125         *
 * P               9     -0.00417             -0.00514              0.02595         *
 * P              10      0.00530              0.00085              0.00017         *
 * P              11     -0.00680              0.00164              0.00556         *
 * P              12      0.01126              0.00125              0.00036         *
 * P              13     -0.00759             -0.00501             -0.00168         *
 * P              14     -0.01785             -0.00637             -0.00637         *
 * P              15     -0.00759             -0.00168             -0.00501         *
 * P              16      0.03017              0.00013              0.00013         *
 * P              17      0.00903              0.01773             -0.00864         *
 * P              18     -0.01431             -0.00848             -0.00848         *
 * P              19      0.00903             -0.00864              0.01773         *
 * P              20     -0.04006             -0.00022             -0.00022         *
 * P              21      0.00418             -0.00304              0.00115         *
 * P              22      0.00688             -0.00173              0.00116         *
 * P              23      0.00789              0.00777             -0.01831         *
 * P              24      0.01124             -0.00013              0.00001         *
 * P              25      0.00789             -0.01831              0.00777         *
 * P              26      0.00688              0.00116             -0.00173         *
 * P              27      0.00418              0.00115             -0.00304         *
 * P              28      0.01124              0.00001             -0.00013         *
 * P              29      0.00381              0.00351              0.00037         *
 * P              30     -0.01554              0.00793              0.00793         *
 * P              31      0.00381              0.00037              0.00351         *
 * P              32     -0.00778              0.00002              0.00002         *
 * P              33      0.03514             -0.04550             -0.04550         *
 * In              1      0.01583              0.00135              0.00135         *
 * In              2     -0.00430             -0.00540             -0.00687         *
 * In              3     -0.00049             -0.00629             -0.00629         *
 * In              4     -0.00430             -0.00687             -0.00540         *
 * In              5      0.00240              0.00635             -0.00225         *
 * In              6      0.01622             -0.00558              0.00440         *
 * In              7      0.00319             -0.00184             -0.00604         *
 * In              8     -0.00714             -0.02715              0.02597         *
 * In              9      0.00241             -0.00225              0.00635         *
 * In             10     -0.00714              0.02597             -0.02715         *
 * In             11      0.00319             -0.00604             -0.00184         *
 * In             12      0.01622              0.00440             -0.00558         *
 * In             13      0.00347              0.00429              0.00429         *
 * In             14     -0.00228              0.00783              0.00541         *
 * In             15      0.01779             -0.00230             -0.00230         *
 * In             16     -0.00228              0.00541              0.00783         *
 * In             17     -0.01460              0.01943              0.01943         *
 * In             18      0.00106             -0.00715             -0.01000         *
 * In             19     -0.03814              0.00383              0.00383         *
 * In             20      0.00106             -0.01000             -0.00715         *
 * In             21     -0.00645              0.00553             -0.00957         *
 * In             22     -0.00266             -0.00405              0.00400         *
 * In             23     -0.00641              0.00668             -0.00765         *
 * In             24     -0.00266             -0.01112              0.01723         *
 * In             25     -0.00645             -0.00957              0.00553         *
 * In             26     -0.00266              0.01723             -0.01112         *
 * In             27     -0.00641             -0.00765              0.00668         *
 * In             28     -0.00266              0.00400             -0.00405         *
 * In             29     -0.03276             -0.00562             -0.00562         *
 * In             30      0.00629              0.01346              0.01009         *
 * In             31     -0.01300             -0.02275             -0.02275         *
 * In             32      0.00629              0.01009              0.01346         *
 *                                                                                  *
 ************************************************************************************
  
 +------------+-------------+-------------+-----------------+ <-- min LBFGS
 |    Step    |   lambda    |   F.delta'  |    enthalpy     | <-- min LBFGS
 +------------+-------------+-------------+-----------------+ <-- min LBFGS
 |  previous  |    0.000000 |    0.126167 |   -63090.223354 | <-- min LBFGS
 | trial step |    1.000000 |   -0.002315 |   -63090.227866 | <-- min LBFGS
 +------------+-------------+-------------+-----------------+ <-- min LBFGS
  
 LBFGS: finished iteration     1 with enthalpy= -6.30902279E+004 eV
  
 +-----------+-----------------+-----------------+------------+-----+ <-- LBFGS
 | Parameter |      value      |    tolerance    |    units   | OK? | <-- LBFGS
 +-----------+-----------------+-----------------+------------+-----+ <-- LBFGS
 |  dE/ion   |   6.942670E-005 |   2.000000E-005 |         eV | No  | <-- LBFGS
 |  |F|max   |   7.421356E-002 |   1.000000E-003 |       eV/A | No  | <-- LBFGS
 |  |dR|max  |   7.837908E-003 |   1.000000E-003 |          A | No  | <-- LBFGS
 +-----------+-----------------+-----------------+------------+-----+ <-- LBFGS
  

================================================================================
 Starting LBFGS iteration          2 ...
================================================================================
  
 +------------+-------------+-------------+-----------------+ <-- min LBFGS
 |    Step    |   lambda    |   F.delta'  |    enthalpy     | <-- min LBFGS
 +------------+-------------+-------------+-----------------+ <-- min LBFGS
 |  previous  |    0.000000 |    0.064791 |   -63090.227866 | <-- min LBFGS
 +------------+-------------+-------------+-----------------+ <-- min LBFGS
  

--------------------------------------------------------------------------------
 LBFGS: starting iteration         2 with trial guess (lambda=  1.000000)
--------------------------------------------------------------------------------

                           -------------------------------
                                     Cell Contents
                           -------------------------------

            xxxxxxxxxxxxxxxxxxxxxxxxxxxxxxxxxxxxxxxxxxxxxxxxxxxxxxxxxxxxxxxxx
            x  Element         Atom        Fractional coordinates of atoms  x
            x                 Number           u          v          w      x
            x---------------------------------------------------------------x
            x  P                 1         0.118507   0.116960   0.372993   x
            x  P                 2         0.378000   0.115545   0.115545   x
            x  P                 3         0.118507   0.372993   0.116960   x
            x  P                 4         0.335157   0.437259   0.437259   x
            x  P                 5         0.123922   0.123627   0.873910   x
            x  P                 6         0.374335   0.123813   0.622299   x
            x  P                 7         0.118529   0.373085   0.629251   x
            x  P                 8         0.373889   0.373041   0.873065   x
            x  P                 9         0.118529   0.629251   0.373085   x
            x  P                10         0.374335   0.622299   0.123813   x
            x  P                11         0.123922   0.873910   0.123627   x
            x  P                12         0.373889   0.873065   0.373041   x
            x  P                13         0.123914   0.622432   0.872193   x
            x  P                14         0.378016   0.630548   0.630548   x
            x  P                15         0.123914   0.872193   0.622432   x
            x  P                16         0.370149   0.873020   0.873020   x
            x  P                17         0.629139   0.120531   0.375240   x
            x  P                18         0.874035   0.122330   0.122330   x
            x  P                19         0.629139   0.375240   0.120531   x
            x  P                20         0.876798   0.373061   0.373061   x
            x  P                21         0.623933   0.122271   0.871953   x
            x  P                22         0.875249   0.122221   0.623902   x
            x  P                23         0.629150   0.371012   0.625780   x
            x  P                24         0.871095   0.373025   0.873046   x
            x  P                25         0.629150   0.625780   0.371012   x
            x  P                26         0.875249   0.623902   0.122221   x
            x  P                27         0.623933   0.871953   0.122271   x
            x  P                28         0.871095   0.873046   0.373025   x
            x  P                29         0.623957   0.623831   0.874181   x
            x  P                30         0.874064   0.623775   0.623775   x
            x  P                31         0.623957   0.874181   0.623831   x
            x  P                32         0.873729   0.873035   0.873035   x
            x  P                33         0.335125   0.308946   0.308946   x
            x  In                1        -0.000616  -0.002473  -0.002473   x
            x  In                2         0.251122  -0.000601   0.246954   x
            x  In                3        -0.000252   0.247109   0.247109   x
            x  In                4         0.251122   0.246954  -0.000601   x
            x  In                5        -0.004244  -0.005935   0.498522   x
            x  In                6         0.247218  -0.001188   0.747316   x
            x  In                7        -0.004233   0.247590   0.752122   x
            x  In                8         0.235355   0.240382   0.505801   x
            x  In                9        -0.004244   0.498522  -0.005935   x
            x  In               10         0.235355   0.505801   0.240382   x
            x  In               11        -0.004233   0.752122   0.247590   x
            x  In               12         0.247218   0.747316  -0.001188   x
            x  In               13        -0.000204   0.499058   0.499058   x
            x  In               14         0.251148   0.499196   0.746779   x
            x  In               15        -0.000592   0.748609   0.748609   x
            x  In               16         0.251148   0.746779   0.499196   x
            x  In               17         0.499999  -0.007291  -0.007291   x
            x  In               18         0.749658  -0.003185   0.246795   x
            x  In               19         0.516129   0.234927   0.234927   x
            x  In               20         0.749658   0.246795  -0.003185   x
            x  In               21         0.498896  -0.002184   0.497344   x
            x  In               22         0.749745  -0.001465   0.747627   x
            x  In               23         0.498897   0.248814   0.748373   x
            x  In               24         0.753229   0.248090   0.498190   x
            x  In               25         0.498896   0.497344  -0.002184   x
            x  In               26         0.753229   0.498190   0.248090   x
            x  In               27         0.498897   0.748373   0.248814   x
            x  In               28         0.749745   0.747627  -0.001465   x
            x  In               29         0.516191   0.511299   0.511299   x
            x  In               30         0.749715   0.499410   0.749412   x
            x  In               31         0.500026   0.753418   0.753418   x
            x  In               32         0.749715   0.749412   0.499410   x
            xxxxxxxxxxxxxxxxxxxxxxxxxxxxxxxxxxxxxxxxxxxxxxxxxxxxxxxxxxxxxxxxx


------------------------------------------------------------------------ <-- SCF
SCF loop      Energy           Fermi           Energy gain       Timer   <-- SCF
                               energy          per atom          (sec)   <-- SCF
------------------------------------------------------------------------ <-- SCF
Initial  -6.30901457E+004  0.00000000E+000                     16440.09  <-- SCF
      1  -6.30902257E+004  3.70878875E+000   1.23130546E-003   16858.69  <-- SCF
      2  -6.30902291E+004  3.70878715E+000   5.22173966E-005   17276.27  <-- SCF
      3  -6.30902291E+004  3.70869693E+000  -7.95245233E-008   17629.59  <-- SCF
      4  -6.30902291E+004  3.70891564E+000   1.87019547E-008   17993.59  <-- SCF
      5  -6.30902291E+004  3.70902039E+000   1.04790571E-007   18291.24  <-- SCF
      6  -6.30902291E+004  3.70922132E+000   6.63453165E-010   18571.28  <-- SCF
      7  -6.30902291E+004  3.70926983E+000   3.24987345E-009   18833.83  <-- SCF
      8  -6.30902291E+004  3.70928839E+000   1.17993765E-009   19080.88  <-- SCF
------------------------------------------------------------------------ <-- SCF
 
Integrated Spin Density     =    0.993300     hbar/2
Integrated |Spin Density|   =     1.21847     hbar/2
 
Final energy, E             =  -63090.22498263     eV
Final free energy (E-TS)    =  -63090.22913336     eV
(energies not corrected for finite basis set)
 
NB est. 0K energy (E-0.5TS)      =  -63090.22705799     eV
 

 ************************************** Forces **************************************
 *                                                                                  *
[...]
                 32   dn:     0.867   1.970   0.000   0.000   2.838
  P              33   up:     0.897   2.034   0.000   0.000   2.932    -0.452        0.411
                 33   dn:     0.888   1.632   0.000   0.000   2.520
  In              1   up:     0.441   0.724   4.995   0.000   6.160     0.680       -0.000
                  1   dn:     0.442   0.724   4.995   0.000   6.160
  In              2   up:     0.450   0.714   4.995   0.000   6.159     0.682       -0.000
                  2   dn:     0.450   0.714   4.995   0.000   6.159
  In              3   up:     0.452   0.718   4.995   0.000   6.165     0.676        0.006
                  3   dn:     0.449   0.715   4.995   0.000   6.159
  In              4   up:     0.450   0.714   4.995   0.000   6.159     0.682       -0.000
                  4   dn:     0.450   0.714   4.995   0.000   6.159
  In              5   up:     0.448   0.734   4.994   0.000   6.176     0.656        0.008
                  5   dn:     0.446   0.728   4.994   0.000   6.168
  In              6   up:     0.442   0.721   4.995   0.000   6.158     0.686        0.002
                  6   dn:     0.440   0.721   4.995   0.000   6.156
  In              7   up:     0.448   0.734   4.994   0.000   6.176     0.656        0.008
                  7   dn:     0.446   0.728   4.994   0.000   6.168
  In              8   up:     0.422   0.700   4.995   0.000   6.117     0.734       -0.032
                  8   dn:     0.439   0.716   4.994   0.000   6.149
  In              9   up:     0.448   0.734   4.994   0.000   6.176     0.656        0.008
                  9   dn:     0.446   0.728   4.994   0.000   6.168
  In             10   up:     0.422   0.700   4.995   0.000   6.117     0.734       -0.032
                 10   dn:     0.439   0.716   4.994   0.000   6.149
  In             11   up:     0.448   0.734   4.994   0.000   6.176     0.656        0.008
                 11   dn:     0.446   0.728   4.994   0.000   6.168
  In             12   up:     0.442   0.721   4.995   0.000   6.158     0.686        0.002
                 12   dn:     0.440   0.721   4.995   0.000   6.156
  In             13   up:     0.452   0.718   4.995   0.000   6.165     0.676        0.006
                 13   dn:     0.449   0.715   4.995   0.000   6.159
  In             14   up:     0.450   0.714   4.995   0.000   6.159     0.682       -0.000
                 14   dn:     0.450   0.714   4.995   0.000   6.159
  In             15   up:     0.441   0.724   4.995   0.000   6.160     0.680       -0.000
                 15   dn:     0.441   0.724   4.995   0.000   6.160
  In             16   up:     0.450   0.714   4.995   0.000   6.159     0.682       -0.000
                 16   dn:     0.450   0.714   4.995   0.000   6.159
  In             17   up:     0.444   0.731   4.994   0.000   6.169     0.661       -0.002
                 17   dn:     0.444   0.732   4.994   0.000   6.170
  In             18   up:     0.442   0.725   4.994   0.000   6.162     0.678        0.001
                 18   dn:     0.443   0.723   4.994   0.000   6.160
  In             19   up:     0.447   0.736   4.993   0.000   6.177     0.633       -0.013
                 19   dn:     0.455   0.743   4.993   0.000   6.190
  In             20   up:     0.442   0.725   4.994   0.000   6.162     0.678        0.001
                 20   dn:     0.443   0.723   4.994   0.000   6.160
  In             21   up:     0.444   0.719   4.995   0.000   6.158     0.687        0.003
                 21   dn:     0.441   0.719   4.995   0.000   6.155
  In             22   up:     0.442   0.725   4.994   0.000   6.161     0.679        0.001
                 22   dn:     0.441   0.725   4.994   0.000   6.160
  In             23   up:     0.444   0.719   4.995   0.000   6.158     0.687        0.003
                 23   dn:     0.441   0.719   4.995   0.000   6.155
  In             24   up:     0.442   0.722   4.995   0.000   6.158     0.686        0.002
                 24   dn:     0.442   0.720   4.995   0.000   6.156
  In             25   up:     0.444   0.719   4.995   0.000   6.158     0.687        0.003
                 25   dn:     0.441   0.719   4.995   0.000   6.155
  In             26   up:     0.442   0.722   4.995   0.000   6.158     0.686        0.002
                 26   dn:     0.442   0.720   4.995   0.000   6.156
  In             27   up:     0.444   0.719   4.995   0.000   6.158     0.687        0.003
                 27   dn:     0.441   0.719   4.995   0.000   6.155
  In             28   up:     0.442   0.725   4.994   0.000   6.161     0.679        0.001
                 28   dn:     0.441   0.725   4.994   0.000   6.160
  In             29   up:     0.447   0.736   4.993   0.000   6.177     0.633       -0.013
                 29   dn:     0.455   0.743   4.993   0.000   6.190
  In             30   up:     0.442   0.725   4.994   0.000   6.162     0.678        0.001
                 30   dn:     0.443   0.723   4.994   0.000   6.160
  In             31   up:     0.444   0.731   4.994   0.000   6.169     0.661       -0.002
                 31   dn:     0.444   0.732   4.994   0.000   6.170
  In             32   up:     0.442   0.725   4.994   0.000   6.162     0.678        0.001
                 32   dn:     0.443   0.723   4.994   0.000   6.160
==============================================================================================

                 Bond                   Population        Spin       Length (A)
================================================================================
              P 4  -- P 33                   0.35        -0.12          2.13599
              P 4  -- In 29                  0.75        -0.01          2.47045
              P 33 -- In 19                  0.75        -0.01          2.47051
              P 2  -- In 17                  0.69         0.00          2.50399
              P 14 -- In 31                  0.69         0.00          2.50422
              P 16 -- In 31                  0.66         0.00          2.51795
              P 16 -- In 17                  0.66         0.00          2.51850
              P 17 -- In 19                  0.65        -0.00          2.51925
              P 19 -- In 19                  0.65        -0.00          2.51925
              P 25 -- In 29                  0.65        -0.00          2.51925
              P 23 -- In 29                  0.65        -0.00          2.51925
              P 1  -- In 5                   0.64        -0.00          2.52844
              P 3  -- In 9                   0.64        -0.00          2.52844
              P 9  -- In 11                  0.64        -0.00          2.52847
              P 7  -- In 7                   0.64        -0.00          2.52847
              P 28 -- In 11                  0.66        -0.00          2.52996
              P 24 -- In 7                   0.66        -0.00          2.52996
              P 24 -- In 9                   0.66        -0.00          2.53054
              P 28 -- In 5                   0.66        -0.00          2.53054
              P 28 -- In 32                  0.67         0.00          2.53078
              P 24 -- In 30                  0.67         0.00          2.53078
              P 28 -- In 18                  0.67         0.00          2.53107
              P 24 -- In 20                  0.67         0.00          2.53107
              P 23 -- In 30                  0.64        -0.00          2.54113
              P 25 -- In 32                  0.64        -0.00          2.54113
              P 17 -- In 18                  0.64        -0.00          2.54129
              P 19 -- In 20                  0.64        -0.00          2.54129
              P 22 -- In 22                  0.67         0.00          2.54209
              P 26 -- In 28                  0.67         0.00          2.54209
              P 6  -- In 8                   0.68         0.00          2.54336
              P 10 -- In 10                  0.68         0.00          2.54336
              P 7  -- In 8                   0.64        -0.01          2.54502
              P 9  -- In 10                  0.64        -0.01          2.54502
              P 22 -- In 24                  0.66         0.00          2.54536
              P 26 -- In 26                  0.66         0.00          2.54536
              P 3  -- In 10                  0.63        -0.01          2.54565
              P 1  -- In 8                   0.63        -0.01          2.54565
              P 20 -- In 26                  0.66         0.00          2.54659
              P 20 -- In 24                  0.66         0.00          2.54659
              P 27 -- In 28                  0.67        -0.00          2.54731
              P 21 -- In 22                  0.67        -0.00          2.54731
              P 31 -- In 22                  0.66        -0.00          2.54765
              P 29 -- In 28                  0.66        -0.00          2.54765
              P 8  -- In 23                  0.66         0.00          2.54814
              P 12 -- In 27                  0.66         0.00          2.54814
              P 11 -- In 11                  0.66         0.00          2.54863
              P 5  -- In 7                   0.66         0.00          2.54863
              P 12 -- In 21                  0.66         0.00          2.54881
              P 8  -- In 25                  0.66         0.00          2.54881
              P 15 -- In 5                   0.66         0.00          2.54900
              P 13 -- In 9                   0.66         0.00          2.54900
              P 13 -- In 15                  0.67         0.00          2.54951
              P 15 -- In 15                  0.67         0.00          2.54951
              P 5  -- In 1                   0.67         0.00          2.54955
              P 11 -- In 1                   0.67         0.00          2.54955
              P 26 -- In 9                   0.65        -0.00          2.54985
              P 22 -- In 5                   0.65        -0.00          2.54985
              P 16 -- In 6                   0.68         0.00          2.54994
              P 16 -- In 12                  0.68         0.00          2.54994
              P 26 -- In 11                  0.65        -0.00          2.55000
              P 22 -- In 7                   0.65        -0.00          2.55000
              P 30 -- In 30                  0.67         0.00          2.55001
              P 30 -- In 32                  0.67         0.00          2.55001
              P 18 -- In 18                  0.67         0.00          2.55007
              P 18 -- In 20                  0.67         0.00          2.55007
              P 21 -- In 17                  0.65         0.00          2.55113
              P 27 -- In 17                  0.65         0.00          2.55113
              P 31 -- In 31                  0.65         0.00          2.55119
              P 29 -- In 31                  0.65         0.00          2.55119
              P 32 -- In 15                  0.66         0.00          2.55275
              P 23 -- In 24                  0.65        -0.00          2.55290
              P 25 -- In 26                  0.65        -0.00          2.55290
              P 32 -- In 1                   0.65         0.00          2.55318
              P 29 -- In 30                  0.66        -0.00          2.55335
              P 31 -- In 32                  0.66        -0.00          2.55335
              P 19 -- In 26                  0.65        -0.00          2.55342
              P 17 -- In 24                  0.65        -0.00          2.55342
              P 11 -- In 12                  0.67         0.00          2.55358
              P 5  -- In 6                   0.67         0.00          2.55358
              P 20 -- In 3                   0.65         0.00          2.55370
              P 13 -- In 12                  0.67         0.00          2.55402
              P 15 -- In 6                   0.67         0.00          2.55402
              P 21 -- In 20                  0.66        -0.00          2.55421
              P 27 -- In 18                  0.66        -0.00          2.55421
              P 32 -- In 28                  0.66         0.00          2.55426
              P 32 -- In 22                  0.66         0.00          2.55426
              P 14 -- In 14                  0.67         0.00          2.55433
              P 14 -- In 16                  0.67         0.00          2.55433
              P 2  -- In 4                   0.67         0.00          2.55433
              P 2  -- In 2                   0.67         0.00          2.55433
              P 20 -- In 13                  0.65         0.00          2.55436
              P 18 -- In 1                   0.66         0.00          2.55497
              P 30 -- In 15                  0.66         0.00          2.55514
              P 3  -- In 3                   0.66        -0.00          2.55539
              P 1  -- In 3                   0.66        -0.00          2.55539
              P 7  -- In 13                  0.66        -0.00          2.55586
              P 9  -- In 13                  0.66        -0.00          2.55586
              P 25 -- In 27                  0.67         0.00          2.55610
              P 23 -- In 23                  0.67         0.00          2.55610
              P 19 -- In 25                  0.67         0.00          2.55614
              P 17 -- In 21                  0.67         0.00          2.55614
              P 30 -- In 13                  0.66         0.00          2.55639
              P 21 -- In 23                  0.66         0.00          2.55658
              P 27 -- In 27                  0.66         0.00          2.55658
              P 18 -- In 3                   0.66         0.00          2.55660
              P 29 -- In 25                  0.66         0.00          2.55681
              P 31 -- In 21                  0.66         0.00          2.55681
              P 8  -- In 14                  0.65        -0.00          2.55696
              P 12 -- In 16                  0.65        -0.00          2.55696
              P 12 -- In 2                   0.65        -0.00          2.55707
              P 8  -- In 4                   0.65        -0.00          2.55707
              P 10 -- In 25                  0.66         0.00          2.55822
              P 6  -- In 21                  0.66         0.00          2.55822
              P 10 -- In 27                  0.66         0.00          2.55867
              P 6  -- In 23                  0.66         0.00          2.55867
              P 13 -- In 14                  0.64        -0.00          2.56030
              P 15 -- In 16                  0.64        -0.00          2.56030
              P 11 -- In 2                   0.64        -0.00          2.56092
              P 5  -- In 4                   0.64        -0.00          2.56092
              P 6  -- In 6                   0.63         0.00          2.56740
              P 10 -- In 12                  0.63         0.00          2.56740
              P 1  -- In 2                   0.65         0.01          2.56754
              P 3  -- In 4                   0.65         0.01          2.56754
              P 9  -- In 16                  0.65         0.01          2.56788
              P 7  -- In 14                  0.65         0.01          2.56788
              P 14 -- In 29                  0.53         0.00          2.57482
              P 2  -- In 19                  0.53         0.00          2.57534
              P 33 -- In 8                   0.30        -0.00          2.72642
              P 33 -- In 10                  0.30        -0.00          2.72642
              P 4  -- In 8                   0.30        -0.00          2.72816
              P 4  -- In 10                  0.30        -0.00          2.72816
================================================================================

 Hirshfeld supercell size:           2           2           2
Standard grid dimensions: 240 240 240
Fine grid dimensions:     240 240 240


     Hirshfeld Analysis
     ------------------
Species   Ion     Hirshfeld Charge (e)  Spin (hbar/2)
===================================================
  P        1                -0.23        0.03
  P        2                -0.24        0.00
  P        3                -0.23        0.03
  P        4                -0.16        0.31
  P        5                -0.24        0.00
  P        6                -0.23        0.00
  P        7                -0.23        0.03
  P        8                -0.24        0.00
  P        9                -0.23        0.03
  P       10                -0.23        0.00
  P       11                -0.24        0.00
  P       12                -0.24        0.00
  P       13                -0.24        0.00
  P       14                -0.24        0.00
  P       15                -0.24        0.00
  P       16                -0.24       -0.00
  P       17                -0.24        0.01
  P       18                -0.24        0.00
  P       19                -0.24        0.01
  P       20                -0.24       -0.00
  P       21                -0.24        0.00
  P       22                -0.24        0.00
  P       23                -0.24        0.01
  P       24                -0.24        0.01
  P       25                -0.24        0.01
  P       26                -0.24        0.00
  P       27                -0.24        0.00
  P       28                -0.24        0.01
  P       29                -0.24        0.00
  P       30                -0.24        0.00
  P       31                -0.24        0.00
  P       32                -0.24        0.00
  P       33                -0.16        0.31
  In       1                 0.24        0.00
  In       2                 0.25        0.00
  In       3                 0.24        0.00
  In       4                 0.25        0.00
  In       5                 0.23        0.01
  In       6                 0.24       -0.00
  In       7                 0.23        0.01
  In       8                 0.26        0.04
  In       9                 0.23        0.01
  In      10                 0.26        0.04
  In      11                 0.23        0.01
  In      12                 0.24       -0.00
  In      13                 0.24        0.00
  In      14                 0.25        0.00
  In      15                 0.24        0.00
  In      16                 0.25        0.00
  In      17                 0.23       -0.00
  In      18                 0.24        0.00
  In      19                 0.22        0.02
  In      20                 0.24        0.00
  In      21                 0.24        0.00
  In      22                 0.24        0.00
  In      23                 0.24        0.00
  In      24                 0.24        0.00
  In      25                 0.24        0.00
  In      26                 0.24        0.00
  In      27                 0.24        0.00
  In      28                 0.24        0.00
  In      29                 0.22        0.02
  In      30                 0.24        0.00
  In      31                 0.23       -0.00
  In      32                 0.24        0.00
===================================================

 
 A BibTeX formatted list of references used in this run has been written to 
 P_Interstitial_Dumbbell_hash.bib
 
Initialisation time =     32.70 s
Calculation time    =  38126.74 s
Finalisation time   =    157.81 s
Total time          =  38317.25 s
Peak Memory Use     = 10106672 kB
 
Overall parallel efficiency rating: Poor (37%)
 
Data was distributed by:-
G-vector (3-way); efficiency rating: Poor (41%)
k-point (36-way); efficiency rating: Very good (81%)
