 +-------------------------------------------------+
 |                                                 |
 |      CCC   AA    SSS  TTTTT  EEEEE  PPPP        |
 |     C     A  A  S       T    E      P   P       |
 |     C     AAAA   SS     T    EEE    PPPP        |
 |     C     A  A     S    T    E      P           |
 |      CCC  A  A  SSS     T    EEEEE  P           |
 |                                                 |
 +-------------------------------------------------+
 |                                                 |
 | Welcome to Academic Release CASTEP version 24.1 |
 | Ab Initio Total Energy Program                  |
 |                                                 |
 | Authors:                                        |
 | M. Segall, M. Probert, C. Pickard, P. Hasnip,   |
 | S. Clark, K. Refson, J. R. Yates,               |
 | A. Bartok-Partay, M. Payne                      |
 |                                                 |
 | Contributors:                                   |
 | P. Lindan, P. Haynes, J. White, V. Milman,      |
 | N. Govind, M. Gibson, P. Tulip, V. Cocula,      |
 | B. Montanari, D. Quigley, M. Glover,            |
 | L. Bernasconi, A. Perlov, M. Plummer,           |
 | E. McNellis, J. Meyer, J. Gale, D. Jochym       |
 | J. Aarons, B. Walker, R. Gillen, D. Jones       |
 | T. Green, I. J. Bush, C. J. Armstrong,          |
 | E. J. Higgins, E. L. Brown, M. S. McFly,        |
 | J. Wilkins, B-C. Shih, P. J. P. Byrne,          |
 | R. J. Maurer, J. C. Womack, J. Dziedzic,        |
 | L. LeBlanc, T. K. Stenczel, J. Kermode,         |
 | S. Sturniolo, B. Shi, B. Durham, M. Evans,      |
 | M. J. Smith, A. Tamerus, Z. Hawkhead,           |
 | V. Ravindran, T. Hollins, S. A. Joyce,          |
 | R. T. Strong, A. M. Reilly, S. J. Donaldson     |
 |                                                 |
 | Copyright (c) 2000 - 2023                       |
 |                                                 |
 |     Distributed under license from Cambridge    |
 |     Enterprise for academic use only.           |
 |                                                 |
 | Please cite                                     |
 |                                                 |
 |     "First principles methods using CASTEP"     |
 |                                                 |
 |         Zeitschrift fuer Kristallographie       |
 |           220(5-6) pp. 567-570 (2005)           |
 |                                                 |
 | S. J. Clark, M. D. Segall, C. J. Pickard,       |
 | P. J. Hasnip, M. J. Probert, K. Refson,         |
 | M. C. Payne                                     |
 |                                                 |
 |       in all publications arising from          |
 |              your use of CASTEP                 |
 |                                                 |
 +-------------------------------------------------+
 |                                                 |
 |              http://www.castep.org              |
 |                                                 |
 +-------------------------------------------------+



 Compiled for  GNU 11.2.0 on 04-04-2024 18:39:17
 from code version 6355fd106 Castep241_branch Thu Mar 7 17:56:19 2024 +0000
 Compiler: GNU Fortran 11.2.0; Optimisation: FAST
 Comms   : MPI VERSION : CRAY MPICH version 8.1.23.14 (ANL base 3.4a2)
 MATHLIBS: default (LAPACK version 3.10.1)
 FFT Lib : fftw3 version commercial-fftw-3.3.10-sse2-avx-avx2-avx2_128
 Fundamental constants values: CODATA 2018

 Run started: Sun, 19 Jan 2025 01:28:42 +0000

 Atomic calculation performed for P: 1s2 2s2 2p6 3s2 3p3

 Converged in 47 iterations to an ae energy of -9309.074 eV

   ============================================================                
   | Pseudopotential Report - Date of generation 19-01-2025   |                
   ------------------------------------------------------------                
   | Element: P Ionic charge:  5.00 Level of theory: RSCAN    |                
   | Atomic Solver: Koelling-Harmon                           |                
   |                                                          |                
   |               Reference Electronic Structure             |                
   |         Orbital         Occupation         Energy        |                
   |            3s              2.000           -0.535        |                
   |            3p              3.000           -0.209        |                
   |                                                          |                
   |                 Pseudopotential Definition               |                
   |        Beta     l      e      Rc     scheme   norm       |                
   |          1      0   -0.535   1.807     qc      0         |                
   |          2      0    0.250   1.807     qc      0         |                
   |          3      1   -0.209   1.807     qc      0         |                
   |          4      1    0.250   1.807     qc      0         |                
   |          5      2    0.000   1.807     qc      0         |                
   |          6      2    0.250   1.807     qc      0         |                
   |         loc     3    0.000   1.807     pn      0         |                
   |                                                          |                
   | Augmentation charge Rinner = 1.263                       |                
   | Partial core correction Rc = 1.263                       |                
   ------------------------------------------------------------                
   | "3|1.8|4|4|5|30:31:32"                                   |                
   ------------------------------------------------------------                
   |      Author: Chris J. Pickard, Cambridge University      |                
   ============================================================                
 Warning: otfg_output_psp cannot write out meta-GGA pseudopotentials presently.

 Atomic calculation performed for In:
 1s2 2s2 2p6 3s2 3p6 3d10 4s2 4p6 4d10 5s2 5p1

 Converged in 84 iterations to an ae energy of -160093.328 eV

   ============================================================                
   | Pseudopotential Report - Date of generation 19-01-2025   |                
   ------------------------------------------------------------                
   | Element: In Ionic charge: 13.00 Level of theory: RSCAN   |                
   | Atomic Solver: Koelling-Harmon                           |                
   |                                                          |                
   |               Reference Electronic Structure             |                
   |         Orbital         Occupation         Energy        |                
   |            4d             10.000           -0.711        |                
   |            5s              2.000           -0.313        |                
   |            5p              1.000           -0.095        |                
   |                                                          |                
   |                 Pseudopotential Definition               |                
   |        Beta     l      e      Rc     scheme   norm       |                
   |          1      0   -0.313   2.501     qc      0         |                
   |          2      0    0.250   2.501     qc      0         |                
   |          3      1   -0.095   2.501     qc      0         |                
   |          4      1    0.250   2.501     qc      0         |                
   |          5      2   -0.711   2.207     qc      0         |                
   |          6      2    0.250   2.207     qc      0         |                
   |         loc     3    0.000   2.501     pn      0         |                
   |                                                          |                
   | Augmentation charge Rinner = 1.504                       |                
   | Partial core correction Rc = 1.504                       |                
   ------------------------------------------------------------                
   | "3|2.5|2.5|1.5|7|8|9|50:51:42U2.2U2.2"                   |                
   ------------------------------------------------------------                
   |      Author: Chris J. Pickard, Cambridge University      |                
   ============================================================                
 Warning: otfg_output_psp cannot write out meta-GGA pseudopotentials presently.

 Pseudo atomic calculation performed for P 3s2 3p3

 Converged in 23 iterations to a total energy of -208.0292 eV

 Pseudo atomic calculation performed for In 4d10 5s2 5p1

 Converged in 42 iterations to a total energy of -1747.4501 eV
 Calculation parallelised over 84 processes.
 Data is distributed by k-point(84-way)
 Each process may use up to 16 threads.

 ************************************ Title ************************************
 

 ***************************** General Parameters ******************************
  
 output verbosity                               : normal  (1)
 write checkpoint data to                       : StackingFaultStructs_001_110_4.check
 type of calculation                            : geometry optimization
 stress calculation                             : off
 density difference calculation                 : off
 electron localisation func (ELF) calculation   : off
 Hirshfeld analysis                             : on
 polarisation (Berry phase) analysis            : off
 molecular orbital projected DOS                : off
 deltaSCF calculation                           : off
 unlimited duration calculation
 timing information                             : on
 memory usage estimate                          : on
 write extra output files                       : on
 write final potential to formatted file        : off
 write final density to formatted file          : off
 write BibTeX reference list                    : on
 write OTFG pseudopotential files               : on
 write electrostatic potential file             : on
 write bands file                               : on
 checkpoint writing                             : off
  
 output         length unit                     : A
 output           mass unit                     : amu
 output           time unit                     : ps
 output         charge unit                     : e
 output           spin unit                     : hbar/2
 output         energy unit                     : eV
 output          force unit                     : eV/A
 output       velocity unit                     : A/ps
 output       pressure unit                     : GPa
 output     inv_length unit                     : 1/A
 output      frequency unit                     : cm-1
 output force constant unit                     : eV/A**2
 output         volume unit                     : A**3
 output   IR intensity unit                     : (D/A)**2/amu
 output         dipole unit                     : D
 output         efield unit                     : eV/A/e
 output        entropy unit                     : J/mol/K
 output    efield chi2 unit                     : pm/V
  
 wavefunctions paging                           : none
 random number generator seed                   :   12843039
 data distribution                              : optimal for this architecture
 optimization strategy                          : balance speed and memory

 *********************** Exchange-Correlation Parameters ***********************
  
 using functional                               : RSCAN
 relativistic treatment                         : Koelling-Harmon
 DFT+D: Semi-empirical dispersion correction    : off

 ************************* Pseudopotential Parameters **************************
  
 pseudopotential representation                 : reciprocal space
 <beta|phi> representation                      : reciprocal space
 spin-orbit coupling                            : off

 **************************** Basis Set Parameters *****************************
  
 plane wave basis set cut-off                   :   900.0000   eV
 size of standard grid                          :     2.0000
 size of   fine   gmax                          :    30.7390   1/A
 finite basis set correction                    : none

 **************************** Electronic Parameters ****************************
  
 number of  electrons                           :  216.0    
 net charge of system                           :  0.000    
 treating system as non-spin-polarized
 number of bands                                :        130

 ********************* Electronic Minimization Parameters **********************
  
 Method: Treating system as metallic with density mixing treatment of electrons,
         and number of  SD  steps               :          1
         and number of  CG  steps               :          4
  
 total energy / atom convergence tol.           : 0.1000E-07   eV
 eigen-energy convergence tolerance             : 0.2222E-08   eV
 max force / atom convergence tol.              : ignored
 convergence tolerance window                   :          3   cycles
 max. number of SCF cycles                      :         50
 number of fixed-spin iterations                :         10
 smearing scheme                                : Gaussian
 smearing width                                 : 0.2000       eV
 Fermi energy convergence tolerance             : 0.2721E-13   eV
 periodic dipole correction                     : NONE

 ************************** Density Mixing Parameters **************************
  
 density-mixing scheme                          : Pulay
 max. length of mixing history                  :         15
 charge density mixing amplitude                : 0.5000    
 cut-off energy for mixing                      :  900.0       eV

 *********************** Population Analysis Parameters ************************
  
 Population analysis with cutoff                :  3.000       A
 Population analysis output                     : summary and pdos components

 ********************** Geometry Optimization Parameters ***********************
  
 optimization method                            : LBFGS
 max. no. of LBFGS updates                      : unbounded
 preconditioned LBFGS is activated
 preconditioner type                            : EXP
     stabilization constant                     :     0.1000
     parameter A                                :     3.0000
     nearest neighbor distance                  : automatic
     cut-off distance                           : automatic
     parameter mu                               : automatic
 variable cell method                           : fixed basis quality
 max. number of steps                           :         30
 estimated bulk modulus                         :  500.0       GPa
 estimated <frequency>                          :  1668.       cm-1
 geom line minimiser                            : on
 with line minimiser tolerance                  :     0.4000
 total energy convergence tolerance             : 0.2000E-04   eV/atom
        max ionic |force| tolerance             : 0.1000E-02   eV/A
 max ionic |displacement| tolerance             : 0.1000E-02   A
   max |stress component| tolerance             : 0.1000       GPa
 convergence tolerance window                   :          2   steps
 backup results every                           :          5   steps
 write geom trajectory file                     : on

 *******************************************************************************
  

                           -------------------------------
                                      Unit Cell
                           -------------------------------
        Real Lattice(A)                      Reciprocal Lattice(1/A)
     4.1728310     0.0000000     0.0000000        1.505736826   0.000000000   0.000000000
     0.0000000     4.1728310     0.0000000        0.000000000   1.505736826  -0.088726380
     0.0000000     2.0864150    35.4076420        0.000000000   0.000000000   0.177452803

                       Lattice parameters(A)       Cell Angles
                    a =      4.172831          alpha =   86.627714
                    b =      4.172831          beta  =   90.000000
                    c =     35.469060          gamma =   90.000000

                       Current cell volume =           616.536223       A**3
                                   density =             2.837629   AMU/A**3
                                           =             4.711994     g/cm^3

                           -------------------------------
                                     Cell Contents
                           -------------------------------
                         Total number of ions in cell =   24
                      Total number of species in cell =    2
                        Max number of any one species =   12

            xxxxxxxxxxxxxxxxxxxxxxxxxxxxxxxxxxxxxxxxxxxxxxxxxxxxxxxxxxxx
            x  Element    Atom        Fractional coordinates of atoms  x
            x            Number           u          v          w      x
            x----------------------------------------------------------x
            x  P            1         0.500000  -0.188687   0.377374   x 
            x  P            2         0.000000   0.270584   0.458833   x 
            x  P            3         0.000000   0.352047   0.295906   x 
            x  P            4         0.500000  -0.270147   0.540293   x 
            x  P            5         0.000000   0.189127   0.621745   x 
            x  P            6         0.500000  -0.107202   0.214403   x 
            x  P            7         0.500000  -0.351586   0.703172   x 
            x  P            8         0.000000   0.107701   0.784598   x 
            x  P            9         0.000000   0.433522   0.132957   x 
            x  P           10         0.500000  -0.433033   0.866066   x 
            x  P           11         0.000000   0.027499   0.945001   x 
            x  P           12         0.500000  -0.025405   0.050810   x 
            x  In           1         0.500000   0.290941   0.418118   x 
            x  In           2         0.500000   0.127953   0.744094   x 
            x  In           3         0.000000  -0.331261   0.662523   x 
            x  In           4         0.500000   0.209481   0.581038   x 
            x  In           5         0.000000  -0.249787   0.499574   x 
            x  In           6         0.000000  -0.412857   0.825713   x 
            x  In           7         0.000000  -0.168338   0.336677   x 
            x  In           8         0.500000   0.046028   0.907943   x 
            x  In           9         0.000000  -0.087009   0.174019   x 
            x  In          10         0.500000   0.453599   0.092801   x 
            x  In          11         0.000000  -0.005529   0.011058   x 
            x  In          12         0.500000   0.372358   0.255283   x 
            xxxxxxxxxxxxxxxxxxxxxxxxxxxxxxxxxxxxxxxxxxxxxxxxxxxxxxxxxxxx


                         No user defined ionic velocities

                           -------------------------------
                                   Details of Species
                           -------------------------------

                               Mass of species in AMU
                                    P   30.9737600
                                    In  114.8180000

                          Electric Quadrupole Moment (Barn)
                                    P    1.0000000 No Isotope Defined
                                    In    0.7700000 Isotope115

                          Files used for pseudopotentials:
                                    P 3|1.8|4|4|5|30:31:32
                                    In 3|2.5|2.5|1.5|7|8|9|50:51:42U2.2U2.2

                           -------------------------------
                              k-Points For BZ Sampling
                           -------------------------------
                       MP grid size for SCF calculation is  8 10  2
                            with an offset of   0.062  0.050  0.250
                       Number of kpoints used =            84

                           -------------------------------
                               Symmetry and Constraints
                           -------------------------------

                      Maximum deviation from symmetry =  0.00000         ANG

                      Number of symmetry operations   =           1
                      Number of ionic constraints     =          48
                      Point group of crystal =     1: C1, 1, 1
                      Space group of crystal =    38: Amm2, A 2 -2

             Set iprint > 1 for details on symmetry rotations/translations

                         Centre of mass is NOT constrained
             Set iprint > 1 for details of linear ionic constraints

                         Number of cell constraints= 6
                         Cell constraints are:  0 0 0 0 0 0

                         External pressure/stress (GPa)
                          0.00000   0.00000   0.00000
                                    0.00000   0.00000
                                              0.00000
 
+---------------- MEMORY AND SCRATCH DISK ESTIMATES PER PROCESS --------------+
|                                                     Memory          Disk    |
| Baseline code, static data and system overhead      386.0 MB         0.0 MB |
| BLAS internal memory storage                          0.0 MB         0.0 MB |
| Model and support data                             4597.6 MB         0.0 MB |
| Electronic energy minimisation requirements         524.9 MB         0.0 MB |
| Force calculation requirements                      105.7 MB         0.0 MB |
|                                               ----------------------------- |
| Approx. total storage required per process         5508.5 MB         0.0 MB |
|                                                                             |
| Requirements will fluctuate during execution and may exceed these estimates |
+-----------------------------------------------------------------------------+
Calculating approximate eigenstates for fixed initial Hamiltonian
Cut-off for approx. calculation is   89.988 eV
Improving approx. states at cut-off of  450.000 eV
Resetting cut-off to  900.000 eV
Calculating total energy with cut-off of  900.000 eV.
------------------------------------------------------------------------ <-- SCF
SCF loop      Energy           Fermi           Energy gain       Timer   <-- SCF
                               energy          per atom          (sec)   <-- SCF
------------------------------------------------------------------------ <-- SCF
Initial  -2.36392036E+004  0.00000000E+000                        80.29  <-- SCF
      1  -2.35512929E+004  2.83970340E+000  -3.66294336E+000     121.37  <-- SCF
      2  -2.35513856E+004  2.83735738E+000   3.86204492E-003     150.93  <-- SCF
      3  -2.35755936E+004  3.36745453E+000   1.00866686E+000     187.42  <-- SCF
      4  -2.35798721E+004  3.46767332E+000   1.78267990E-001     234.77  <-- SCF
      5  -2.35772447E+004  3.77567042E+000  -1.09473347E-001     271.65  <-- SCF
      6  -2.35777517E+004  3.84576514E+000   2.11257442E-002     313.14  <-- SCF
      7  -2.35776314E+004  3.90552410E+000  -5.01584442E-003     351.44  <-- SCF
      8  -2.35781929E+004  3.91771969E+000   2.33958579E-002     390.03  <-- SCF
      9  -2.35779867E+004  3.88461747E+000  -8.59082896E-003     426.40  <-- SCF
     10  -2.35781218E+004  3.87480834E+000   5.63113299E-003     467.14  <-- SCF
     11  -2.35781708E+004  3.87707448E+000   2.04114337E-003     504.87  <-- SCF
     12  -2.35781675E+004  3.86493447E+000  -1.37784873E-004     547.47  <-- SCF
     13  -2.35781708E+004  3.88389415E+000   1.36001816E-004     585.93  <-- SCF
     14  -2.35781705E+004  3.87006318E+000  -1.15554192E-005     624.76  <-- SCF
     15  -2.35781707E+004  3.86985551E+000   9.67179041E-006     663.17  <-- SCF
     16  -2.35781707E+004  3.87123412E+000  -2.74287045E-006     701.61  <-- SCF
     17  -2.35781708E+004  3.87160469E+000   5.41637105E-006     741.35  <-- SCF
     18  -2.35781708E+004  3.87140556E+000   8.76900153E-007     778.89  <-- SCF
     19  -2.35781708E+004  3.87140745E+000   1.76261416E-007     811.34  <-- SCF
     20  -2.35781708E+004  3.87137371E+000   8.88500936E-009     840.18  <-- SCF
     21  -2.35781708E+004  3.87130802E+000   8.65853378E-009     868.52  <-- SCF
     22  -2.35781708E+004  3.87121516E+000  -2.43580476E-009     897.02  <-- SCF
------------------------------------------------------------------------ <-- SCF
 
Final energy, E             =  -23578.15552047     eV
Final free energy (E-TS)    =  -23578.17080746     eV
(energies not corrected for finite basis set)
 
NB est. 0K energy (E-0.5TS)      =  -23578.16316396     eV
 
 
+---------------- MEMORY AND SCRATCH DISK ESTIMATES PER PROCESS --------------+
|                                                     Memory          Disk    |
| Model and support data                             2667.7 MB         0.0 MB |
| Electronic energy minimisation requirements         524.9 MB         0.0 MB |
| Geometry minimisation requirements                  612.4 MB         0.0 MB |
|                                               ----------------------------- |
| Approx. total storage required per process         3804.9 MB         0.0 MB |
|                                                                             |
| Requirements will fluctuate during execution and may exceed these estimates |
+-----------------------------------------------------------------------------+
 

 ******************************** Constrained Forces ********************************
 *                                                                                  *
 *                           Cartesian components (eV/A)                            *
 * -------------------------------------------------------------------------------- *
 *                         x                    y                    z              *
 *                                                                                  *
 * P               1     -0.00000(cons'd)      0.00000(cons'd)     -0.10235         *
 * P               2      0.00000(cons'd)      0.00000(cons'd)     -0.09237         *
 * P               3      0.00000(cons'd)      0.00000(cons'd)     -0.08415         *
 * P               4     -0.00000(cons'd)      0.00000(cons'd)     -0.09721         *
 * P               5      0.00000(cons'd)      0.00000(cons'd)     -0.09365         *
 * P               6     -0.00000(cons'd)      0.00000(cons'd)     -0.01867         *
 * P               7      0.00000(cons'd)      0.00000(cons'd)     -0.05043         *
 * P               8      0.00000(cons'd)     -0.00000(cons'd)      0.00725         *
 * P               9      0.00000(cons'd)      0.00000(cons'd)      0.02655         *
 * P              10     -0.00000(cons'd)      0.00000(cons'd)      0.07558         *
 * P              11      0.00000(cons'd)      0.00000(cons'd)      0.18283         *
 * P              12     -0.00000(cons'd)      0.00000(cons'd)      0.17658         *
 * In              1      0.00000(cons'd)      0.00000(cons'd)      0.09969         *
 * In              2      0.00000(cons'd)     -0.00000(cons'd)      0.02641         *
 * In              3      0.00000(cons'd)      0.00000(cons'd)      0.08032         *
 * In              4      0.00000(cons'd)     -0.00000(cons'd)      0.09573         *
 * In              5      0.00000(cons'd)      0.00000(cons'd)      0.09947         *
 * In              6      0.00000(cons'd)      0.00000(cons'd)     -0.03778         *
 * In              7      0.00000(cons'd)      0.00000(cons'd)      0.09558         *
 * In              8      0.00000(cons'd)      0.00000(cons'd)     -0.18728         *
 * In              9      0.00000(cons'd)      0.00000(cons'd)     -0.00243         *
 * In             10      0.00000(cons'd)      0.00000(cons'd)     -0.14380         *
 * In             11      0.00000(cons'd)      0.00000(cons'd)     -0.12291         *
 * In             12      0.00000(cons'd)      0.00000(cons'd)      0.06705         *
 *                                                                                  *
 ************************************************************************************
 EXP precond LBFGS => estimated nearest neighbor distance :  2.536       A
 EXP precond LBFGS => estimated cutoff distance :  5.072       A

 ************************************** Forces **************************************
 *                                                                                  *
 *                           Cartesian components (eV/A)                            *
 * -------------------------------------------------------------------------------- *
 *                         x                    y                    z              *
 *                                                                                  *
 * P               1      0.00000(cons'd)     -0.00002(cons'd)     -0.10235         *
 * P               2     -0.00000(cons'd)     -0.00511(cons'd)     -0.09237         *
 * P               3     -0.00000(cons'd)      0.00380(cons'd)     -0.08415         *
 * P               4      0.00000(cons'd)      0.00305(cons'd)     -0.09721         *
 * P               5     -0.00000(cons'd)      0.00119(cons'd)     -0.09365         *
 * P               6      0.00000(cons'd)     -0.00537(cons'd)     -0.01867         *
 * P               7      0.00000(cons'd)     -0.00533(cons'd)     -0.05043         *
 * P               8     -0.00000(cons'd)      0.00380(cons'd)      0.00725         *
 * P               9     -0.00000(cons'd)      0.00109(cons'd)      0.02655         *
 * P              10      0.00000(cons'd)     -0.00017(cons'd)      0.07558         *
 * P              11     -0.00001(cons'd)     -0.00417(cons'd)      0.18283         *
 * P              12      0.00000(cons'd)      0.00251(cons'd)      0.17658         *
 * In              1      0.00000(cons'd)      0.00022(cons'd)      0.09969         *
 * In              2      0.00000(cons'd)      0.00066(cons'd)      0.02641         *
 * In              3     -0.00000(cons'd)      0.00022(cons'd)      0.08032         *
 * In              4      0.00000(cons'd)      0.00035(cons'd)      0.09573         *
 * In              5     -0.00000(cons'd)      0.00065(cons'd)      0.09947         *
 * In              6     -0.00000(cons'd)      0.00032(cons'd)     -0.03778         *
 * In              7     -0.00000(cons'd)      0.00033(cons'd)      0.09558         *
 * In              8      0.00001(cons'd)      0.00021(cons'd)     -0.18728         *
 * In              9     -0.00000(cons'd)      0.00023(cons'd)     -0.00243         *
 * In             10      0.00000(cons'd)      0.00028(cons'd)     -0.14380         *
 * In             11     -0.00000(cons'd)      0.00061(cons'd)     -0.12291         *
 * In             12      0.00000(cons'd)      0.00066(cons'd)      0.06705         *
 *                                                                                  *
 ************************************************************************************
 doing test perturbation to get energy scale for EXP preconditioner

                           -------------------------------
                                     Cell Contents
                           -------------------------------

            xxxxxxxxxxxxxxxxxxxxxxxxxxxxxxxxxxxxxxxxxxxxxxxxxxxxxxxxxxxxxxxxx
            x  Element         Atom        Fractional coordinates of atoms  x
            x                 Number           u          v          w      x
            x---------------------------------------------------------------x
            x  P                 1         0.505114   0.816699   0.377656   x
            x  P                 2         0.000000   0.275529   0.459171   x
            x  P                 3         0.000000   0.357049   0.296129   x
            x  P                 4         0.505114   0.735184   0.540685   x
            x  P                 5         0.000000   0.194020   0.622188   x
            x  P                 6         0.505114   0.898243   0.214566   x
            x  P                 7         0.505114   0.653696   0.703662   x
            x  P                 8         0.000000   0.112549   0.785131   x
            x  P                 9         0.000000   0.438585   0.133058   x
            x  P                10         0.505114   0.572207   0.866639   x
            x  P                11         0.000000   0.032310   0.945609   x
            x  P                12         0.505114   0.980102   0.050849   x
            x  In                1         0.505114   0.295900   0.418428   x
            x  In                2         0.505114   0.132811   0.744606   x
            x  In                3         0.000000   0.674032   0.662989   x
            x  In                4         0.505114   0.214386   0.581455   x
            x  In                5         0.000000   0.755557   0.499939   x
            x  In                6         0.000000   0.592393   0.826267   x
            x  In                7         0.000000   0.837062   0.336929   x
            x  In                8         0.505114   0.050847   0.908535   x
            x  In                9         0.000000   0.918451   0.174152   x
            x  In               10         0.505114   0.458678   0.092872   x
            x  In               11         0.000000   0.999993   0.011066   x
            x  In               12         0.505114   0.377376   0.255476   x
            xxxxxxxxxxxxxxxxxxxxxxxxxxxxxxxxxxxxxxxxxxxxxxxxxxxxxxxxxxxxxxxxx


------------------------------------------------------------------------ <-- SCF
SCF loop      Energy           Fermi           Energy gain       Timer   <-- SCF
                               energy          per atom          (sec)   <-- SCF
------------------------------------------------------------------------ <-- SCF
Initial  -2.35764740E+004  0.00000000E+000                       977.18  <-- SCF
      1  -2.35779497E+004  3.85824682E+000   6.14852416E-002    1013.61  <-- SCF
      2  -2.35781414E+004  3.85805824E+000   7.98942264E-003    1055.70  <-- SCF
      3  -2.35781434E+004  3.85970613E+000   8.47083579E-005    1092.84  <-- SCF
      4  -2.35781450E+004  3.86173821E+000   6.70158664E-005    1133.72  <-- SCF
      5  -2.35781452E+004  3.86192477E+000   6.13429863E-006    1179.21  <-- SCF
      6  -2.35781452E+004  3.86214127E+000   1.75948437E-006    1218.05  <-- SCF
      7  -2.35781452E+004  3.86230247E+000   9.21740126E-008    1250.96  <-- SCF
      8  -2.35781452E+004  3.86246998E+000   8.51519807E-009    1282.36  <-- SCF
      9  -2.35781452E+004  3.86260515E+000  -1.35987176E-008    1312.09  <-- SCF
     10  -2.35781452E+004  3.86288432E+000  -2.59819174E-008    1341.25  <-- SCF
     11  -2.35781452E+004  3.86306161E+000  -8.89325890E-009    1371.58  <-- SCF
     12  -2.35781452E+004  3.86323871E+000  -4.54549500E-009    1401.68  <-- SCF
     13  -2.35781452E+004  3.86328561E+000  -8.00076209E-010    1430.66  <-- SCF
------------------------------------------------------------------------ <-- SCF
 
Final energy, E             =  -23578.13214549     eV
Final free energy (E-TS)    =  -23578.14523285     eV
(energies not corrected for finite basis set)
 
NB est. 0K energy (E-0.5TS)      =  -23578.13868917     eV
 

 ************************************** Forces **************************************
 *                                                                                  *
 *                           Cartesian components (eV/A)                            *
 * -------------------------------------------------------------------------------- *
 *                         x                    y                    z              *
 *                                                                                  *
 * P               1     -0.19275(cons'd)     -0.01061(cons'd)     -0.09299         *
 * P               2      0.19367(cons'd)      0.01320(cons'd)     -0.08850         *
 * P               3      0.19529(cons'd)      0.01243(cons'd)     -0.08075         *
 * P               4     -0.19314(cons'd)     -0.01825(cons'd)     -0.09588         *
 * P               5      0.19400(cons'd)      0.02083(cons'd)     -0.08240         *
 * P               6     -0.19504(cons'd)     -0.01628(cons'd)     -0.01013         *
 * P               7     -0.19086(cons'd)     -0.01626(cons'd)     -0.04032         *
 * P               8      0.19761(cons'd)      0.01228(cons'd)      0.00826         *
 * P               9      0.20377(cons'd)      0.02031(cons'd)      0.03366         *
 * P              10     -0.19749(cons'd)     -0.00830(cons'd)      0.08892         *
 * P              11      0.26246(cons'd)     -0.00214(cons'd)     -0.08418         *
 * P              12     -0.19179(cons'd)     -0.01708(cons'd)      0.19768         *
 * In              1     -0.16613(cons'd)      0.01278(cons'd)      0.09291         *
 * In              2     -0.16979(cons'd)      0.01282(cons'd)      0.01943         *
 * In              3      0.16449(cons'd)     -0.01342(cons'd)      0.07347         *
 * In              4     -0.16629(cons'd)      0.01328(cons'd)      0.08900         *
 * In              5      0.16323(cons'd)     -0.01329(cons'd)      0.09264         *
 * In              6      0.16896(cons'd)     -0.01234(cons'd)     -0.04436         *
 * In              7      0.16359(cons'd)     -0.01296(cons'd)      0.08879         *
 * In              8     -0.23387(cons'd)      0.01130(cons'd)     -0.20955         *
 * In              9      0.16911(cons'd)     -0.01310(cons'd)     -0.01139         *
 * In             10     -0.17418(cons'd)      0.01095(cons'd)     -0.14951         *
 * In             11      0.16287(cons'd)      0.00099(cons'd)      0.14507         *
 * In             12     -0.16773(cons'd)      0.01283(cons'd)      0.06013         *
 *                                                                                  *
 ************************************************************************************
 EXP precond LBFGS => estimated parameter mu :  5.168       eV/A**2
 LBFGS: finished iteration     0 with enthalpy= -2.35781708E+004 eV
  
 +-----------+-----------------+-----------------+------------+-----+ <-- LBFGS
 | Parameter |      value      |    tolerance    |    units   | OK? | <-- LBFGS
 +-----------+-----------------+-----------------+------------+-----+ <-- LBFGS
 |  dE/ion   |   0.000000E+000 |   2.000000E-005 |         eV | No  | <-- LBFGS
 |  |F|max   |   3.142211E-001 |   1.000000E-003 |       eV/A | No  | <-- LBFGS
 |  |dR|max  |   7.523731E-015 |   1.000000E-003 |          A | No  | <-- LBFGS
 +-----------+-----------------+-----------------+------------+-----+ <-- LBFGS
  

================================================================================
 Starting LBFGS iteration          1 ...
================================================================================
  
 +------------+-------------+-------------+-----------------+ <-- min LBFGS
 |    Step    |   lambda    |   F.delta'  |    enthalpy     | <-- min LBFGS
 +------------+-------------+-------------+-----------------+ <-- min LBFGS
 |  previous  |    0.000000 |    0.549628 |   -23578.170807 | <-- min LBFGS
 +------------+-------------+-------------+-----------------+ <-- min LBFGS
  

--------------------------------------------------------------------------------
 LBFGS: starting iteration         1 with trial guess (lambda=  1.000000)
--------------------------------------------------------------------------------

                           -------------------------------
                                     Cell Contents
                           -------------------------------

            xxxxxxxxxxxxxxxxxxxxxxxxxxxxxxxxxxxxxxxxxxxxxxxxxxxxxxxxxxxxxxxxx
            x  Element         Atom        Fractional coordinates of atoms  x
            x                 Number           u          v          w      x
            x---------------------------------------------------------------x
            x  P                 1         0.500000  -0.188632   0.377264   x
            x  P                 2         0.000000   0.270626   0.458749   x
            x  P                 3         0.000000   0.352092   0.295816   x
            x  P                 4         0.500000  -0.270097   0.540194   x
            x  P                 5         0.000000   0.189181   0.621638   x
            x  P                 6         0.500000  -0.107191   0.214381   x
            x  P                 7         0.500000  -0.351557   0.703114   x
            x  P                 8         0.000000   0.107708   0.784585   x
            x  P                 9         0.000000   0.433538   0.132924   x
            x  P                10         0.500000  -0.433047   0.866095   x
            x  P                11         0.000000   0.027391   0.945219   x
            x  P                12         0.500000  -0.025539   0.051079   x
            x  In                1         0.500000   0.290866   0.418269   x
            x  In                2         0.500000   0.127939   0.744122   x
            x  In                3         0.000000  -0.331319   0.662637   x
            x  In                4         0.500000   0.209412   0.581175   x
            x  In                5         0.000000  -0.249863   0.499727   x
            x  In                6         0.000000  -0.412814   0.825628   x
            x  In                7         0.000000  -0.168408   0.336816   x
            x  In                8         0.500000   0.046178   0.907643   x
            x  In                9         0.000000  -0.086994   0.173989   x
            x  In               10         0.500000   0.453716   0.092567   x
            x  In               11         0.000000  -0.005492   0.010984   x
            x  In               12         0.500000   0.372307   0.255386   x
            xxxxxxxxxxxxxxxxxxxxxxxxxxxxxxxxxxxxxxxxxxxxxxxxxxxxxxxxxxxxxxxxx


------------------------------------------------------------------------ <-- SCF
SCF loop      Energy           Fermi           Energy gain       Timer   <-- SCF
                               energy          per atom          (sec)   <-- SCF
------------------------------------------------------------------------ <-- SCF
Initial  -2.35763193E+004  0.00000000E+000                      1477.74  <-- SCF
      1  -2.35779767E+004  3.87733621E+000   6.90576541E-002    1517.22  <-- SCF
      2  -2.35781732E+004  3.87716932E+000   8.18734192E-003    1561.57  <-- SCF
      3  -2.35781753E+004  3.87612053E+000   8.60555370E-005    1598.83  <-- SCF
      4  -2.35781768E+004  3.87473606E+000   6.19119482E-005    1639.13  <-- SCF
      5  -2.35781769E+004  3.87486167E+000   3.19395785E-006    1682.96  <-- SCF
      6  -2.35781768E+004  3.87504391E+000  -1.33669803E-006    1725.40  <-- SCF
      7  -2.35781767E+004  3.87530469E+000  -2.98737461E-006    1764.21  <-- SCF
      8  -2.35781766E+004  3.87605011E+000  -5.26966425E-006    1803.10  <-- SCF
      9  -2.35781766E+004  3.87661709E+000  -1.51561039E-006    1842.21  <-- SCF
     10  -2.35781766E+004  3.87693759E+000  -1.56698154E-007    1880.20  <-- SCF
     11  -2.35781766E+004  3.87701307E+000  -2.13624344E-008    1911.87  <-- SCF
     12  -2.35781766E+004  3.87705608E+000  -1.09918638E-008    1943.22  <-- SCF
     13  -2.35781766E+004  3.87708481E+000  -3.13804661E-009    1972.96  <-- SCF
     14  -2.35781766E+004  3.87711212E+000  -3.86697056E-011    2000.71  <-- SCF
------------------------------------------------------------------------ <-- SCF
 
Final energy, E             =  -23578.16292971     eV
Final free energy (E-TS)    =  -23578.17658103     eV
(energies not corrected for finite basis set)
 
NB est. 0K energy (E-0.5TS)      =  -23578.16975537     eV
 

 ******************************** Constrained Forces ********************************
 *                                                                                  *
 *                           Cartesian components (eV/A)                            *
 * -------------------------------------------------------------------------------- *
 *                         x                    y                    z              *
 *                                                                                  *
 * P               1     -0.00000(cons'd)      0.00000(cons'd)     -0.01045         *
 * P               2      0.00000(cons'd)      0.00000(cons'd)     -0.00905         *
 * P               3      0.00000(cons'd)      0.00000(cons'd)     -0.00667         *
 * P               4      0.00000(cons'd)     -0.00000(cons'd)     -0.00813         *
 * P               5      0.00000(cons'd)     -0.00000(cons'd)     -0.00954         *
 * P               6      0.00000(cons'd)      0.00000(cons'd)     -0.00138         *
 * P               7     -0.00000(cons'd)      0.00000(cons'd)     -0.00535         *
 * P               8      0.00000(cons'd)     -0.00000(cons'd)     -0.00021         *
 * P               9      0.00000(cons'd)      0.00000(cons'd)     -0.00912         *
 * P              10      0.00000(cons'd)      0.00000(cons'd)      0.00051         *
 * P              11      0.00000(cons'd)      0.00000(cons'd)     -0.04475         *
 * P              12     -0.00000(cons'd)     -0.00000(cons'd)      0.02117         *
 * In              1      0.00000(cons'd)      0.00000(cons'd)      0.01069         *
 * In              2      0.00000(cons'd)      0.00000(cons'd)      0.00495         *
 * In              3      0.00000(cons'd)      0.00000(cons'd)      0.00830         *
 * In              4      0.00000(cons'd)      0.00000(cons'd)      0.00940         *
 * In              5      0.00000(cons'd)      0.00000(cons'd)      0.01102         *
 * In              6      0.00000(cons'd)      0.00000(cons'd)     -0.00365         *
 * In              7      0.00000(cons'd)      0.00000(cons'd)      0.00900         *
 * In              8      0.00000(cons'd)      0.00000(cons'd)     -0.01656         *
 * In              9      0.00000(cons'd)      0.00000(cons'd)     -0.00261         *
 * In             10      0.00000(cons'd)      0.00000(cons'd)     -0.00604         *
 * In             11      0.00000(cons'd)      0.00000(cons'd)      0.05029         *
 * In             12      0.00000(cons'd)      0.00000(cons'd)      0.00817         *
 *                                                                                  *
 ************************************************************************************
  
 +------------+-------------+-------------+-----------------+ <-- min LBFGS
 |    Step    |   lambda    |   F.delta'  |    enthalpy     | <-- min LBFGS
 +------------+-------------+-------------+-----------------+ <-- min LBFGS
 |  previous  |    0.000000 |    0.549628 |   -23578.170807 | <-- min LBFGS
 | trial step |    1.000000 |    0.020706 |   -23578.176581 | <-- min LBFGS
 +------------+-------------+-------------+-----------------+ <-- min LBFGS
  
 LBFGS: finished iteration     1 with enthalpy= -2.35781766E+004 eV
  
 +-----------+-----------------+-----------------+------------+-----+ <-- LBFGS
 | Parameter |      value      |    tolerance    |    units   | OK? | <-- LBFGS
 +-----------+-----------------+-----------------+------------+-----+ <-- LBFGS
 |  dE/ion   |   2.405657E-004 |   2.000000E-005 |         eV | No  | <-- LBFGS
 |  |F|max   |   5.028953E-002 |   1.000000E-003 |       eV/A | No  | <-- LBFGS
 |  |dR|max  |   1.062846E-002 |   1.000000E-003 |          A | No  | <-- LBFGS
 +-----------+-----------------+-----------------+------------+-----+ <-- LBFGS
  

================================================================================
 Starting LBFGS iteration          2 ...
================================================================================
  
 +------------+-------------+-------------+-----------------+ <-- min LBFGS
 |    Step    |   lambda    |   F.delta'  |    enthalpy     | <-- min LBFGS
 +------------+-------------+-------------+-----------------+ <-- min LBFGS
 |  previous  |    0.000000 |    0.066632 |   -23578.176581 | <-- min LBFGS
 +------------+-------------+-------------+-----------------+ <-- min LBFGS
  

--------------------------------------------------------------------------------
 LBFGS: starting iteration         2 with trial guess (lambda=  1.000000)
--------------------------------------------------------------------------------

                           -------------------------------
                                     Cell Contents
                           -------------------------------

            xxxxxxxxxxxxxxxxxxxxxxxxxxxxxxxxxxxxxxxxxxxxxxxxxxxxxxxxxxxxxxxxx
            x  Element         Atom        Fractional coordinates of atoms  x
            x                 Number           u          v          w      x
            x---------------------------------------------------------------x
            x  P                 1         0.500000  -0.188632   0.377264   x
            x  P                 2         0.000000   0.270625   0.458750   x
            x  P                 3         0.000000   0.352087   0.295826   x
            x  P                 4         0.500000  -0.270095   0.540189   x
            x  P                 5         0.000000   0.189191   0.621617   x
            x  P                 6         0.500000  -0.107200   0.214399   x
            x  P                 7         0.500000  -0.351543   0.703086   x
            x  P                 8         0.000000   0.107730   0.784540   x
            x  P                 9         0.000000   0.433533   0.132933   x
            x  P                10         0.500000  -0.433010   0.866020   x
            x  P                11         0.000000   0.027430   0.945140   x
            x  P                12         0.500000  -0.025596   0.051191   x
            x  In                1         0.500000   0.290847   0.418306   x
            x  In                2         0.500000   0.127950   0.744100   x
            x  In                3         0.000000  -0.331321   0.662642   x
            x  In                4         0.500000   0.209402   0.581196   x
            x  In                5         0.000000  -0.249881   0.499762   x
            x  In                6         0.000000  -0.412779   0.825558   x
            x  In                7         0.000000  -0.168427   0.336853   x
            x  In                8         0.500000   0.046236   0.907527   x
            x  In                9         0.000000  -0.087000   0.174001   x
            x  In               10         0.500000   0.453702   0.092595   x
            x  In               11         0.000000  -0.005540   0.011079   x
            x  In               12         0.500000   0.372288   0.255424   x
            xxxxxxxxxxxxxxxxxxxxxxxxxxxxxxxxxxxxxxxxxxxxxxxxxxxxxxxxxxxxxxxxx


------------------------------------------------------------------------ <-- SCF
SCF loop      Energy           Fermi           Energy gain       Timer   <-- SCF
                               energy          per atom          (sec)   <-- SCF
------------------------------------------------------------------------ <-- SCF
Initial  -2.35781519E+004  0.00000000E+000                      2049.32  <-- SCF
      1  -2.35781760E+004  3.88121242E+000   1.00370370E-003    2092.16  <-- SCF
      2  -2.35781767E+004  3.88121135E+000   3.27079604E-005    2136.29  <-- SCF
      3  -2.35781767E+004  3.88056494E+000   1.57332080E-007    2173.81  <-- SCF
      4  -2.35781767E+004  3.88007597E+000   1.53125976E-007    2211.16  <-- SCF
      5  -2.35781767E+004  3.88008256E+000  -2.06870035E-009    2240.42  <-- SCF
      6  -2.35781767E+004  3.88009477E+000  -2.38584350E-008    2269.57  <-- SCF
      7  -2.35781767E+004  3.88011629E+000  -3.52059312E-008    2299.55  <-- SCF
      8  -2.35781767E+004  3.88018131E+000  -4.38951429E-008    2330.49  <-- SCF
      9  -2.35781767E+004  3.88025975E+000  -1.33098549E-008    2361.58  <-- SCF
     10  -2.35781767E+004  3.88028140E+000  -4.67516741E-010    2389.89  <-- SCF
     11  -2.35781767E+004  3.88029160E+000   4.51146565E-012    2416.74  <-- SCF
------------------------------------------------------------------------ <-- SCF
 
Final energy, E             =  -23578.16252489     eV
Final free energy (E-TS)    =  -23578.17674512     eV
(energies not corrected for finite basis set)
 
NB est. 0K energy (E-0.5TS)      =  -23578.16963501     eV
 

 ******************************** Constrained Forces ********************************
 *                                                                                  *
 *                           Cartesian components (eV/A)                            *
 * -------------------------------------------------------------------------------- *
 *                         x                    y                    z              *
 *                                                                                  *
 * P               1     -0.00000(cons'd)      0.00000(cons'd)      0.00277         *
 * P               2      0.00000(cons'd)      0.00000(cons'd)      0.00282         *
 * P               3      0.00000(cons'd)      0.00000(cons'd)      0.00249         *
 * P               4      0.00000(cons'd)     -0.00000(cons'd)      0.00290         *
 * P               5      0.00000(cons'd)      0.00000(cons'd)      0.00191         *
 * P               6      0.00000(cons'd)      0.00000(cons'd)     -0.00017         *
 * P               7     -0.00000(cons'd)      0.00000(cons'd)      0.00022         *
 * P               8      0.00000(cons'd)      0.00000(cons'd)     -0.00137         *
 * P               9      0.00000(cons'd)      0.00000(cons'd)     -0.00423         *
 * P              10     -0.00000(cons'd)      0.00000(cons'd)     -0.00653         *
 * P              11      0.00000(cons'd)      0.00000(cons'd)      0.02463         *
 * P              12     -0.00000(cons'd)     -0.00000(cons'd)     -0.00451         *
 * In              1      0.00000(cons'd)      0.00000(cons'd)     -0.00213         *
 * In              2      0.00000(cons'd)      0.00000(cons'd)      0.00005         *
 * In              3      0.00000(cons'd)      0.00000(cons'd)     -0.00191         *
 * In              4      0.00000(cons'd)     -0.00000(cons'd)     -0.00219         *
 * In              5      0.00000(cons'd)      0.00000(cons'd)     -0.00185         *
 * In              6      0.00000(cons'd)      0.00000(cons'd)      0.00098         *
 * In              7      0.00000(cons'd)      0.00000(cons'd)     -0.00211         *
 * In              8      0.00000(cons'd)      0.00000(cons'd)      0.00520         *
 * In              9      0.00000(cons'd)      0.00000(cons'd)      0.00078         *
 * In             10      0.00000(cons'd)      0.00000(cons'd)      0.00729         *
 * In             11      0.00000(cons'd)      0.00000(cons'd)     -0.02444         *
 * In             12      0.00000(cons'd)      0.00000(cons'd)     -0.00060         *
 *                                                                                  *
 ************************************************************************************
  
 +------------+-------------+-------------+-----------------+ <-- min LBFGS
 |    Step    |   lambda    |   F.delta'  |    enthalpy     | <-- min LBFGS
 +------------+-------------+-------------+-----------------+ <-- min LBFGS
 |  previous  |    0.000000 |    0.066632 |   -23578.176581 | <-- min LBFGS
 | trial step |    1.000000 |   -0.023334 |   -23578.176745 | <-- min LBFGS
 +------------+-------------+-------------+-----------------+ <-- min LBFGS
  
 LBFGS: finished iteration     2 with enthalpy= -2.35781767E+004 eV
  
 +-----------+-----------------+-----------------+------------+-----+ <-- LBFGS
 | Parameter |      value      |    tolerance    |    units   | OK? | <-- LBFGS
 +-----------+-----------------+-----------------+------------+-----+ <-- LBFGS
 |  dE/ion   |   6.837184E-006 |   2.000000E-005 |         eV | Yes | <-- LBFGS
 |  |F|max   |   2.463050E-002 |   1.000000E-003 |       eV/A | No  | <-- LBFGS
 |  |dR|max  |   4.110458E-003 |   1.000000E-003 |          A | No  | <-- LBFGS
 +-----------+-----------------+-----------------+------------+-----+ <-- LBFGS
  

================================================================================
 Starting LBFGS iteration          3 ...
================================================================================
  
 +------------+-------------+-------------+-----------------+ <-- min LBFGS
 |    Step    |   lambda    |   F.delta'  |    enthalpy     | <-- min LBFGS
 +------------+-------------+-------------+-----------------+ <-- min LBFGS
 |  previous  |    0.000000 |    0.035966 |   -23578.176745 | <-- min LBFGS
 +------------+-------------+-------------+-----------------+ <-- min LBFGS
  

--------------------------------------------------------------------------------
 LBFGS: starting iteration         3 with trial guess (lambda=  1.000000)
--------------------------------------------------------------------------------

                           -------------------------------
                                     Cell Contents
                           -------------------------------

            xxxxxxxxxxxxxxxxxxxxxxxxxxxxxxxxxxxxxxxxxxxxxxxxxxxxxxxxxxxxxxxxx
            x  Element         Atom        Fractional coordinates of atoms  x
            x                 Number           u          v          w      x
            x---------------------------------------------------------------x
            x  P                 1         0.500000  -0.188636   0.377272   x
            x  P                 2         0.000000   0.270621   0.458759   x
            x  P                 3         0.000000   0.352085   0.295831   x
            x  P                 4         0.500000  -0.270099   0.540197   x
            x  P                 5         0.000000   0.189189   0.621621   x
            x  P                 6         0.500000  -0.107198   0.214396   x
            x  P                 7         0.500000  -0.351543   0.703086   x
            x  P                 8         0.000000   0.107731   0.784539   x
            x  P                 9         0.000000   0.433540   0.132920   x
            x  P                10         0.500000  -0.433009   0.866018   x
            x  P                11         0.000000   0.027418   0.945164   x
            x  P                12         0.500000  -0.025584   0.051169   x
            x  In                1         0.500000   0.290846   0.418308   x
            x  In                2         0.500000   0.127950   0.744100   x
            x  In                3         0.000000  -0.331320   0.662639   x
            x  In                4         0.500000   0.209402   0.581196   x
            x  In                5         0.000000  -0.249882   0.499764   x
            x  In                6         0.000000  -0.412780   0.825560   x
            x  In                7         0.000000  -0.168427   0.336853   x
            x  In                8         0.500000   0.046227   0.907547   x
            x  In                9         0.000000  -0.086997   0.173995   x
            x  In               10         0.500000   0.453703   0.092594   x
            x  In               11         0.000000  -0.005526   0.011051   x
            x  In               12         0.500000   0.372289   0.255422   x
            xxxxxxxxxxxxxxxxxxxxxxxxxxxxxxxxxxxxxxxxxxxxxxxxxxxxxxxxxxxxxxxxx


------------------------------------------------------------------------ <-- SCF
SCF loop      Energy           Fermi           Energy gain       Timer   <-- SCF
                               energy          per atom          (sec)   <-- SCF
------------------------------------------------------------------------ <-- SCF
Initial  -2.35781640E+004  0.00000000E+000                      2463.89  <-- SCF
      1  -2.35781767E+004  3.87943488E+000   5.30657553E-004    2503.64  <-- SCF
      2  -2.35781768E+004  3.87943482E+000   1.18062581E-006    2545.88  <-- SCF
      3  -2.35781768E+004  3.87963347E+000  -1.83733950E-008    2576.97  <-- SCF
      4  -2.35781768E+004  3.87980466E+000  -1.67942531E-009    2606.53  <-- SCF
      5  -2.35781768E+004  3.87982860E+000  -1.49909559E-010    2633.47  <-- SCF
------------------------------------------------------------------------ <-- SCF
 
Final energy, E             =  -23578.16275319     eV
Final free energy (E-TS)    =  -23578.17677510     eV
(energies not corrected for finite basis set)
 
NB est. 0K energy (E-0.5TS)      =  -23578.16976414     eV
 

 ******************************** Constrained Forces ********************************
 *                                                                                  *
 *                           Cartesian components (eV/A)                            *
 * -------------------------------------------------------------------------------- *
 *                         x                    y                    z              *
 *                                                                                  *
 * P               1     -0.00000(cons'd)      0.00000(cons'd)      0.00065         *
 * P               2      0.00000(cons'd)      0.00000(cons'd)      0.00093         *
 * P               3      0.00000(cons'd)      0.00000(cons'd)      0.00036         *
 * P               4     -0.00000(cons'd)     -0.00000(cons'd)      0.00072         *
 * P               5      0.00000(cons'd)     -0.00000(cons'd)      0.00027         *
 * P               6     -0.00000(cons'd)      0.00000(cons'd)     -0.00044         *
 * P               7      0.00000(cons'd)      0.00000(cons'd)     -0.00030         *
 * P               8      0.00000(cons'd)     -0.00000(cons'd)     -0.00061         *
 * P               9      0.00000(cons'd)      0.00000(cons'd)     -0.00137         *
 * P              10     -0.00000(cons'd)      0.00000(cons'd)     -0.00136         *
 * P              11      0.00000(cons'd)      0.00000(cons'd)      0.00040         *
 * P              12     -0.00000(cons'd)     -0.00000(cons'd)     -0.00075         *
 * In              1      0.00000(cons'd)      0.00000(cons'd)     -0.00032         *
 * In              2      0.00000(cons'd)      0.00000(cons'd)      0.00013         *
 * In              3      0.00000(cons'd)      0.00000(cons'd)     -0.00002         *
 * In              4      0.00000(cons'd)      0.00000(cons'd)     -0.00008         *
 * In              5      0.00000(cons'd)      0.00000(cons'd)     -0.00022         *
 * In              6      0.00000(cons'd)      0.00000(cons'd)     -0.00039         *
 * In              7      0.00000(cons'd)     -0.00000(cons'd)     -0.00001         *
 * In              8      0.00000(cons'd)      0.00000(cons'd)      0.00030         *
 * In              9      0.00000(cons'd)      0.00000(cons'd)      0.00045         *
 * In             10      0.00000(cons'd)      0.00000(cons'd)      0.00080         *
 * In             11      0.00000(cons'd)      0.00000(cons'd)      0.00043         *
 * In             12      0.00000(cons'd)     -0.00000(cons'd)      0.00043         *
 *                                                                                  *
 ************************************************************************************
  
 +------------+-------------+-------------+-----------------+ <-- min LBFGS
 |    Step    |   lambda    |   F.delta'  |    enthalpy     | <-- min LBFGS
 +------------+-------------+-------------+-----------------+ <-- min LBFGS
 |  previous  |    0.000000 |    0.035966 |   -23578.176745 | <-- min LBFGS
 | trial step |    1.000000 |    0.001286 |   -23578.176775 | <-- min LBFGS
 +------------+-------------+-------------+-----------------+ <-- min LBFGS
  
 LBFGS: finished iteration     3 with enthalpy= -2.35781768E+004 eV
  
 +-----------+-----------------+-----------------+------------+-----+ <-- LBFGS
 | Parameter |      value      |    tolerance    |    units   | OK? | <-- LBFGS
 +-----------+-----------------+-----------------+------------+-----+ <-- LBFGS
 |  dE/ion   |   1.249120E-006 |   2.000000E-005 |         eV | Yes | <-- LBFGS
 |  |F|max   |   1.367370E-003 |   1.000000E-003 |       eV/A | No  | <-- LBFGS
 |  |dR|max  |   9.926124E-004 |   1.000000E-003 |          A | Yes | <-- LBFGS
 +-----------+-----------------+-----------------+------------+-----+ <-- LBFGS
  

================================================================================
 Starting LBFGS iteration          4 ...
================================================================================
  
 +------------+-------------+-------------+-----------------+ <-- min LBFGS
 |    Step    |   lambda    |   F.delta'  |    enthalpy     | <-- min LBFGS
 +------------+-------------+-------------+-----------------+ <-- min LBFGS
 |  previous  |    0.000000 |    0.001916 |   -23578.176775 | <-- min LBFGS
 +------------+-------------+-------------+-----------------+ <-- min LBFGS
  

--------------------------------------------------------------------------------
 LBFGS: starting iteration         4 with trial guess (lambda=  1.000000)
--------------------------------------------------------------------------------

                           -------------------------------
                                     Cell Contents
                           -------------------------------

            xxxxxxxxxxxxxxxxxxxxxxxxxxxxxxxxxxxxxxxxxxxxxxxxxxxxxxxxxxxxxxxxx
            x  Element         Atom        Fractional coordinates of atoms  x
            x                 Number           u          v          w      x
            x---------------------------------------------------------------x
            x  P                 1         0.500000  -0.188640   0.377279   x
            x  P                 2         0.000000   0.270617   0.458767   x
            x  P                 3         0.000000   0.352082   0.295836   x
            x  P                 4         0.500000  -0.270101   0.540203   x
            x  P                 5         0.000000   0.189188   0.621623   x
            x  P                 6         0.500000  -0.107198   0.214396   x
            x  P                 7         0.500000  -0.351541   0.703083   x
            x  P                 8         0.000000   0.107734   0.784531   x
            x  P                 9         0.000000   0.433542   0.132916   x
            x  P                10         0.500000  -0.433004   0.866008   x
            x  P                11         0.000000   0.027419   0.945161   x
            x  P                12         0.500000  -0.025583   0.051165   x
            x  In                1         0.500000   0.290843   0.418314   x
            x  In                2         0.500000   0.127952   0.744095   x
            x  In                3         0.000000  -0.331319   0.662639   x
            x  In                4         0.500000   0.209400   0.581199   x
            x  In                5         0.000000  -0.249885   0.499770   x
            x  In                6         0.000000  -0.412776   0.825552   x
            x  In                7         0.000000  -0.168429   0.336859   x
            x  In                8         0.500000   0.046229   0.907542   x
            x  In                9         0.000000  -0.086997   0.173995   x
            x  In               10         0.500000   0.453704   0.092593   x
            x  In               11         0.000000  -0.005524   0.011048   x
            x  In               12         0.500000   0.372287   0.255426   x
            xxxxxxxxxxxxxxxxxxxxxxxxxxxxxxxxxxxxxxxxxxxxxxxxxxxxxxxxxxxxxxxxx


------------------------------------------------------------------------ <-- SCF
SCF loop      Energy           Fermi           Energy gain       Timer   <-- SCF
                               energy          per atom          (sec)   <-- SCF
------------------------------------------------------------------------ <-- SCF
Initial  -2.35781624E+004  0.00000000E+000                      2679.23  <-- SCF
      1  -2.35781768E+004  3.87990574E+000   5.98948263E-004    2721.58  <-- SCF
      2  -2.35781768E+004  3.87990574E+000   2.33296525E-007    2762.64  <-- SCF
      3  -2.35781768E+004  3.87992469E+000   1.58378224E-009    2788.16  <-- SCF
      4  -2.35781768E+004  3.87995125E+000   2.80355366E-010    2814.83  <-- SCF
------------------------------------------------------------------------ <-- SCF
 
Final energy, E             =  -23578.16275453     eV
Final free energy (E-TS)    =  -23578.17677566     eV
(energies not corrected for finite basis set)
 
NB est. 0K energy (E-0.5TS)      =  -23578.16976510     eV
 

 ******************************** Constrained Forces ********************************
 *                                                                                  *
 *                           Cartesian components (eV/A)                            *
 * -------------------------------------------------------------------------------- *
 *                         x                    y                    z              *
 *                                                                                  *
 * P               1      0.00000(cons'd)      0.00000(cons'd)      0.00047         *
 * P               2      0.00000(cons'd)      0.00000(cons'd)      0.00059         *
 * P               3      0.00000(cons'd)      0.00000(cons'd)      0.00026         *
 * P               4     -0.00000(cons'd)      0.00000(cons'd)      0.00034         *
 * P               5      0.00000(cons'd)     -0.00000(cons'd)      0.00008         *
 * P               6     -0.00000(cons'd)      0.00000(cons'd)      0.00008         *
 * P               7     -0.00000(cons'd)      0.00000(cons'd)     -0.00033         *
 * P               8      0.00000(cons'd)      0.00000(cons'd)     -0.00053         *
 * P               9      0.00000(cons'd)      0.00000(cons'd)     -0.00006         *
 * P              10     -0.00000(cons'd)      0.00000(cons'd)     -0.00055         *
 * P              11      0.00000(cons'd)      0.00000(cons'd)     -0.00062         *
 * P              12     -0.00000(cons'd)      0.00000(cons'd)     -0.00014         *
 * In              1      0.00000(cons'd)      0.00000(cons'd)     -0.00022         *
 * In              2      0.00000(cons'd)     -0.00000(cons'd)      0.00016         *
 * In              3      0.00000(cons'd)      0.00000(cons'd)     -0.00007         *
 * In              4      0.00000(cons'd)     -0.00000(cons'd)     -0.00034         *
 * In              5      0.00000(cons'd)      0.00000(cons'd)     -0.00021         *
 * In              6      0.00000(cons'd)      0.00000(cons'd)      0.00070         *
 * In              7      0.00000(cons'd)      0.00000(cons'd)     -0.00038         *
 * In              8      0.00000(cons'd)      0.00000(cons'd)      0.00102         *
 * In              9      0.00000(cons'd)      0.00000(cons'd)     -0.00022         *
 * In             10      0.00000(cons'd)      0.00000(cons'd)      0.00029         *
 * In             11      0.00000(cons'd)      0.00000(cons'd)      0.00012         *
 * In             12      0.00000(cons'd)      0.00000(cons'd)     -0.00042         *
 *                                                                                  *
 ************************************************************************************
  
 +------------+-------------+-------------+-----------------+ <-- min LBFGS
 |    Step    |   lambda    |   F.delta'  |    enthalpy     | <-- min LBFGS
 +------------+-------------+-------------+-----------------+ <-- min LBFGS
 |  previous  |    0.000000 |    0.001916 |   -23578.176775 | <-- min LBFGS
 | trial step |    1.000000 |    0.000213 |   -23578.176776 | <-- min LBFGS
 +------------+-------------+-------------+-----------------+ <-- min LBFGS
  
 LBFGS: finished iteration     4 with enthalpy= -2.35781768E+004 eV
  
 +-----------+-----------------+-----------------+------------+-----+ <-- LBFGS
 | Parameter |      value      |    tolerance    |    units   | OK? | <-- LBFGS
 +-----------+-----------------+-----------------+------------+-----+ <-- LBFGS
 |  dE/ion   |   2.319796E-008 |   2.000000E-005 |         eV | Yes | <-- LBFGS
 |  |F|max   |   1.015445E-003 |   1.000000E-003 |       eV/A | No  | <-- LBFGS
 |  |dR|max  |   3.323039E-004 |   1.000000E-003 |          A | Yes | <-- LBFGS
 +-----------+-----------------+-----------------+------------+-----+ <-- LBFGS
  

================================================================================
 Starting LBFGS iteration          5 ...
================================================================================
  
 +------------+-------------+-------------+-----------------+ <-- min LBFGS
 |    Step    |   lambda    |   F.delta'  |    enthalpy     | <-- min LBFGS
 +------------+-------------+-------------+-----------------+ <-- min LBFGS
 |  previous  |    0.000000 |    0.001260 |   -23578.176776 | <-- min LBFGS
 +------------+-------------+-------------+-----------------+ <-- min LBFGS
  

--------------------------------------------------------------------------------
 LBFGS: starting iteration         5 with trial guess (lambda=  1.000000)
--------------------------------------------------------------------------------

                           -------------------------------
                                     Cell Contents
                           -------------------------------

            xxxxxxxxxxxxxxxxxxxxxxxxxxxxxxxxxxxxxxxxxxxxxxxxxxxxxxxxxxxxxxxxx
            x  Element         Atom        Fractional coordinates of atoms  x
            x                 Number           u          v          w      x
            x---------------------------------------------------------------x
            x  P                 1         0.500000  -0.188641   0.377282   x
            x  P                 2         0.000000   0.270615   0.458771   x
            x  P                 3         0.000000   0.352082   0.295837   x
            x  P                 4         0.500000  -0.270103   0.540205   x
            x  P                 5         0.000000   0.189188   0.621623   x
            x  P                 6         0.500000  -0.107198   0.214395   x
            x  P                 7         0.500000  -0.351540   0.703081   x
            x  P                 8         0.000000   0.107736   0.784529   x
            x  P                 9         0.000000   0.433543   0.132915   x
            x  P                10         0.500000  -0.433003   0.866006   x
            x  P                11         0.000000   0.027420   0.945161   x
            x  P                12         0.500000  -0.025582   0.051164   x
            x  In                1         0.500000   0.290842   0.418317   x
            x  In                2         0.500000   0.127953   0.744094   x
            x  In                3         0.000000  -0.331319   0.662638   x
            x  In                4         0.500000   0.209400   0.581199   x
            x  In                5         0.000000  -0.249886   0.499772   x
            x  In                6         0.000000  -0.412776   0.825552   x
            x  In                7         0.000000  -0.168430   0.336860   x
            x  In                8         0.500000   0.046228   0.907543   x
            x  In                9         0.000000  -0.086997   0.173993   x
            x  In               10         0.500000   0.453704   0.092593   x
            x  In               11         0.000000  -0.005524   0.011048   x
            x  In               12         0.500000   0.372288   0.255425   x
            xxxxxxxxxxxxxxxxxxxxxxxxxxxxxxxxxxxxxxxxxxxxxxxxxxxxxxxxxxxxxxxxx


------------------------------------------------------------------------ <-- SCF
SCF loop      Energy           Fermi           Energy gain       Timer   <-- SCF
                               energy          per atom          (sec)   <-- SCF
------------------------------------------------------------------------ <-- SCF
Initial  -2.35781629E+004  0.00000000E+000                      2860.88  <-- SCF
      1  -2.35781768E+004  3.87993160E+000   5.79893428E-004    2901.29  <-- SCF
      2  -2.35781768E+004  3.87993159E+000   1.71079934E-008    2930.90  <-- SCF
      3  -2.35781768E+004  3.87993101E+000   1.59963682E-010    2956.38  <-- SCF
      4  -2.35781768E+004  3.87992549E+000  -1.41363554E-009    2984.31  <-- SCF
------------------------------------------------------------------------ <-- SCF
 
Final energy, E             =  -23578.16275384     eV
Final free energy (E-TS)    =  -23578.17677554     eV
(energies not corrected for finite basis set)
 
NB est. 0K energy (E-0.5TS)      =  -23578.16976469     eV
 

 ******************************** Constrained Forces ********************************
 *                                                                                  *
 *                           Cartesian components (eV/A)                            *
 * -------------------------------------------------------------------------------- *
 *                         x                    y                    z              *
 *                                                                                  *
 * P               1     -0.00000(cons'd)      0.00000(cons'd)     -0.00043         *
 * P               2      0.00000(cons'd)      0.00000(cons'd)     -0.00043         *
 * P               3      0.00000(cons'd)      0.00000(cons'd)     -0.00039         *
 * P               4      0.00000(cons'd)     -0.00000(cons'd)     -0.00047         *
 * P               5      0.00000(cons'd)      0.00000(cons'd)     -0.00029         *
 * P               6     -0.00000(cons'd)      0.00000(cons'd)     -0.00003         *
 * P               7      0.00000(cons'd)      0.00000(cons'd)     -0.00003         *
 * P               8      0.00000(cons'd)      0.00000(cons'd)      0.00037         *
 * P               9      0.00000(cons'd)     -0.00000(cons'd)      0.00041         *
 * P              10     -0.00000(cons'd)      0.00000(cons'd)      0.00075         *
 * P              11      0.00000(cons'd)      0.00000(cons'd)     -0.00010         *
 * P              12     -0.00000(cons'd)      0.00000(cons'd)      0.00034         *
 * In              1      0.00000(cons'd)      0.00000(cons'd)      0.00033         *
 * In              2      0.00000(cons'd)      0.00000(cons'd)     -0.00003         *
 * In              3      0.00000(cons'd)      0.00000(cons'd)      0.00032         *
 * In              4      0.00000(cons'd)      0.00000(cons'd)      0.00032         *
 * In              5      0.00000(cons'd)     -0.00000(cons'd)      0.00028         *
 * In              6      0.00000(cons'd)      0.00000(cons'd)     -0.00048         *
 * In              7      0.00000(cons'd)      0.00000(cons'd)      0.00012         *
 * In              8      0.00000(cons'd)     -0.00000(cons'd)     -0.00100         *
 * In              9      0.00000(cons'd)      0.00000(cons'd)      0.00025         *
 * In             10      0.00000(cons'd)      0.00000(cons'd)     -0.00059         *
[...]
            x  P                 7         0.500000  -0.351540   0.703081   x
            x  P                 8         0.000000   0.107736   0.784529   x
            x  P                 9         0.000000   0.433543   0.132915   x
            x  P                10         0.500000  -0.433003   0.866006   x
            x  P                11         0.000000   0.027420   0.945161   x
            x  P                12         0.500000  -0.025582   0.051164   x
            x  In                1         0.500000   0.290842   0.418317   x
            x  In                2         0.500000   0.127953   0.744094   x
            x  In                3         0.000000  -0.331319   0.662638   x
            x  In                4         0.500000   0.209400   0.581199   x
            x  In                5         0.000000  -0.249886   0.499772   x
            x  In                6         0.000000  -0.412776   0.825552   x
            x  In                7         0.000000  -0.168430   0.336860   x
            x  In                8         0.500000   0.046228   0.907543   x
            x  In                9         0.000000  -0.086997   0.173993   x
            x  In               10         0.500000   0.453704   0.092593   x
            x  In               11         0.000000  -0.005524   0.011048   x
            x  In               12         0.500000   0.372288   0.255425   x
            xxxxxxxxxxxxxxxxxxxxxxxxxxxxxxxxxxxxxxxxxxxxxxxxxxxxxxxxxxxxxxxxx


 LBFGS: Final Enthalpy     = -2.35781768E+004 eV
 LBFGS: Final <frequency>  =     259.66950 cm-1

 ******************* Unconstrained Forces *******************
 *                                                          *
 *               Cartesian components (eV/A)                *
 * -------------------------------------------------------- *
 *                         x            y            z      *
 *                                                          *
 * P               1      0.00000     -0.00013     -0.00043 *
 * P               2     -0.00000     -0.00510     -0.00043 *
 * P               3     -0.00000      0.00378     -0.00039 *
 * P               4      0.00000      0.00287     -0.00047 *
 * P               5     -0.00000      0.00133     -0.00029 *
 * P               6      0.00000     -0.00538     -0.00003 *
 * P               7      0.00000     -0.00527     -0.00003 *
 * P               8     -0.00000      0.00377      0.00037 *
 * P               9     -0.00000      0.00112      0.00041 *
 * P              10      0.00000     -0.00016      0.00075 *
 * P              11     -0.00001     -0.00410     -0.00010 *
 * P              12      0.00000      0.00270      0.00034 *
 * In              1      0.00000      0.00021      0.00033 *
 * In              2      0.00000      0.00064     -0.00003 *
 * In              3     -0.00000      0.00020      0.00032 *
 * In              4      0.00000      0.00033      0.00032 *
 * In              5     -0.00000      0.00064      0.00028 *
 * In              6     -0.00000      0.00031     -0.00048 *
 * In              7     -0.00000      0.00031      0.00012 *
 * In              8      0.00001      0.00019     -0.00100 *
 * In              9     -0.00000      0.00021      0.00025 *
 * In             10      0.00000      0.00028     -0.00059 *
 * In             11     -0.00000      0.00060      0.00012 *
 * In             12      0.00000      0.00064      0.00067 *
 *                                                          *
 ************************************************************

 ******************************** Constrained Forces ********************************
 *                                                                                  *
 *                           Cartesian components (eV/A)                            *
 * -------------------------------------------------------------------------------- *
 *                         x                    y                    z              *
 *                                                                                  *
 * P               1     -0.00000(cons'd)      0.00000(cons'd)     -0.00043         *
 * P               2      0.00000(cons'd)      0.00000(cons'd)     -0.00043         *
 * P               3      0.00000(cons'd)     -0.00000(cons'd)     -0.00039         *
 * P               4      0.00000(cons'd)     -0.00000(cons'd)     -0.00047         *
 * P               5      0.00000(cons'd)      0.00000(cons'd)     -0.00029         *
 * P               6     -0.00000(cons'd)      0.00000(cons'd)     -0.00003         *
 * P               7     -0.00000(cons'd)      0.00000(cons'd)     -0.00003         *
 * P               8      0.00000(cons'd)     -0.00000(cons'd)      0.00037         *
 * P               9      0.00000(cons'd)     -0.00000(cons'd)      0.00041         *
 * P              10      0.00000(cons'd)      0.00000(cons'd)      0.00075         *
 * P              11      0.00000(cons'd)      0.00000(cons'd)     -0.00010         *
 * P              12      0.00000(cons'd)     -0.00000(cons'd)      0.00034         *
 * In              1      0.00000(cons'd)      0.00000(cons'd)      0.00033         *
 * In              2      0.00000(cons'd)      0.00000(cons'd)     -0.00003         *
 * In              3      0.00000(cons'd)      0.00000(cons'd)      0.00032         *
 * In              4      0.00000(cons'd)      0.00000(cons'd)      0.00032         *
 * In              5      0.00000(cons'd)      0.00000(cons'd)      0.00028         *
 * In              6      0.00000(cons'd)      0.00000(cons'd)     -0.00048         *
 * In              7      0.00000(cons'd)      0.00000(cons'd)      0.00012         *
 * In              8      0.00000(cons'd)     -0.00000(cons'd)     -0.00100         *
 * In              9      0.00000(cons'd)      0.00000(cons'd)      0.00025         *
 * In             10      0.00000(cons'd)      0.00000(cons'd)     -0.00059         *
 * In             11      0.00000(cons'd)      0.00000(cons'd)      0.00012         *
 * In             12      0.00000(cons'd)      0.00000(cons'd)      0.00067         *
 *                                                                                  *
 ************************************************************************************

 Pseudo atomic calculation performed for P 3s2 3p3

 Converged in 23 iterations to a total energy of -208.0292 eV

 Pseudo atomic calculation performed for In 4d10 5s2 5p1

 Converged in 42 iterations to a total energy of -1747.4501 eV
Charge spilling parameter for spin component 1 = 0.17%

            Orbital Populations       
     Ion    Atom   Orbital             Charge
  -------------------------------------------
      P     1      S                    1.729
      P     1      Px                   1.306
      P     1      Py                   1.325
      P     1      Pz                   1.321
      P     2      S                    1.729
      P     2      Px                   1.306
      P     2      Py                   1.324
      P     2      Pz                   1.321
      P     3      S                    1.729
      P     3      Px                   1.306
      P     3      Py                   1.325
      P     3      Pz                   1.320
      P     4      S                    1.729
      P     4      Px                   1.306
      P     4      Py                   1.324
      P     4      Pz                   1.321
      P     5      S                    1.729
      P     5      Px                   1.306
      P     5      Py                   1.324
      P     5      Pz                   1.321
      P     6      S                    1.729
      P     6      Px                   1.305
      P     6      Py                   1.325
      P     6      Pz                   1.320
      P     7      S                    1.729
      P     7      Px                   1.306
      P     7      Py                   1.324
      P     7      Pz                   1.320
      P     8      S                    1.728
      P     8      Px                   1.306
      P     8      Py                   1.323
      P     8      Pz                   1.320
      P     9      S                    1.730
      P     9      Px                   1.305
      P     9      Py                   1.325
      P     9      Pz                   1.320
      P    10      S                    1.733
      P    10      Px                   1.301
      P    10      Py                   1.317
      P    10      Pz                   1.320
      P    11      S                    1.700
      P    11      Px                   1.301
      P    11      Py                   1.493
      P    11      Pz                   1.174
      P    12      S                    1.737
      P    12      Px                   1.292
      P    12      Py                   1.319
      P    12      Pz                   1.332
     In     1      Dzz                  1.999
     In     1      Dzy                  1.997
     In     1      Dzx                  1.997
     In     1      Dxx-yy               1.997
     In     1      Dxy                  1.999
     In     1      S                    1.432
     In     1      Px                   0.495
     In     1      Py                   0.481
     In     1      Pz                   0.478
     In     1      S                   -0.559
     In     2      Dzz                  1.999
     In     2      Dzy                  1.997
     In     2      Dzx                  1.997
     In     2      Dxx-yy               1.997
     In     2      Dxy                  1.999
     In     2      S                    1.424
     In     2      Px                   0.493
     In     2      Py                   0.479
     In     2      Pz                   0.475
     In     2      S                   -0.549
     In     3      Dzz                  1.999
     In     3      Dzy                  1.997
     In     3      Dzx                  1.997
     In     3      Dxx-yy               1.997
     In     3      Dxy                  1.999
     In     3      S                    1.426
     In     3      Px                   0.494
     In     3      Py                   0.481
     In     3      Pz                   0.477
     In     3      S                   -0.554
     In     4      Dzz                  1.999
     In     4      Dzy                  1.997
     In     4      Dzx                  1.997
     In     4      Dxx-yy               1.997
     In     4      Dxy                  1.999
     In     4      S                    1.431
     In     4      Px                   0.495
     In     4      Py                   0.481
     In     4      Pz                   0.478
     In     4      S                   -0.561
     In     5      Dzz                  1.999
     In     5      Dzy                  1.997
     In     5      Dzx                  1.997
     In     5      Dxx-yy               1.997
     In     5      Dxy                  1.999
     In     5      S                    1.432
     In     5      Px                   0.495
     In     5      Py                   0.481
     In     5      Pz                   0.478
     In     5      S                   -0.558
     In     6      Dzz                  1.999
     In     6      Dzy                  1.997
     In     6      Dzx                  1.997
     In     6      Dxx-yy               1.997
     In     6      Dxy                  1.999
     In     6      S                    1.416
     In     6      Px                   0.496
     In     6      Py                   0.483
     In     6      Pz                   0.474
     In     6      S                   -0.554
     In     7      Dzz                  1.999
     In     7      Dzy                  1.997
     In     7      Dzx                  1.997
     In     7      Dxx-yy               1.997
     In     7      Dxy                  1.999
     In     7      S                    1.433
     In     7      Px                   0.495
     In     7      Py                   0.481
     In     7      Pz                   0.478
     In     7      S                   -0.559
     In     8      Dzz                  1.999
     In     8      Dzy                  1.997
     In     8      Dzx                  1.996
     In     8      Dxx-yy               1.996
     In     8      Dxy                  1.999
     In     8      S                    1.477
     In     8      Px                   0.469
     In     8      Py                   0.499
     In     8      Pz                   0.479
     In     8      S                   -0.573
     In     9      Dzz                  1.999
     In     9      Dzy                  1.997
     In     9      Dzx                  1.997
     In     9      Dxx-yy               1.997
     In     9      Dxy                  1.999
     In     9      S                    1.427
     In     9      Px                   0.492
     In     9      Py                   0.479
     In     9      Pz                   0.475
     In     9      S                   -0.558
     In    10      Dzz                  1.999
     In    10      Dzy                  1.997
     In    10      Dzx                  1.997
     In    10      Dxx-yy               1.997
     In    10      Dxy                  1.999
     In    10      S                    1.417
     In    10      Px                   0.494
     In    10      Py                   0.479
     In    10      Pz                   0.465
     In    10      S                   -0.522
     In    11      Dzz                  1.993
     In    11      Dzy                  1.999
     In    11      Dzx                  1.997
     In    11      Dxx-yy               1.997
     In    11      Dxy                  1.999
     In    11      S                    1.513
     In    11      Px                   0.452
     In    11      Py                   0.504
     In    11      Pz                   0.525
     In    11      S                   -0.568
     In    12      Dzz                  1.999
     In    12      Dzy                  1.997
     In    12      Dzx                  1.997
     In    12      Dxx-yy               1.997
     In    12      Dxy                  1.999
     In    12      S                    1.424
     In    12      Px                   0.495
     In    12      Py                   0.481
     In    12      Pz                   0.477
     In    12      S                   -0.559
  -------------------------------------------
                           Total:     216.000
  -------------------------------------------

     Atomic Populations (Mulliken)
     -----------------------------
Species          Ion     s       p       d       f      Total   Charge (e)
==========================================================================
  P               1     1.729   3.951   0.000   0.000   5.680    -0.680
  P               2     1.729   3.952   0.000   0.000   5.680    -0.680
  P               3     1.729   3.951   0.000   0.000   5.680    -0.680
  P               4     1.729   3.952   0.000   0.000   5.680    -0.680
  P               5     1.729   3.951   0.000   0.000   5.680    -0.680
  P               6     1.729   3.950   0.000   0.000   5.679    -0.679
  P               7     1.729   3.951   0.000   0.000   5.679    -0.679
  P               8     1.728   3.949   0.000   0.000   5.677    -0.677
  P               9     1.730   3.949   0.000   0.000   5.679    -0.679
  P              10     1.733   3.938   0.000   0.000   5.671    -0.671
  P              11     1.700   3.968   0.000   0.000   5.668    -0.668
  P              12     1.737   3.943   0.000   0.000   5.680    -0.680
  In              1     0.873   1.453   9.988   0.000  12.315     0.685
  In              2     0.875   1.448   9.988   0.000  12.311     0.689
  In              3     0.872   1.453   9.988   0.000  12.314     0.686
  In              4     0.870   1.454   9.988   0.000  12.313     0.687
  In              5     0.874   1.454   9.988   0.000  12.316     0.684
  In              6     0.862   1.453   9.988   0.000  12.304     0.696
  In              7     0.873   1.454   9.988   0.000  12.315     0.685
  In              8     0.904   1.446   9.987   0.000  12.338     0.662
  In              9     0.869   1.446   9.988   0.000  12.303     0.697
  In             10     0.895   1.438   9.989   0.000  12.322     0.678
  In             11     0.944   1.481   9.985   0.000  12.410     0.590
  In             12     0.865   1.453   9.988   0.000  12.306     0.694
==========================================================================

                 Bond                   Population      Length (A)
======================================================================
              P 11 -- In 11                  0.94        2.33291
              P 11 -- In 8                   1.37        2.47532
              P 12 -- In 11                  1.10        2.52403
              P 9  -- In 10                  1.23        2.52813
              P 6  -- In 9                   1.22        2.52974
              P 3  -- In 12                  1.21        2.52994
              P 1  -- In 7                   1.20        2.53015
              P 5  -- In 4                   1.20        2.53018
              P 4  -- In 5                   1.20        2.53037
              P 8  -- In 2                   1.22        2.53040
              P 7  -- In 3                   1.18        2.53056
              P 2  -- In 1                   1.20        2.53078
              P 10 -- In 6                   1.25        2.53078
              P 4  -- In 4                   1.15        2.54164
              P 2  -- In 5                   1.14        2.54180
              P 7  -- In 2                   1.16        2.54203
              P 5  -- In 3                   1.14        2.54206
              P 3  -- In 7                   1.13        2.54223
              P 8  -- In 6                   1.16        2.54224
              P 6  -- In 12                  1.12        2.54237
              P 1  -- In 1                   1.14        2.54247
              P 9  -- In 9                   1.11        2.54336
              P 12 -- In 10                  1.13        2.55047
              P 10 -- In 8                   1.06        2.55268
======================================================================

 Hirshfeld supercell size:           4           4           1
Standard grid dimensions: 180 180 360
Fine grid dimensions:     180 180 360


     Hirshfeld Analysis
     ------------------
Species   Ion     Hirshfeld Charge (e)
======================================
  P        1                -0.24
  P        2                -0.24
  P        3                -0.24
  P        4                -0.24
  P        5                -0.24
  P        6                -0.24
  P        7                -0.24
  P        8                -0.24
  P        9                -0.24
  P       10                -0.23
  P       11                -0.27
  P       12                -0.23
  In       1                 0.24
  In       2                 0.24
  In       3                 0.24
  In       4                 0.24
  In       5                 0.24
  In       6                 0.24
  In       7                 0.24
  In       8                 0.25
  In       9                 0.24
  In      10                 0.23
  In      11                 0.25
  In      12                 0.24
======================================

 
 A BibTeX formatted list of references used in this run has been written to 
 StackingFaultStructs_001_110_4.bib
 
Initialisation time =     22.86 s
Calculation time    =   3109.63 s
Finalisation time   =     62.76 s
Total time          =   3195.25 s
Peak Memory Use     = 9992800 kB
 
Overall parallel efficiency rating: Very good (82%)
 
Data was distributed by:-
k-point (84-way); efficiency rating: Very good (83%)
