 +-------------------------------------------------+
 |                                                 |
 |      CCC   AA    SSS  TTTTT  EEEEE  PPPP        |
 |     C     A  A  S       T    E      P   P       |
 |     C     AAAA   SS     T    EEE    PPPP        |
 |     C     A  A     S    T    E      P           |
 |      CCC  A  A  SSS     T    EEEEE  P           |
 |                                                 |
 +-------------------------------------------------+
 |                                                 |
 | Welcome to Academic Release CASTEP version 22.11|
 | Ab Initio Total Energy Program                  |
 |                                                 |
 | Authors:                                        |
 | M. Segall, M. Probert, C. Pickard, P. Hasnip,   |
 | S. Clark, K. Refson, J. R. Yates, M. Payne      |
 |                                                 |
 | Contributors:                                   |
 | P. Lindan, P. Haynes, J. White, V. Milman,      |
 | N. Govind, M. Gibson, P. Tulip, V. Cocula,      |
 | B. Montanari, D. Quigley, M. Glover,            |
 | L. Bernasconi, A. Perlov, M. Plummer,           |
 | E. McNellis, J. Meyer, J. Gale, D. Jochym       |
 | J. Aarons, B. Walker, R. Gillen, D. Jones       |
 | T. Green, I. J. Bush, C. J. Armstrong,          |
 | E. J. Higgins, E. L. Brown, M. S. McFly,        |
 | J. Wilkins, B-C. Shih, P. J. P. Byrne,          |
 | R. J. Maurer, J. C. Womack, J. Dziedzic,        |
 | A. Bartok-Partay, L. LeBlanc, T. K. Stenczel,   |
 | J. Kermode, S. Sturniolo, B. Shi, B. Durham     |
 | M. Evans, M. J. Smith                           |
 |                                                 |
 | Copyright (c) 2000 - 2021                       |
 |                                                 |
 |     Distributed under license from Cambridge    |
 |     Enterprise for academic use only.           |
 |                                                 |
 | Please cite                                     |
 |                                                 |
 |     "First principles methods using CASTEP"     |
 |                                                 |
 |         Zeitschrift fuer Kristallographie       |
 |           220(5-6) pp. 567-570 (2005)           |
 |                                                 |
 | S. J. Clark, M. D. Segall, C. J. Pickard,       |
 | P. J. Hasnip, M. J. Probert, K. Refson,         |
 | M. C. Payne                                     |
 |                                                 |
 |       in all publications arising from          |
 |              your use of CASTEP                 |
 |                                                 |
 +-------------------------------------------------+
 |                                                 |
 |              http://www.castep.org              |
 |                                                 |
 +-------------------------------------------------+



 Compiled for linux_x86_64_gfortran10-XT on Thu, 16 Mar 2023 13:12:36 +0000
 from code version Version unavailable
 Compiler: GNU Fortran 11.2.0; Optimisation: fast
 MATHLIBS: LibSci (LAPACK version 3.10.1)
 FFT Lib : fftw3 version commercial-fftw-3.3.10-sse2-avx-avx2-avx2_128
 Fundamental constants values: CODATA 2014

 Run started: Mon, 25 Mar 2024 17:34:21 +0000

 Atomic calculation performed for P: 1s2 2s2 2p6 3s2 3p3

 Converged in 47 iterations to an ae energy of -9309.074 eV

   ============================================================                
   | Pseudopotential Report - Date of generation 25-03-2024   |                
   ------------------------------------------------------------                
   | Element: P Ionic charge:  5.00 Level of theory: RSCAN    |                
   | Atomic Solver: Koelling-Harmon                           |                
   |                                                          |                
   |               Reference Electronic Structure             |                
   |         Orbital         Occupation         Energy        |                
   |            3s              2.000           -0.535        |                
   |            3p              3.000           -0.209        |                
   |                                                          |                
   |                 Pseudopotential Definition               |                
   |        Beta     l      e      Rc     scheme   norm       |                
   |          1      0   -0.535   1.807     qc      0         |                
   |          2      0    0.250   1.807     qc      0         |                
   |          3      1   -0.209   1.807     qc      0         |                
   |          4      1    0.250   1.807     qc      0         |                
   |          5      2    0.000   1.807     qc      0         |                
   |          6      2    0.250   1.807     qc      0         |                
   |         loc     3    0.000   1.807     pn      0         |                
   |                                                          |                
   | Augmentation charge Rinner = 1.263                       |                
   | Partial core correction Rc = 1.263                       |                
   ------------------------------------------------------------                
   | "3|1.8|4|4|5|30:31:32"                                   |                
   ------------------------------------------------------------                
   |      Author: Chris J. Pickard, Cambridge University      |                
   ============================================================                
 Warning: otfg_output_psp cannot write out meta-GGA pseudopotentials presently.

 Atomic calculation performed for In:
 1s2 2s2 2p6 3s2 3p6 3d10 4s2 4p6 4d10 5s2 5p1

 Converged in 84 iterations to an ae energy of -160093.327 eV

   ============================================================                
   | Pseudopotential Report - Date of generation 25-03-2024   |                
   ------------------------------------------------------------                
   | Element: In Ionic charge: 13.00 Level of theory: RSCAN   |                
   | Atomic Solver: Koelling-Harmon                           |                
   |                                                          |                
   |               Reference Electronic Structure             |                
   |         Orbital         Occupation         Energy        |                
   |            4d             10.000           -0.711        |                
   |            5s              2.000           -0.313        |                
   |            5p              1.000           -0.095        |                
   |                                                          |                
   |                 Pseudopotential Definition               |                
   |        Beta     l      e      Rc     scheme   norm       |                
   |          1      0   -0.313   2.501     qc      0         |                
   |          2      0    0.250   2.501     qc      0         |                
   |          3      1   -0.095   2.501     qc      0         |                
   |          4      1    0.250   2.501     qc      0         |                
   |          5      2   -0.711   2.207     qc      0         |                
   |          6      2    0.250   2.207     qc      0         |                
   |         loc     3    0.000   2.501     pn      0         |                
   |                                                          |                
   | Augmentation charge Rinner = 1.504                       |                
   | Partial core correction Rc = 1.504                       |                
   ------------------------------------------------------------                
   | "3|2.5|2.5|1.5|7|8|9|50:51:42U2.2U2.2"                   |                
   ------------------------------------------------------------                
   |      Author: Chris J. Pickard, Cambridge University      |                
   ============================================================                
 Warning: otfg_output_psp cannot write out meta-GGA pseudopotentials presently.

 Pseudo atomic calculation performed for P 3s2 3p3

 Converged in 23 iterations to a total energy of -208.0292 eV

 Pseudo atomic calculation performed for In 4d10 5s2 5p1

 Converged in 42 iterations to a total energy of -1747.4500 eV
 Calculation parallelised over 252 processes.
 Data is distributed by G-vector(7-way) and k-point(36-way)
 Each process may use up to 2 threads.

 ************************************ Title ************************************
 

 ***************************** General Parameters ******************************
  
 output verbosity                               : normal  (1)
 write checkpoint data to                       : StackingFaultStructs_(0_0_1)_(1_1_0)_1.check
 type of calculation                            : geometry optimization
 stress calculation                             : off
 density difference calculation                 : off
 electron localisation func (ELF) calculation   : off
 Hirshfeld analysis                             : on
 polarisation (Berry phase) analysis            : off
 molecular orbital projected DOS                : off
 deltaSCF calculation                           : off
 unlimited duration calculation
 timing information                             : on
 memory usage estimate                          : on
 write extra output files                       : on
 write final potential to formatted file        : off
 write final density to formatted file          : off
 write BibTeX reference list                    : on
 write OTFG pseudopotential files               : on
 write electrostatic potential file             : on
 write bands file                               : on
 checkpoint writing                             : off
  
 output         length unit                     : A
 output           mass unit                     : amu
 output           time unit                     : ps
 output         charge unit                     : e
 output           spin unit                     : hbar/2
 output         energy unit                     : eV
 output          force unit                     : eV/A
 output       velocity unit                     : A/ps
 output       pressure unit                     : GPa
 output     inv_length unit                     : 1/A
 output      frequency unit                     : cm-1
 output force constant unit                     : eV/A**2
 output         volume unit                     : A**3
 output   IR intensity unit                     : (D/A)**2/amu
 output         dipole unit                     : D
 output         efield unit                     : eV/A/e
 output        entropy unit                     : J/mol/K
 output    efield chi2 unit                     : pm/V
  
 wavefunctions paging                           : none
 random number generator seed                   : randomised (173422018)
 data distribution                              : optimal for this architecture
 optimization strategy                          : balance speed and memory

 *********************** Exchange-Correlation Parameters ***********************
  
 using functional                               : RSCAN
 relativistic treatment                         : Koelling-Harmon
 DFT+D: Semi-empirical dispersion correction    : off

 ************************* Pseudopotential Parameters **************************
  
 pseudopotential representation                 : reciprocal space
 <beta|phi> representation                      : reciprocal space
 spin-orbit coupling                            : off

 **************************** Basis Set Parameters *****************************
  
 plane wave basis set cut-off                   :   900.0000   eV
 size of standard grid                          :     2.0000
 size of   fine   gmax                          :    30.7390   1/A
 finite basis set correction                    : none

 **************************** Electronic Parameters ****************************
  
 number of  electrons                           :  288.0    
 net charge of system                           :  0.000    
 treating system as non-spin-polarized
 number of bands                                :        173

 ********************* Electronic Minimization Parameters **********************
  
 Method: Treating system as metallic with density mixing treatment of electrons,
         and number of  SD  steps               :          1
         and number of  CG  steps               :          4
  
 total energy / atom convergence tol.           : 0.1000E-07   eV
 eigen-energy convergence tolerance             : 0.2222E-08   eV
 max force / atom convergence tol.              : ignored
 convergence tolerance window                   :          3   cycles
 max. number of SCF cycles                      :         50
 number of fixed-spin iterations                :         10
 smearing scheme                                : Gaussian
 smearing width                                 : 0.2000       eV
 Fermi energy convergence tolerance             : 0.2721E-13   eV
 periodic dipole correction                     : NONE

 ************************** Density Mixing Parameters **************************
  
 density-mixing scheme                          : Pulay
 max. length of mixing history                  :         15
 charge density mixing amplitude                : 0.5000    
 cut-off energy for mixing                      :  900.0       eV

 *********************** Population Analysis Parameters ************************
  
 Population analysis with cutoff                :  3.000       A
 Population analysis output                     : summary and pdos components

 ********************** Geometry Optimization Parameters ***********************
  
 optimization method                            : LBFGS
 max. no. of LBFGS updates                      : unbounded
 preconditioned LBFGS is activated
 preconditioner type                            : EXP
     stabilization constant                     :     0.1000
     parameter A                                :     3.0000
     nearest neighbor distance                  : automatic
     cut-off distance                           : automatic
     parameter mu                               : automatic
 variable cell method                           : fixed basis quality
 max. number of steps                           :         30
 estimated bulk modulus                         :  500.0       GPa
 estimated <frequency>                          :  1668.       cm-1
 geom line minimiser                            : on
 with line minimiser tolerance                  :     0.4000
 total energy convergence tolerance             : 0.2000E-04   eV/atom
        max ionic |force| tolerance             : 0.1000E-02   eV/A
 max ionic |displacement| tolerance             : 0.1000E-02   A
   max |stress component| tolerance             : 0.1000       GPa
 convergence tolerance window                   :          2   steps
 backup results every                           :          5   steps
 write geom trajectory file                     : on

 *******************************************************************************
  

                           -------------------------------
                                      Unit Cell
                           -------------------------------
        Real Lattice(A)                      Reciprocal Lattice(1/A)
     8.3456610     0.0000000     0.0000000        0.752868503   0.000000000   0.000000000
     0.0000000     8.3456610     0.0000000        0.000000000   0.752868503  -0.030712958
     0.0000000     0.4814800    11.8025470        0.000000000   0.000000000   0.532358423

                       Lattice parameters(A)       Cell Angles
                    a =      8.345661          alpha =   87.663938
                    b =      8.345661          beta  =   90.000000
                    c =     11.812364          gamma =   90.000000

                       Current cell volume =           822.048078       A**3
                                   density =             2.837630   AMU/A**3
                                           =             4.711995     g/cm^3

                           -------------------------------
                                     Cell Contents
                           -------------------------------
                         Total number of ions in cell =   32
                      Total number of species in cell =    2
                        Max number of any one species =   16

            xxxxxxxxxxxxxxxxxxxxxxxxxxxxxxxxxxxxxxxxxxxxxxxxxxxxxxxxxxxx
            x  Element    Atom        Fractional coordinates of atoms  x
            x            Number           u          v          w      x
            x----------------------------------------------------------x
            x  P            1         0.500000   0.728279   0.376492   x 
            x  P            2         0.250000  -0.007533   0.130565   x 
            x  P            3         0.500000   0.700194   0.863306   x 
            x  P            4         0.500000   0.228279   0.376492   x 
            x  P            5         0.750000   0.464183   0.620829   x 
            x  P            6         0.000000   0.228279   0.376492   x 
            x  P            7         0.250000   0.492467   0.130565   x 
            x  P            8         0.250000   0.464183   0.620829   x 
            x  P            9         0.750000   0.492467   0.130565   x 
            x  P           10         0.000000   0.200194   0.863306   x 
            x  P           11         0.000000   0.728279   0.376492   x 
            x  P           12         0.500000   0.200194   0.863306   x 
            x  P           13         0.250000  -0.035817   0.620829   x 
            x  P           14         0.750000  -0.035817   0.620829   x 
            x  P           15         0.000000   0.700194   0.863306   x 
            x  P           16         0.750000  -0.007533   0.130565   x 
            x  In           1         0.250000   0.735305   0.254707   x 
            x  In           2         0.500000   0.471176   0.499625   x 
            x  In           3         0.750000   0.207044   0.744575   x 
            x  In           4         0.000000   0.471176   0.499625   x 
            x  In           5         0.250000   0.207044   0.744575   x 
            x  In           6         0.000000  -0.028825   0.499625   x 
            x  In           7         0.500000  -0.028825   0.499625   x 
            x  In           8         0.750000   0.707044   0.744575   x 
            x  In           9         0.750000   0.735305   0.254707   x 
            x  In          10         0.500000   0.499429   0.009900   x 
            x  In          11         0.750000   0.235305   0.254707   x 
            x  In          12         0.250000   0.707044   0.744575   x 
            x  In          13         0.000000   0.499429   0.009900   x 
            x  In          14         0.250000   0.235305   0.254707   x 
            x  In          15         0.000000  -0.000571   0.009900   x 
            x  In          16         0.500000  -0.000571   0.009900   x 
            xxxxxxxxxxxxxxxxxxxxxxxxxxxxxxxxxxxxxxxxxxxxxxxxxxxxxxxxxxxx


                         No user defined ionic velocities

                           -------------------------------
                                   Details of Species
                           -------------------------------

                               Mass of species in AMU
                                    P   30.9737600
                                    In  114.8180000

                          Electric Quadrupole Moment (Barn)
                                    P    1.0000000 No Isotope Defined
                                    In    0.7700000 Isotope115

                          Files used for pseudopotentials:
                                    P 3|1.8|4|4|5|30:31:32
                                    In 3|2.5|2.5|1.5|7|8|9|50:51:42U2.2U2.2

                           -------------------------------
                              k-Points For BZ Sampling
                           -------------------------------
                       MP grid size for SCF calculation is  4  4  4
                            with an offset of   0.125  0.125  0.125
                       Number of kpoints used =            36

                           -------------------------------
                               Symmetry and Constraints
                           -------------------------------

                      Cell is a supercell containing 4 primitive cells
                      Maximum deviation from symmetry =  0.00000         ANG

                      Number of symmetry operations   =           1
                      Number of ionic constraints     =          64
                      Point group of crystal =     1: C1, 1, 1
                      Space group of crystal =     6: Pm, P -2y

             Set iprint > 1 for details on symmetry rotations/translations

                         Centre of mass is NOT constrained
             Set iprint > 1 for details of linear ionic constraints

                         Number of cell constraints= 6
                         Cell constraints are:  0 0 0 0 0 0

                         External pressure/stress (GPa)
                          0.00000   0.00000   0.00000
                                    0.00000   0.00000
                                              0.00000
 
+---------------- MEMORY AND SCRATCH DISK ESTIMATES PER PROCESS --------------+
|                                                     Memory          Disk    |
| Baseline code, static data and system overhead      488.0 MB         0.0 MB |
| BLAS internal memory storage                          0.0 MB         0.0 MB |
| Model and support data                             1018.4 MB         0.0 MB |
| Electronic energy minimisation requirements         123.4 MB         0.0 MB |
| Force calculation requirements                       20.4 MB         0.0 MB |
|                                               ----------------------------- |
| Approx. total storage required per process         1629.8 MB         0.0 MB |
|                                                                             |
| Requirements will fluctuate during execution and may exceed these estimates |
+-----------------------------------------------------------------------------+
Calculating approximate eigenstates for fixed initial Hamiltonian
Cut-off for approx. calculation is  119.774 eV
Improving approx. states at cut-off of  450.000 eV
Resetting cut-off to  900.000 eV
Calculating total energy with cut-off of  900.000 eV.
------------------------------------------------------------------------ <-- SCF
SCF loop      Energy           Fermi           Energy gain       Timer   <-- SCF
                               energy          per atom          (sec)   <-- SCF
------------------------------------------------------------------------ <-- SCF
Initial  -3.15094114E+004  0.00000000E+000                        51.21  <-- SCF
      1  -3.14007381E+004  2.63480960E+000  -3.39603975E+000      77.37  <-- SCF
      2  -3.14007628E+004  2.63473563E+000   7.73190217E-004     100.72  <-- SCF
      3  -3.14336048E+004  2.96246431E+000   1.02631289E+000     125.84  <-- SCF
      4  -3.14392212E+004  3.03658073E+000   1.75511466E-001     155.25  <-- SCF
      5  -3.14361712E+004  3.39238517E+000  -9.53138331E-002     180.35  <-- SCF
      6  -3.14367150E+004  3.45115959E+000   1.69937012E-002     206.31  <-- SCF
      7  -3.14364984E+004  3.49672368E+000  -6.76642667E-003     232.36  <-- SCF
      8  -3.14373558E+004  3.54274619E+000   2.67936520E-002     257.51  <-- SCF
      9  -3.14373290E+004  3.50976732E+000  -8.38043171E-004     283.11  <-- SCF
     10  -3.14373328E+004  3.50770492E+000   1.18727923E-004     309.41  <-- SCF
     11  -3.14373376E+004  3.50372174E+000   1.48146999E-004     334.71  <-- SCF
     12  -3.14373381E+004  3.50278953E+000   1.61685961E-005     360.38  <-- SCF
     13  -3.14373381E+004  3.50362801E+000   3.02984875E-008     383.13  <-- SCF
     14  -3.14373381E+004  3.50349236E+000   1.88325719E-007     404.94  <-- SCF
     15  -3.14373381E+004  3.50344586E+000  -3.14771401E-010     423.26  <-- SCF
     16  -3.14373381E+004  3.50347526E+000   4.78286250E-009     441.50  <-- SCF
------------------------------------------------------------------------ <-- SCF
 
Final energy, E             =  -31437.33796396     eV
Final free energy (E-TS)    =  -31437.33807632     eV
(energies not corrected for finite basis set)
 
NB est. 0K energy (E-0.5TS)      =  -31437.33802014     eV
 
 
+---------------- MEMORY AND SCRATCH DISK ESTIMATES PER PROCESS --------------+
|                                                     Memory          Disk    |
| Model and support data                              657.5 MB         0.0 MB |
| Electronic energy minimisation requirements         123.4 MB         0.0 MB |
| Geometry minimisation requirements                  145.1 MB         0.0 MB |
|                                               ----------------------------- |
| Approx. total storage required per process          926.0 MB         0.0 MB |
|                                                                             |
| Requirements will fluctuate during execution and may exceed these estimates |
+-----------------------------------------------------------------------------+
 

 ******************************** Constrained Forces ********************************
 *                                                                                  *
 *                           Cartesian components (eV/A)                            *
 * -------------------------------------------------------------------------------- *
 *                         x                    y                    z              *
 *                                                                                  *
 * P               1      0.00000(cons'd)      0.00000(cons'd)     -0.06635         *
 * P               2      0.00000(cons'd)     -0.00000(cons'd)      0.02820         *
 * P               3      0.00000(cons'd)      0.00000(cons'd)     -0.01891         *
 * P               4     -0.00000(cons'd)     -0.00000(cons'd)     -0.06635         *
 * P               5      0.00000(cons'd)      0.00000(cons'd)     -0.00321         *
 * P               6      0.00000(cons'd)     -0.00000(cons'd)     -0.06634         *
 * P               7      0.00000(cons'd)     -0.00000(cons'd)      0.02820         *
 * P               8      0.00000(cons'd)     -0.00000(cons'd)     -0.00321         *
 * P               9     -0.00000(cons'd)     -0.00000(cons'd)      0.02821         *
 * P              10      0.00000(cons'd)      0.00000(cons'd)     -0.01891         *
 * P              11      0.00000(cons'd)     -0.00000(cons'd)     -0.06635         *
 * P              12      0.00000(cons'd)      0.00000(cons'd)     -0.01891         *
 * P              13      0.00000(cons'd)      0.00000(cons'd)     -0.00322         *
 * P              14     -0.00000(cons'd)     -0.00000(cons'd)     -0.00321         *
 * P              15      0.00000(cons'd)      0.00000(cons'd)     -0.01891         *
 * P              16     -0.00000(cons'd)      0.00000(cons'd)      0.02820         *
 * In              1      0.00000(cons'd)      0.00000(cons'd)      0.02871         *
 * In              2      0.00000(cons'd)      0.00000(cons'd)      0.01777         *
 * In              3      0.00000(cons'd)      0.00000(cons'd)      0.00916         *
 * In              4      0.00000(cons'd)      0.00000(cons'd)      0.01777         *
 * In              5      0.00000(cons'd)      0.00000(cons'd)      0.00916         *
 * In              6      0.00000(cons'd)      0.00000(cons'd)      0.01777         *
 * In              7      0.00000(cons'd)      0.00000(cons'd)      0.01777         *
 * In              8      0.00000(cons'd)      0.00000(cons'd)      0.00916         *
 * In              9      0.00000(cons'd)      0.00000(cons'd)      0.02871         *
 * In             10      0.00000(cons'd)      0.00000(cons'd)      0.00463         *
 * In             11      0.00000(cons'd)     -0.00000(cons'd)      0.02871         *
 * In             12     -0.00000(cons'd)      0.00000(cons'd)      0.00916         *
 * In             13     -0.00000(cons'd)      0.00000(cons'd)      0.00463         *
 * In             14      0.00000(cons'd)     -0.00000(cons'd)      0.02871         *
 * In             15      0.00000(cons'd)      0.00000(cons'd)      0.00463         *
 * In             16      0.00000(cons'd)      0.00000(cons'd)      0.00463         *
 *                                                                                  *
 ************************************************************************************
 EXP precond LBFGS => estimated nearest neighbor distance :  2.534       A
 EXP precond LBFGS => estimated cutoff distance :  5.067       A

 ************************************** Forces **************************************
 *                                                                                  *
 *                           Cartesian components (eV/A)                            *
 * -------------------------------------------------------------------------------- *
 *                         x                    y                    z              *
 *                                                                                  *
 * P               1     -0.00001(cons'd)     -0.04356(cons'd)     -0.06635         *
 * P               2      0.00001(cons'd)     -0.30300(cons'd)      0.02820         *
 * P               3     -0.00001(cons'd)      1.87146(cons'd)     -0.01891         *
 * P               4     -0.00001(cons'd)     -0.04355(cons'd)     -0.06635         *
 * P               5     -0.00000(cons'd)     -0.05315(cons'd)     -0.00321         *
 * P               6      0.00000(cons'd)     -0.04355(cons'd)     -0.06634         *
 * P               7      0.00001(cons'd)     -0.30301(cons'd)      0.02820         *
 * P               8      0.00000(cons'd)     -0.05315(cons'd)     -0.00321         *
 * P               9     -0.00000(cons'd)     -0.30301(cons'd)      0.02821         *
 * P              10      0.00000(cons'd)      1.87146(cons'd)     -0.01891         *
 * P              11      0.00000(cons'd)     -0.04356(cons'd)     -0.06635         *
 * P              12     -0.00001(cons'd)      1.87146(cons'd)     -0.01891         *
 * P              13      0.00001(cons'd)     -0.05315(cons'd)     -0.00322         *
 * P              14     -0.00000(cons'd)     -0.05315(cons'd)     -0.00321         *
 * P              15      0.00000(cons'd)      1.87146(cons'd)     -0.01891         *
 * P              16     -0.00000(cons'd)     -0.30300(cons'd)      0.02820         *
 * In              1      0.00000(cons'd)      0.08089(cons'd)      0.02871         *
 * In              2     -0.00000(cons'd)     -0.00002(cons'd)      0.01777         *
 * In              3     -0.00000(cons'd)     -0.02532(cons'd)      0.00916         *
 * In              4      0.00000(cons'd)     -0.00002(cons'd)      0.01777         *
 * In              5      0.00000(cons'd)     -0.02532(cons'd)      0.00916         *
 * In              6      0.00000(cons'd)     -0.00002(cons'd)      0.01777         *
 * In              7     -0.00000(cons'd)     -0.00002(cons'd)      0.01777         *
 * In              8     -0.00000(cons'd)     -0.02532(cons'd)      0.00916         *
 * In              9     -0.00000(cons'd)      0.08089(cons'd)      0.02871         *
 * In             10     -0.00000(cons'd)     -1.52731(cons'd)      0.00463         *
 * In             11      0.00000(cons'd)      0.08090(cons'd)      0.02871         *
 * In             12      0.00000(cons'd)     -0.02532(cons'd)      0.00916         *
 * In             13      0.00000(cons'd)     -1.52731(cons'd)      0.00463         *
 * In             14      0.00000(cons'd)      0.08090(cons'd)      0.02871         *
 * In             15      0.00000(cons'd)     -1.52731(cons'd)      0.00463         *
 * In             16     -0.00000(cons'd)     -1.52731(cons'd)      0.00463         *
 *                                                                                  *
 ************************************************************************************
 doing test perturbation to get energy scale for EXP preconditioner

                           -------------------------------
                                     Cell Contents
                           -------------------------------

            xxxxxxxxxxxxxxxxxxxxxxxxxxxxxxxxxxxxxxxxxxxxxxxxxxxxxxxxxxxxxxxxx
            x  Element         Atom        Fractional coordinates of atoms  x
            x                 Number           u          v          w      x
            x---------------------------------------------------------------x
            x  P                 1         0.501877   0.730781   0.377409   x
            x  P                 2         0.250993   0.995399   0.130892   x
            x  P                 3         0.501877   0.702644   0.865126   x
            x  P                 4         0.501877   0.229220   0.377409   x
            x  P                 5         0.752555   0.465978   0.622256   x
            x  P                 6         0.000000   0.229220   0.377409   x
            x  P                 7         0.250993   0.494326   0.130892   x
            x  P                 8         0.250993   0.465978   0.622256   x
            x  P                 9         0.752555   0.494326   0.130892   x
            x  P                10         0.000000   0.201082   0.865126   x
            x  P                11         0.000000   0.730781   0.377409   x
            x  P                12         0.501877   0.201082   0.865126   x
            x  P                13         0.250993   0.967051   0.622256   x
            x  P                14         0.752555   0.967051   0.622256   x
            x  P                15         0.000000   0.702644   0.865126   x
            x  P                16         0.752555   0.995399   0.130892   x
            x  In                1         0.250993   0.737824   0.255339   x
            x  In                2         0.501877   0.472984   0.500812   x
            x  In                3         0.752555   0.207942   0.746220   x
            x  In                4         0.000000   0.472984   0.500812   x
            x  In                5         0.250993   0.207942   0.746220   x
            x  In                6         0.000000   0.974058   0.500812   x
            x  In                7         0.501877   0.974058   0.500812   x
            x  In                8         0.752555   0.709504   0.746220   x
            x  In                9         0.752555   0.737824   0.255339   x
            x  In               10         0.501877   0.501305   0.009925   x
            x  In               11         0.752555   0.236262   0.255339   x
            x  In               12         0.250993   0.709504   0.746220   x
            x  In               13         0.000000   0.501305   0.009925   x
            x  In               14         0.250993   0.236262   0.255339   x
            x  In               15         0.000000   1.002378   0.009925   x
            x  In               16         0.501877   1.002378   0.009925   x
            xxxxxxxxxxxxxxxxxxxxxxxxxxxxxxxxxxxxxxxxxxxxxxxxxxxxxxxxxxxxxxxxx


------------------------------------------------------------------------ <-- SCF
SCF loop      Energy           Fermi           Energy gain       Timer   <-- SCF
                               energy          per atom          (sec)   <-- SCF
------------------------------------------------------------------------ <-- SCF
Initial  -3.14356654E+004  0.00000000E+000                       466.63  <-- SCF
      1  -3.14370578E+004  3.49588663E+000   4.35105951E-002     491.27  <-- SCF
      2  -3.14372619E+004  3.49579816E+000   6.37731964E-003     522.02  <-- SCF
      3  -3.14372639E+004  3.49534169E+000   6.33202660E-005     547.85  <-- SCF
      4  -3.14372654E+004  3.49472980E+000   4.78060091E-005     574.66  <-- SCF
      5  -3.14372656E+004  3.49454586E+000   5.89796378E-006     604.32  <-- SCF
      6  -3.14372657E+004  3.49438795E+000   1.71283148E-006     630.49  <-- SCF
      7  -3.14372657E+004  3.49434078E+000   8.98600812E-008     653.41  <-- SCF
      8  -3.14372657E+004  3.49430766E+000   7.75520941E-010     674.24  <-- SCF
      9  -3.14372657E+004  3.49429307E+000  -1.61794047E-009     692.36  <-- SCF
------------------------------------------------------------------------ <-- SCF
 
Final energy, E             =  -31437.26556885     eV
Final free energy (E-TS)    =  -31437.26565597     eV
(energies not corrected for finite basis set)
 
NB est. 0K energy (E-0.5TS)      =  -31437.26561241     eV
 

 ************************************** Forces **************************************
 *                                                                                  *
 *                           Cartesian components (eV/A)                            *
 * -------------------------------------------------------------------------------- *
 *                         x                    y                    z              *
 *                                                                                  *
 * P               1     -0.02674(cons'd)     -0.06310(cons'd)     -0.07182         *
 * P               2      0.00818(cons'd)     -0.38930(cons'd)     -0.03500         *
 * P               3     -0.02454(cons'd)      1.96442(cons'd)     -0.20082         *
 * P               4     -0.02667(cons'd)      0.07440(cons'd)     -0.12150         *
 * P               5     -0.13650(cons'd)     -0.05420(cons'd)      0.07601         *
 * P               6      0.15148(cons'd)      0.07401(cons'd)     -0.04798         *
 * P               7      0.00794(cons'd)     -0.30421(cons'd)      0.03556         *
 * P               8      0.00892(cons'd)     -0.05249(cons'd)     -0.01209         *
 * P               9     -0.13639(cons'd)     -0.31057(cons'd)      0.12294         *
 * P              10      0.16447(cons'd)      2.12035(cons'd)     -0.26850         *
 * P              11      0.15136(cons'd)     -0.06336(cons'd)      0.00182         *
 * P              12     -0.02456(cons'd)      2.12318(cons'd)     -0.35093         *
 * P              13      0.00881(cons'd)     -0.15000(cons'd)     -0.07732         *
 * P              14     -0.13692(cons'd)     -0.15200(cons'd)      0.01074         *
 * P              15      0.16434(cons'd)      1.96166(cons'd)     -0.11831         *
 * P              16     -0.13612(cons'd)     -0.39552(cons'd)      0.05235         *
 * In              1      0.00390(cons'd)      0.06568(cons'd)      0.03668         *
 * In              2     -0.01549(cons'd)     -0.00139(cons'd)      0.01252         *
 * In              3     -0.12481(cons'd)      0.07251(cons'd)     -0.03590         *
 * In              4      0.12828(cons'd)     -0.00138(cons'd)     -0.05122         *
 * In              5      0.00289(cons'd)      0.07309(cons'd)      0.04203         *
 * In              6      0.12807(cons'd)     -0.07698(cons'd)      0.00539         *
 * In              7     -0.01541(cons'd)     -0.07720(cons'd)      0.06917         *
 * In              8     -0.12498(cons'd)     -0.04097(cons'd)     -0.07628         *
 * In              9     -0.11386(cons'd)      0.06743(cons'd)     -0.03533         *
 * In             10     -0.01617(cons'd)     -1.63078(cons'd)      0.20073         *
 * In             11     -0.11373(cons'd)      0.17499(cons'd)      0.00410         *
 * In             12      0.00294(cons'd)     -0.04066(cons'd)      0.00171         *
 * In             13      0.12693(cons'd)     -1.62500(cons'd)      0.13611         *
 * In             14      0.00385(cons'd)      0.17356(cons'd)      0.07616         *
 * In             15      0.12664(cons'd)     -1.75510(cons'd)      0.27717         *
 * In             16     -0.01611(cons'd)     -1.76106(cons'd)      0.34182         *
 *                                                                                  *
 ************************************************************************************
 EXP precond LBFGS => estimated parameter mu :  2.638       eV/A**2
 LBFGS: finished iteration     0 with enthalpy= -3.14373381E+004 eV
  
 +-----------+-----------------+-----------------+------------+-----+ <-- LBFGS
 | Parameter |      value      |    tolerance    |    units   | OK? | <-- LBFGS
 +-----------+-----------------+-----------------+------------+-----+ <-- LBFGS
 |  dE/ion   |   0.000000E+000 |   2.000000E-005 |         eV | No  | <-- LBFGS
 |  |F|max   |   2.152125E+000 |   1.000000E-003 |       eV/A | No  | <-- LBFGS
 |  |dR|max  |   2.109392E-015 |   1.000000E-003 |          A | No  | <-- LBFGS
 +-----------+-----------------+-----------------+------------+-----+ <-- LBFGS
  

================================================================================
 Starting LBFGS iteration          1 ...
================================================================================
  
 +------------+-------------+-------------+-----------------+ <-- min LBFGS
 |    Step    |   lambda    |   F.delta'  |    enthalpy     | <-- min LBFGS
 +------------+-------------+-------------+-----------------+ <-- min LBFGS
 |  previous  |    0.000000 |    0.066253 |   -31437.338076 | <-- min LBFGS
 +------------+-------------+-------------+-----------------+ <-- min LBFGS
  

--------------------------------------------------------------------------------
 LBFGS: starting iteration         1 with trial guess (lambda=  1.000000)
--------------------------------------------------------------------------------

                           -------------------------------
                                     Cell Contents
                           -------------------------------

            xxxxxxxxxxxxxxxxxxxxxxxxxxxxxxxxxxxxxxxxxxxxxxxxxxxxxxxxxxxxxxxxx
            x  Element         Atom        Fractional coordinates of atoms  x
            x                 Number           u          v          w      x
            x---------------------------------------------------------------x
            x  P                 1         0.500000   0.728297   0.376186   x
            x  P                 2         0.250000  -0.007545   0.130773   x
            x  P                 3         0.500000   0.700198   0.863240   x
            x  P                 4         0.500000   0.228297   0.376186   x
            x  P                 5         0.750000   0.464186   0.620774   x
            x  P                 6         0.000000   0.228297   0.376186   x
            x  P                 7         0.250000   0.492455   0.130773   x
            x  P                 8         0.250000   0.464186   0.620774   x
            x  P                 9         0.750000   0.492455   0.130773   x
            x  P                10         0.000000   0.200198   0.863240   x
            x  P                11         0.000000   0.728297   0.376186   x
            x  P                12         0.500000   0.200198   0.863240   x
            x  P                13         0.250000  -0.035814   0.620774   x
            x  P                14         0.750000  -0.035814   0.620774   x
            x  P                15         0.000000   0.700198   0.863240   x
            x  P                16         0.750000  -0.007545   0.130773   x
            x  In                1         0.250000   0.735298   0.254839   x
            x  In                2         0.500000   0.471176   0.499610   x
            x  In                3         0.750000   0.207043   0.744584   x
            x  In                4         0.000000   0.471176   0.499610   x
            x  In                5         0.250000   0.207043   0.744584   x
            x  In                6         0.000000  -0.028824   0.499610   x
            x  In                7         0.500000  -0.028824   0.499610   x
            x  In                8         0.750000   0.707043   0.744584   x
            x  In                9         0.750000   0.735298   0.254839   x
            x  In               10         0.500000   0.499423   0.009995   x
            x  In               11         0.750000   0.235298   0.254839   x
            x  In               12         0.250000   0.707043   0.744584   x
            x  In               13        -0.000000   0.499423   0.009995   x
            x  In               14         0.250000   0.235298   0.254839   x
            x  In               15         0.000000  -0.000577   0.009995   x
            x  In               16         0.500000  -0.000577   0.009995   x
            xxxxxxxxxxxxxxxxxxxxxxxxxxxxxxxxxxxxxxxxxxxxxxxxxxxxxxxxxxxxxxxxx


------------------------------------------------------------------------ <-- SCF
SCF loop      Energy           Fermi           Energy gain       Timer   <-- SCF
                               energy          per atom          (sec)   <-- SCF
------------------------------------------------------------------------ <-- SCF
Initial  -3.14354251E+004  0.00000000E+000                       708.35  <-- SCF
      1  -3.14371315E+004  3.50271610E+000   5.33233550E-002     732.94  <-- SCF
      2  -3.14373353E+004  3.50262132E+000   6.36888793E-003     763.57  <-- SCF
      3  -3.14373373E+004  3.50325341E+000   6.26016228E-005     789.22  <-- SCF
      4  -3.14373388E+004  3.50398396E+000   4.87404093E-005     815.86  <-- SCF
      5  -3.14373390E+004  3.50413782E+000   5.52614799E-006     845.17  <-- SCF
      6  -3.14373391E+004  3.50426525E+000   1.60670847E-006     871.25  <-- SCF
      7  -3.14373391E+004  3.50432722E+000   1.58605730E-007     894.34  <-- SCF
      8  -3.14373391E+004  3.50436572E+000   7.26062387E-009     914.96  <-- SCF
      9  -3.14373391E+004  3.50437658E+000  -5.39055692E-010     932.95  <-- SCF
------------------------------------------------------------------------ <-- SCF
 
Final energy, E             =  -31437.33894318     eV
Final free energy (E-TS)    =  -31437.33905620     eV
(energies not corrected for finite basis set)
 
NB est. 0K energy (E-0.5TS)      =  -31437.33899969     eV
 

 ******************************** Constrained Forces ********************************
 *                                                                                  *
 *                           Cartesian components (eV/A)                            *
 * -------------------------------------------------------------------------------- *
 *                         x                    y                    z              *
 *                                                                                  *
 * P               1      0.00000(cons'd)     -0.00000(cons'd)     -0.01979         *
 * P               2      0.00000(cons'd)     -0.00000(cons'd)      0.00885         *
 * P               3      0.00000(cons'd)      0.00000(cons'd)     -0.00157         *
 * P               4      0.00000(cons'd)     -0.00000(cons'd)     -0.01981         *
 * P               5      0.00000(cons'd)     -0.00000(cons'd)     -0.00101         *
 * P               6      0.00000(cons'd)     -0.00000(cons'd)     -0.01978         *
 * P               7      0.00000(cons'd)     -0.00000(cons'd)      0.00888         *
 * P               8      0.00000(cons'd)      0.00000(cons'd)     -0.00105         *
 * P               9      0.00000(cons'd)      0.00000(cons'd)      0.00891         *
 * P              10      0.00000(cons'd)      0.00000(cons'd)     -0.00157         *
 * P              11      0.00000(cons'd)     -0.00000(cons'd)     -0.01977         *
 * P              12      0.00000(cons'd)      0.00000(cons'd)     -0.00158         *
 * P              13      0.00000(cons'd)     -0.00000(cons'd)     -0.00107         *
 * P              14      0.00000(cons'd)     -0.00000(cons'd)     -0.00104         *
 * P              15      0.00000(cons'd)      0.00000(cons'd)     -0.00154         *
 * P              16      0.00000(cons'd)     -0.00000(cons'd)      0.00888         *
 * In              1      0.00000(cons'd)      0.00000(cons'd)      0.00707         *
 * In              2      0.00000(cons'd)      0.00000(cons'd)      0.00199         *
 * In              3      0.00000(cons'd)      0.00000(cons'd)      0.00413         *
 * In              4     -0.00000(cons'd)      0.00000(cons'd)      0.00193         *
 * In              5      0.00000(cons'd)      0.00000(cons'd)      0.00419         *
 * In              6      0.00000(cons'd)      0.00000(cons'd)      0.00198         *
 * In              7      0.00000(cons'd)      0.00000(cons'd)      0.00204         *
 * In              8      0.00000(cons'd)      0.00000(cons'd)      0.00410         *
 * In              9      0.00000(cons'd)      0.00000(cons'd)      0.00702         *
 * In             10      0.00000(cons'd)      0.00000(cons'd)      0.00033         *
 * In             11      0.00000(cons'd)      0.00000(cons'd)      0.00703         *
 * In             12      0.00000(cons'd)      0.00000(cons'd)      0.00417         *
 * In             13      0.00000(cons'd)      0.00000(cons'd)      0.00029         *
 * In             14      0.00000(cons'd)      0.00000(cons'd)      0.00709         *
 * In             15      0.00000(cons'd)      0.00000(cons'd)      0.00033         *
 * In             16      0.00000(cons'd)      0.00000(cons'd)      0.00037         *
 *                                                                                  *
 ************************************************************************************
  
 +------------+-------------+-------------+-----------------+ <-- min LBFGS
 |    Step    |   lambda    |   F.delta'  |    enthalpy     | <-- min LBFGS
 +------------+-------------+-------------+-----------------+ <-- min LBFGS
 |  previous  |    0.000000 |    0.066253 |   -31437.338076 | <-- min LBFGS
 | trial step |    1.000000 |    0.018915 |   -31437.339056 | <-- min LBFGS
 +------------+-------------+-------------+-----------------+ <-- min LBFGS
  
 LBFGS: finished iteration     1 with enthalpy= -3.14373391E+004 eV
  
 +-----------+-----------------+-----------------+------------+-----+ <-- LBFGS
 | Parameter |      value      |    tolerance    |    units   | OK? | <-- LBFGS
 +-----------+-----------------+-----------------+------------+-----+ <-- LBFGS
 |  dE/ion   |   3.062104E-005 |   2.000000E-005 |         eV | No  | <-- LBFGS
 |  |F|max   |   1.980777E-002 |   1.000000E-003 |       eV/A | No  | <-- LBFGS
 |  |dR|max  |   3.617350E-003 |   1.000000E-003 |          A | No  | <-- LBFGS
 +-----------+-----------------+-----------------+------------+-----+ <-- LBFGS
  

================================================================================
 Starting LBFGS iteration          2 ...
================================================================================
  
 +------------+-------------+-------------+-----------------+ <-- min LBFGS
 |    Step    |   lambda    |   F.delta'  |    enthalpy     | <-- min LBFGS
 +------------+-------------+-------------+-----------------+ <-- min LBFGS
 |  previous  |    0.000000 |    0.018320 |   -31437.339056 | <-- min LBFGS
 +------------+-------------+-------------+-----------------+ <-- min LBFGS
  

--------------------------------------------------------------------------------
 LBFGS: starting iteration         2 with trial guess (lambda=  1.000000)
--------------------------------------------------------------------------------

                           -------------------------------
                                     Cell Contents
                           -------------------------------

            xxxxxxxxxxxxxxxxxxxxxxxxxxxxxxxxxxxxxxxxxxxxxxxxxxxxxxxxxxxxxxxxx
            x  Element         Atom        Fractional coordinates of atoms  x
            x                 Number           u          v          w      x
            x---------------------------------------------------------------x
            x  P                 1         0.500000   0.728306   0.376034   x
            x  P                 2         0.250000  -0.007550   0.130861   x
            x  P                 3         0.500000   0.700197   0.863257   x
            x  P                 4         0.500000   0.228306   0.376034   x
            x  P                 5         0.750000   0.464188   0.620749   x
            x  P                 6         0.000000   0.228306   0.376034   x
            x  P                 7         0.250000   0.492450   0.130862   x
            x  P                 8         0.250000   0.464188   0.620749   x
            x  P                 9         0.750000   0.492450   0.130862   x
            x  P                10         0.000000   0.200197   0.863257   x
            x  P                11         0.000000   0.728306   0.376034   x
            x  P                12         0.500000   0.200197   0.863257   x
            x  P                13         0.250000  -0.035812   0.620749   x
            x  P                14         0.750000  -0.035812   0.620749   x
            x  P                15         0.000000   0.700197   0.863257   x
            x  P                16         0.750000  -0.007550   0.130862   x
            x  In                1         0.250000   0.735296   0.254874   x
            x  In                2         0.500000   0.471179   0.499572   x
            x  In                3         0.750000   0.207042   0.744612   x
            x  In                4        -0.000000   0.471179   0.499572   x
            x  In                5         0.250000   0.207042   0.744612   x
            x  In                6         0.000000  -0.028821   0.499572   x
            x  In                7         0.500000  -0.028821   0.499572   x
            x  In                8         0.750000   0.707042   0.744612   x
            x  In                9         0.750000   0.735296   0.254873   x
            x  In               10         0.500000   0.499421   0.010041   x
            x  In               11         0.750000   0.235296   0.254874   x
            x  In               12         0.250000   0.707042   0.744612   x
            x  In               13        -0.000000   0.499421   0.010041   x
            x  In               14         0.250000   0.235296   0.254874   x
            x  In               15         0.000000  -0.000579   0.010041   x
            x  In               16         0.500000  -0.000579   0.010041   x
            xxxxxxxxxxxxxxxxxxxxxxxxxxxxxxxxxxxxxxxxxxxxxxxxxxxxxxxxxxxxxxxxx


------------------------------------------------------------------------ <-- SCF
SCF loop      Energy           Fermi           Energy gain       Timer   <-- SCF
                               energy          per atom          (sec)   <-- SCF
------------------------------------------------------------------------ <-- SCF
Initial  -3.14373419E+004  0.00000000E+000                       948.53  <-- SCF
      1  -3.14373391E+004  3.50466671E+000  -8.77428578E-005     973.30  <-- SCF
      2  -3.14373392E+004  3.50466666E+000   2.07779287E-006    1003.36  <-- SCF
      3  -3.14373392E+004  3.50463005E+000  -5.49440442E-008    1027.38  <-- SCF
      4  -3.14373392E+004  3.50459847E+000  -8.61058329E-009    1049.54  <-- SCF
      5  -3.14373392E+004  3.50459462E+000   2.07366295E-009    1067.37  <-- SCF
------------------------------------------------------------------------ <-- SCF
 
Final energy, E             =  -31437.33905216     eV
Final free energy (E-TS)    =  -31437.33916509     eV
(energies not corrected for finite basis set)
 
NB est. 0K energy (E-0.5TS)      =  -31437.33910862     eV
 

 ******************************** Constrained Forces ********************************
 *                                                                                  *
 *                           Cartesian components (eV/A)                            *
 * -------------------------------------------------------------------------------- *
 *                         x                    y                    z              *
 *                                                                                  *
 * P               1      0.00000(cons'd)     -0.00000(cons'd)     -0.00011         *
 * P               2     -0.00000(cons'd)      0.00000(cons'd)      0.00019         *
 * P               3      0.00000(cons'd)      0.00000(cons'd)      0.00119         *
 * P               4      0.00000(cons'd)      0.00000(cons'd)     -0.00009         *
 * P               5      0.00000(cons'd)      0.00000(cons'd)     -0.00003         *
 * P               6      0.00000(cons'd)      0.00000(cons'd)     -0.00012         *
 * P               7      0.00000(cons'd)     -0.00000(cons'd)      0.00016         *
 * P               8     -0.00000(cons'd)      0.00000(cons'd)      0.00001         *
 * P               9      0.00000(cons'd)      0.00000(cons'd)      0.00012         *
 * P              10     -0.00000(cons'd)      0.00000(cons'd)      0.00120         *
 * P              11     -0.00000(cons'd)     -0.00000(cons'd)     -0.00014         *
 * P              12      0.00000(cons'd)      0.00000(cons'd)      0.00123         *
 * P              13     -0.00000(cons'd)      0.00000(cons'd)      0.00004         *
 * P              14      0.00000(cons'd)      0.00000(cons'd)      0.00000         *
 * P              15      0.00000(cons'd)      0.00000(cons'd)      0.00116         *
 * P              16      0.00000(cons'd)     -0.00000(cons'd)      0.00015         *
 * In              1      0.00000(cons'd)      0.00000(cons'd)     -0.00149         *
 * In              2      0.00000(cons'd)      0.00000(cons'd)     -0.00131         *
 * In              3      0.00000(cons'd)      0.00000(cons'd)      0.00037         *
 * In              4      0.00000(cons'd)      0.00000(cons'd)     -0.00126         *
 * In              5      0.00000(cons'd)      0.00000(cons'd)      0.00031         *
 * In              6      0.00000(cons'd)      0.00000(cons'd)     -0.00131         *
 * In              7      0.00000(cons'd)      0.00000(cons'd)     -0.00136         *
 * In              8      0.00000(cons'd)      0.00000(cons'd)      0.00041         *
 * In              9      0.00000(cons'd)      0.00000(cons'd)     -0.00144         *
 * In             10      0.00000(cons'd)      0.00000(cons'd)      0.00119         *
 * In             11      0.00000(cons'd)     -0.00000(cons'd)     -0.00145         *
 * In             12      0.00000(cons'd)      0.00000(cons'd)      0.00033         *
 * In             13      0.00000(cons'd)      0.00000(cons'd)      0.00124         *
 * In             14      0.00000(cons'd)      0.00000(cons'd)     -0.00151         *
 * In             15      0.00000(cons'd)      0.00000(cons'd)      0.00119         *
 * In             16      0.00000(cons'd)      0.00000(cons'd)      0.00114         *
 *                                                                                  *
 ************************************************************************************
  
 +------------+-------------+-------------+-----------------+ <-- min LBFGS
 |    Step    |   lambda    |   F.delta'  |    enthalpy     | <-- min LBFGS
 +------------+-------------+-------------+-----------------+ <-- min LBFGS
 |  previous  |    0.000000 |    0.018320 |   -31437.339056 | <-- min LBFGS
 | trial step |    1.000000 |    0.000516 |   -31437.339165 | <-- min LBFGS
 +------------+-------------+-------------+-----------------+ <-- min LBFGS
  
 LBFGS: finished iteration     2 with enthalpy= -3.14373392E+004 eV
  
 +-----------+-----------------+-----------------+------------+-----+ <-- LBFGS
 | Parameter |      value      |    tolerance    |    units   | OK? | <-- LBFGS
 +-----------+-----------------+-----------------+------------+-----+ <-- LBFGS
 |  dE/ion   |   3.402872E-006 |   2.000000E-005 |         eV | Yes | <-- LBFGS
 |  |F|max   |   1.507626E-003 |   1.000000E-003 |       eV/A | No  | <-- LBFGS
 |  |dR|max  |   1.792574E-003 |   1.000000E-003 |          A | No  | <-- LBFGS
 +-----------+-----------------+-----------------+------------+-----+ <-- LBFGS
  

================================================================================
 Starting LBFGS iteration          3 ...
================================================================================
  
 +------------+-------------+-------------+-----------------+ <-- min LBFGS
 |    Step    |   lambda    |   F.delta'  |    enthalpy     | <-- min LBFGS
 +------------+-------------+-------------+-----------------+ <-- min LBFGS
 |  previous  |    0.000000 |    0.002036 |   -31437.339165 | <-- min LBFGS
 +------------+-------------+-------------+-----------------+ <-- min LBFGS
  

--------------------------------------------------------------------------------
 LBFGS: starting iteration         3 with trial guess (lambda=  1.000000)
--------------------------------------------------------------------------------

                           -------------------------------
                                     Cell Contents
                           -------------------------------

            xxxxxxxxxxxxxxxxxxxxxxxxxxxxxxxxxxxxxxxxxxxxxxxxxxxxxxxxxxxxxxxxx
            x  Element         Atom        Fractional coordinates of atoms  x
            x                 Number           u          v          w      x
            x---------------------------------------------------------------x
            x  P                 1         0.500000   0.728306   0.376022   x
            x  P                 2         0.250000  -0.007550   0.130865   x
            x  P                 3         0.500000   0.700196   0.863270   x
            x  P                 4         0.500000   0.228306   0.376022   x
            x  P                 5         0.750000   0.464188   0.620747   x
            x  P                 6         0.000000   0.228306   0.376022   x
            x  P                 7         0.250000   0.492450   0.130865   x
            x  P                 8         0.250000   0.464188   0.620747   x
            x  P                 9         0.750000   0.492450   0.130865   x
            x  P                10         0.000000   0.200196   0.863270   x
            x  P                11        -0.000000   0.728306   0.376022   x
            x  P                12         0.500000   0.200196   0.863270   x
            x  P                13         0.250000  -0.035812   0.620747   x
            x  P                14         0.750000  -0.035812   0.620747   x
            x  P                15         0.000000   0.700196   0.863270   x
            x  P                16         0.750000  -0.007550   0.130865   x
            x  In                1         0.250000   0.735296   0.254863   x
            x  In                2         0.500000   0.471179   0.499560   x
            x  In                3         0.750000   0.207041   0.744619   x
            x  In                4        -0.000000   0.471179   0.499560   x
            x  In                5         0.250000   0.207041   0.744619   x
            x  In                6         0.000000  -0.028821   0.499560   x
            x  In                7         0.500000  -0.028821   0.499560   x
            x  In                8         0.750000   0.707041   0.744619   x
            x  In                9         0.750000   0.735296   0.254863   x
            x  In               10         0.500000   0.499420   0.010054   x
            x  In               11         0.750000   0.235296   0.254863   x
            x  In               12         0.250000   0.707041   0.744619   x
            x  In               13         0.000000   0.499420   0.010054   x
            x  In               14         0.250000   0.235296   0.254863   x
            x  In               15         0.000000  -0.000580   0.010054   x
            x  In               16         0.500000  -0.000580   0.010054   x
            xxxxxxxxxxxxxxxxxxxxxxxxxxxxxxxxxxxxxxxxxxxxxxxxxxxxxxxxxxxxxxxxx


------------------------------------------------------------------------ <-- SCF
SCF loop      Energy           Fermi           Energy gain       Timer   <-- SCF
                               energy          per atom          (sec)   <-- SCF
------------------------------------------------------------------------ <-- SCF
Initial  -3.14373395E+004  0.00000000E+000                      1082.95  <-- SCF
      1  -3.14373392E+004  3.50458504E+000  -1.03773172E-005    1107.57  <-- SCF
      2  -3.14373392E+004  3.50458504E+000   1.41021068E-007    1133.33  <-- SCF
      3  -3.14373392E+004  3.50458582E+000   2.32192246E-009    1151.20  <-- SCF
      4  -3.14373392E+004  3.50458672E+000   1.39442957E-009    1168.90  <-- SCF
------------------------------------------------------------------------ <-- SCF
 
Final energy, E             =  -31437.33905526     eV
Final free energy (E-TS)    =  -31437.33916817     eV
(energies not corrected for finite basis set)
 
NB est. 0K energy (E-0.5TS)      =  -31437.33911171     eV
 

 ******************************** Constrained Forces ********************************
 *                                                                                  *
 *                           Cartesian components (eV/A)                            *
 * -------------------------------------------------------------------------------- *
 *                         x                    y                    z              *
 *                                                                                  *
 * P               1     -0.00000(cons'd)      0.00000(cons'd)     -0.00046         *
 * P               2      0.00000(cons'd)      0.00000(cons'd)      0.00003         *
 * P               3      0.00000(cons'd)      0.00000(cons'd)      0.00057         *
 * P               4      0.00000(cons'd)     -0.00000(cons'd)     -0.00045         *
 * P               5      0.00000(cons'd)      0.00000(cons'd)     -0.00017         *
 * P               6     -0.00000(cons'd)      0.00000(cons'd)     -0.00046         *
 * P               7      0.00000(cons'd)     -0.00000(cons'd)      0.00002         *
 * P               8      0.00000(cons'd)      0.00000(cons'd)     -0.00016         *
 * P               9      0.00000(cons'd)      0.00000(cons'd)      0.00001         *
 * P              10     -0.00000(cons'd)      0.00000(cons'd)      0.00056         *
 * P              11      0.00000(cons'd)     -0.00000(cons'd)     -0.00047         *
 * P              12      0.00000(cons'd)      0.00000(cons'd)      0.00056         *
 * P              13      0.00000(cons'd)      0.00000(cons'd)     -0.00016         *
 * P              14      0.00000(cons'd)     -0.00000(cons'd)     -0.00017         *
 * P              15     -0.00000(cons'd)      0.00000(cons'd)      0.00057         *
 * P              16      0.00000(cons'd)     -0.00000(cons'd)      0.00002         *
 * In              1      0.00000(cons'd)     -0.00000(cons'd)      0.00022         *
 * In              2      0.00000(cons'd)      0.00000(cons'd)     -0.00062         *
 * In              3      0.00000(cons'd)      0.00000(cons'd)      0.00033         *
 * In              4     -0.00000(cons'd)      0.00000(cons'd)     -0.00061         *
 * In              5      0.00000(cons'd)      0.00000(cons'd)      0.00033         *
 * In              6      0.00000(cons'd)      0.00000(cons'd)     -0.00062         *
 * In              7      0.00000(cons'd)      0.00000(cons'd)     -0.00062         *
 * In              8      0.00000(cons'd)      0.00000(cons'd)      0.00033         *
 * In              9      0.00000(cons'd)      0.00000(cons'd)      0.00023         *
 * In             10      0.00000(cons'd)      0.00000(cons'd)      0.00010         *
 * In             11      0.00000(cons'd)      0.00000(cons'd)      0.00023         *
 * In             12      0.00000(cons'd)      0.00000(cons'd)      0.00033         *
 * In             13      0.00000(cons'd)      0.00000(cons'd)      0.00010         *
 * In             14      0.00000(cons'd)      0.00000(cons'd)      0.00022         *
 * In             15      0.00000(cons'd)      0.00000(cons'd)      0.00011         *
 * In             16      0.00000(cons'd)      0.00000(cons'd)      0.00012         *
 *                                                                                  *
 ************************************************************************************
  
 +------------+-------------+-------------+-----------------+ <-- min LBFGS
 |    Step    |   lambda    |   F.delta'  |    enthalpy     | <-- min LBFGS
 +------------+-------------+-------------+-----------------+ <-- min LBFGS
 |  previous  |    0.000000 |    0.002036 |   -31437.339165 | <-- min LBFGS
 | trial step |    1.000000 |    0.000681 |   -31437.339168 | <-- min LBFGS
 +------------+-------------+-------------+-----------------+ <-- min LBFGS
  
 LBFGS: finished iteration     3 with enthalpy= -3.14373392E+004 eV
  
 +-----------+-----------------+-----------------+------------+-----+ <-- LBFGS
 | Parameter |      value      |    tolerance    |    units   | OK? | <-- LBFGS
 +-----------+-----------------+-----------------+------------+-----+ <-- LBFGS
 |  dE/ion   |   9.635930E-008 |   2.000000E-005 |         eV | Yes | <-- LBFGS
 |  |F|max   |   6.237660E-004 |   1.000000E-003 |       eV/A | Yes | <-- LBFGS
 |  |dR|max  |   1.606051E-004 |   1.000000E-003 |          A | Yes | <-- LBFGS
 +-----------+-----------------+-----------------+------------+-----+ <-- LBFGS
  
 LBFGS: Geometry optimization completed successfully.

================================================================================
 LBFGS: Final Configuration:
================================================================================

                           -------------------------------
                                     Cell Contents
                           -------------------------------

            xxxxxxxxxxxxxxxxxxxxxxxxxxxxxxxxxxxxxxxxxxxxxxxxxxxxxxxxxxxxxxxxx
            x  Element         Atom        Fractional coordinates of atoms  x
            x                 Number           u          v          w      x
            x---------------------------------------------------------------x
            x  P                 1         0.500000   0.728306   0.376022   x
            x  P                 2         0.250000  -0.007550   0.130865   x
            x  P                 3         0.500000   0.700196   0.863270   x
            x  P                 4         0.500000   0.228306   0.376022   x
            x  P                 5         0.750000   0.464188   0.620747   x
            x  P                 6         0.000000   0.228306   0.376022   x
            x  P                 7         0.250000   0.492450   0.130865   x
            x  P                 8         0.250000   0.464188   0.620747   x
            x  P                 9         0.750000   0.492450   0.130865   x
            x  P                10         0.000000   0.200196   0.863270   x
            x  P                11        -0.000000   0.728306   0.376022   x
            x  P                12         0.500000   0.200196   0.863270   x
            x  P                13         0.250000  -0.035812   0.620747   x
            x  P                14         0.750000  -0.035812   0.620747   x
            x  P                15         0.000000   0.700196   0.863270   x
            x  P                16         0.750000  -0.007550   0.130865   x
            x  In                1         0.250000   0.735296   0.254863   x
            x  In                2         0.500000   0.471179   0.499560   x
            x  In                3         0.750000   0.207041   0.744619   x
            x  In                4        -0.000000   0.471179   0.499560   x
            x  In                5         0.250000   0.207041   0.744619   x
            x  In                6         0.000000  -0.028821   0.499560   x
            x  In                7         0.500000  -0.028821   0.499560   x
            x  In                8         0.750000   0.707041   0.744619   x
            x  In                9         0.750000   0.735296   0.254863   x
            x  In               10         0.500000   0.499420   0.010054   x
            x  In               11         0.750000   0.235296   0.254863   x
            x  In               12         0.250000   0.707041   0.744619   x
            x  In               13         0.000000   0.499420   0.010054   x
            x  In               14         0.250000   0.235296   0.254863   x
            x  In               15         0.000000  -0.000580   0.010054   x
            x  In               16         0.500000  -0.000580   0.010054   x
            xxxxxxxxxxxxxxxxxxxxxxxxxxxxxxxxxxxxxxxxxxxxxxxxxxxxxxxxxxxxxxxxx


 LBFGS: Final Enthalpy     = -3.14373392E+004 eV
 LBFGS: Final <frequency>  =     422.83610 cm-1

 ******************* Unconstrained Forces *******************
 *                                                          *
 *               Cartesian components (eV/A)                *
 * -------------------------------------------------------- *
 *                         x            y            z      *
 *                                                          *
 * P               1     -0.00000     -0.04363     -0.00046 *
 * P               2      0.00000     -0.30198      0.00003 *
 * P               3      0.00000      1.85633      0.00057 *
 * P               4      0.00000     -0.04363     -0.00045 *
 * P               5      0.00000     -0.05327     -0.00017 *
 * P               6     -0.00001     -0.04363     -0.00046 *
 * P               7      0.00000     -0.30199      0.00002 *
 * P               8     -0.00000     -0.05327     -0.00016 *
 * P               9      0.00000     -0.30199      0.00001 *
 * P              10     -0.00000      1.85634      0.00056 *
 * P              11     -0.00000     -0.04363     -0.00047 *
 * P              12     -0.00000      1.85634      0.00056 *
 * P              13      0.00000     -0.05326     -0.00016 *
 * P              14      0.00000     -0.05326     -0.00017 *
 * P              15     -0.00001      1.85633      0.00057 *
 * P              16      0.00000     -0.30198      0.00002 *
 * In              1      0.00000      0.08068      0.00022 *
 * In              2     -0.00000     -0.00002     -0.00062 *
 * In              3     -0.00000     -0.02563      0.00033 *
 * In              4      0.00000     -0.00002     -0.00061 *
 * In              5      0.00000     -0.02563      0.00033 *
 * In              6      0.00000     -0.00002     -0.00062 *
 * In              7     -0.00000     -0.00002     -0.00062 *
 * In              8      0.00000     -0.02564      0.00033 *
 * In              9     -0.00000      0.08068      0.00023 *
 * In             10     -0.00000     -1.51248      0.00010 *
 * In             11     -0.00000      0.08068      0.00023 *
 * In             12      0.00000     -0.02564      0.00033 *
 * In             13     -0.00000     -1.51248      0.00010 *
 * In             14      0.00000      0.08068      0.00022 *
 * In             15     -0.00000     -1.51249      0.00011 *
 * In             16     -0.00000     -1.51249      0.00012 *
 *                                                          *
 ************************************************************

 ******************************** Constrained Forces ********************************
 *                                                                                  *
 *                           Cartesian components (eV/A)                            *
 * -------------------------------------------------------------------------------- *
 *                         x                    y                    z              *
 *                                                                                  *
 * P               1     -0.00000(cons'd)      0.00000(cons'd)     -0.00046         *
 * P               2      0.00000(cons'd)      0.00000(cons'd)      0.00003         *
 * P               3      0.00000(cons'd)      0.00000(cons'd)      0.00057         *
 * P               4      0.00000(cons'd)     -0.00000(cons'd)     -0.00045         *
 * P               5      0.00000(cons'd)      0.00000(cons'd)     -0.00017         *
 * P               6     -0.00000(cons'd)      0.00000(cons'd)     -0.00046         *
 * P               7      0.00000(cons'd)     -0.00000(cons'd)      0.00002         *
 * P               8      0.00000(cons'd)      0.00000(cons'd)     -0.00016         *
 * P               9      0.00000(cons'd)      0.00000(cons'd)      0.00001         *
 * P              10     -0.00000(cons'd)      0.00000(cons'd)      0.00056         *
 * P              11      0.00000(cons'd)     -0.00000(cons'd)     -0.00047         *
 * P              12      0.00000(cons'd)      0.00000(cons'd)      0.00056         *
 * P              13      0.00000(cons'd)      0.00000(cons'd)     -0.00016         *
 * P              14      0.00000(cons'd)     -0.00000(cons'd)     -0.00017         *
 * P              15     -0.00000(cons'd)      0.00000(cons'd)      0.00057         *
 * P              16      0.00000(cons'd)     -0.00000(cons'd)      0.00002         *
 * In              1      0.00000(cons'd)     -0.00000(cons'd)      0.00022         *
 * In              2      0.00000(cons'd)      0.00000(cons'd)     -0.00062         *
 * In              3      0.00000(cons'd)      0.00000(cons'd)      0.00033         *
 * In              4     -0.00000(cons'd)      0.00000(cons'd)     -0.00061         *
 * In              5      0.00000(cons'd)      0.00000(cons'd)      0.00033         *
 * In              6      0.00000(cons'd)      0.00000(cons'd)     -0.00062         *
 * In              7      0.00000(cons'd)      0.00000(cons'd)     -0.00062         *
 * In              8      0.00000(cons'd)      0.00000(cons'd)      0.00033         *
 * In              9      0.00000(cons'd)      0.00000(cons'd)      0.00023         *
 * In             10      0.00000(cons'd)      0.00000(cons'd)      0.00010         *
 * In             11      0.00000(cons'd)      0.00000(cons'd)      0.00023         *
 * In             12      0.00000(cons'd)      0.00000(cons'd)      0.00033         *
 * In             13      0.00000(cons'd)      0.00000(cons'd)      0.00010         *
 * In             14      0.00000(cons'd)      0.00000(cons'd)      0.00022         *
 * In             15      0.00000(cons'd)      0.00000(cons'd)      0.00011         *
 * In             16      0.00000(cons'd)      0.00000(cons'd)      0.00012         *
 *                                                                                  *
 ************************************************************************************

 Pseudo atomic calculation performed for P 3s2 3p3

 Converged in 23 iterations to a total energy of -208.0292 eV

 Pseudo atomic calculation performed for In 4d10 5s2 5p1

 Converged in 42 iterations to a total energy of -1747.4500 eV
Charge spilling parameter for spin component 1 = 0.16%

            Orbital Populations       
     Ion    Atom   Orbital             Charge
  -------------------------------------------
      P     1      S                    1.729
      P     1      Px                   1.303
      P     1      Py                   1.327
      P     1      Pz                   1.320
      P     2      S                    1.733
      P     2      Px                   1.301
      P     2      Py                   1.324
      P     2      Pz                   1.325
      P     3      S                    1.731
      P     3      Px                   1.299
      P     3      Py                   1.368
      P     3      Pz                   1.292
      P     4      S                    1.729
      P     4      Px                   1.303
      P     4      Py                   1.327
      P     4      Pz                   1.320
      P     5      S                    1.730
      P     5      Px                   1.301
      P     5      Py                   1.325
      P     5      Pz                   1.320
      P     6      S                    1.729
      P     6      Px                   1.303
      P     6      Py                   1.327
      P     6      Pz                   1.320
      P     7      S                    1.733
      P     7      Px                   1.301
      P     7      Py                   1.324
      P     7      Pz                   1.325
      P     8      S                    1.730
      P     8      Px                   1.302
      P     8      Py                   1.325
      P     8      Pz                   1.320
      P     9      S                    1.733
      P     9      Px                   1.301
      P     9      Py                   1.324
      P     9      Pz                   1.325
      P    10      S                    1.731
      P    10      Px                   1.299
      P    10      Py                   1.368
      P    10      Pz                   1.292
      P    11      S                    1.729
      P    11      Px                   1.303
      P    11      Py                   1.327
      P    11      Pz                   1.320
      P    12      S                    1.731
      P    12      Px                   1.299
      P    12      Py                   1.368
      P    12      Pz                   1.292
      P    13      S                    1.730
      P    13      Px                   1.301
      P    13      Py                   1.325
      P    13      Pz                   1.320
      P    14      S                    1.730
      P    14      Px                   1.301
      P    14      Py                   1.325
      P    14      Pz                   1.320
      P    15      S                    1.731
      P    15      Px                   1.299
      P    15      Py                   1.368
      P    15      Pz                   1.292
      P    16      S                    1.733
      P    16      Px                   1.301
      P    16      Py                   1.324
      P    16      Pz                   1.325
     In     1      Dzz                  1.999
     In     1      Dzy                  1.997
     In     1      Dzx                  1.997
     In     1      Dxx-yy               1.997
     In     1      Dxy                  1.999
     In     1      S                    1.412
     In     1      Px                   0.495
     In     1      Py                   0.475
     In     1      Pz                   0.473
     In     1      S                   -0.527
     In     2      Dzz                  1.999
     In     2      Dzy                  1.997
     In     2      Dzx                  1.997
     In     2      Dxx-yy               1.997
     In     2      Dxy                  1.999
     In     2      S                    1.412
     In     2      Px                   0.496
     In     2      Py                   0.477
     In     2      Pz                   0.477
     In     2      S                   -0.537
     In     3      Dzz                  1.999
     In     3      Dzy                  1.997
     In     3      Dzx                  1.996
     In     3      Dxx-yy               1.997
     In     3      Dxy                  1.999
     In     3      S                    1.421
     In     3      Px                   0.487
     In     3      Py                   0.483
     In     3      Pz                   0.478
     In     3      S                   -0.536
     In     4      Dzz                  1.999
     In     4      Dzy                  1.997
     In     4      Dzx                  1.997
     In     4      Dxx-yy               1.997
     In     4      Dxy                  1.999
     In     4      S                    1.412
     In     4      Px                   0.496
     In     4      Py                   0.477
     In     4      Pz                   0.477
     In     4      S                   -0.537
     In     5      Dzz                  1.999
     In     5      Dzy                  1.997
     In     5      Dzx                  1.996
     In     5      Dxx-yy               1.997
     In     5      Dxy                  1.999
     In     5      S                    1.421
     In     5      Px                   0.487
     In     5      Py                   0.483
     In     5      Pz                   0.478
     In     5      S                   -0.536
     In     6      Dzz                  1.999
     In     6      Dzy                  1.997
     In     6      Dzx                  1.997
     In     6      Dxx-yy               1.997
     In     6      Dxy                  1.999
     In     6      S                    1.412
     In     6      Px                   0.496
     In     6      Py                   0.477
     In     6      Pz                   0.477
     In     6      S                   -0.537
     In     7      Dzz                  1.999
     In     7      Dzy                  1.997
     In     7      Dzx                  1.997
     In     7      Dxx-yy               1.997
     In     7      Dxy                  1.999
     In     7      S                    1.412
     In     7      Px                   0.496
     In     7      Py                   0.477
     In     7      Pz                   0.477
     In     7      S                   -0.537
     In     8      Dzz                  1.999
     In     8      Dzy                  1.997
     In     8      Dzx                  1.996
     In     8      Dxx-yy               1.997
     In     8      Dxy                  1.999
     In     8      S                    1.421
     In     8      Px                   0.487
     In     8      Py                   0.483
     In     8      Pz                   0.478
     In     8      S                   -0.536
     In     9      Dzz                  1.999
     In     9      Dzy                  1.997
     In     9      Dzx                  1.997
     In     9      Dxx-yy               1.997
     In     9      Dxy                  1.999
     In     9      S                    1.412
     In     9      Px                   0.495
     In     9      Py                   0.475
     In     9      Pz                   0.473
     In     9      S                   -0.527
     In    10      Dzz                  1.999
     In    10      Dzy                  1.996
     In    10      Dzx                  1.997
     In    10      Dxx-yy               1.997
     In    10      Dxy                  1.999
     In    10      S                    1.436
     In    10      Px                   0.473
     In    10      Py                   0.451
     In    10      Pz                   0.500
     In    10      S                   -0.525
     In    11      Dzz                  1.999
     In    11      Dzy                  1.997
     In    11      Dzx                  1.997
     In    11      Dxx-yy               1.997
     In    11      Dxy                  1.999
     In    11      S                    1.412
     In    11      Px                   0.495
     In    11      Py                   0.475
     In    11      Pz                   0.473
     In    11      S                   -0.527
     In    12      Dzz                  1.999
     In    12      Dzy                  1.997
     In    12      Dzx                  1.996
     In    12      Dxx-yy               1.997
     In    12      Dxy                  1.999
     In    12      S                    1.421
     In    12      Px                   0.487
     In    12      Py                   0.483
     In    12      Pz                   0.478
     In    12      S                   -0.536
     In    13      Dzz                  1.999
     In    13      Dzy                  1.996
     In    13      Dzx                  1.997
     In    13      Dxx-yy               1.997
     In    13      Dxy                  1.999
     In    13      S                    1.436
     In    13      Px                   0.473
     In    13      Py                   0.451
     In    13      Pz                   0.500
     In    13      S                   -0.525
     In    14      Dzz                  1.999
     In    14      Dzy                  1.997
     In    14      Dzx                  1.997
     In    14      Dxx-yy               1.997
     In    14      Dxy                  1.999
     In    14      S                    1.412
     In    14      Px                   0.495
     In    14      Py                   0.475
     In    14      Pz                   0.473
     In    14      S                   -0.527
     In    15      Dzz                  1.999
     In    15      Dzy                  1.996
     In    15      Dzx                  1.997
     In    15      Dxx-yy               1.997
     In    15      Dxy                  1.999
     In    15      S                    1.436
     In    15      Px                   0.473
     In    15      Py                   0.451
     In    15      Pz                   0.500
     In    15      S                   -0.525
     In    16      Dzz                  1.999
     In    16      Dzy                  1.996
     In    16      Dzx                  1.997
     In    16      Dxx-yy               1.997
     In    16      Dxy                  1.999
     In    16      S                    1.436
     In    16      Px                   0.473
     In    16      Py                   0.451
     In    16      Pz                   0.500
     In    16      S                   -0.525
  -------------------------------------------
                           Total:     288.000
  -------------------------------------------

     Atomic Populations (Mulliken)
     -----------------------------
Species          Ion     s       p       d       f      Total   Charge (e)
==========================================================================
  P               1     1.729   3.950   0.000   0.000   5.679    -0.679
  P               2     1.733   3.950   0.000   0.000   5.683    -0.683
  P               3     1.731   3.959   0.000   0.000   5.690    -0.690
  P               4     1.729   3.950   0.000   0.000   5.679    -0.679
  P               5     1.730   3.947   0.000   0.000   5.677    -0.677
  P               6     1.729   3.950   0.000   0.000   5.679    -0.679
  P               7     1.733   3.950   0.000   0.000   5.683    -0.683
  P               8     1.730   3.947   0.000   0.000   5.677    -0.677
  P               9     1.733   3.950   0.000   0.000   5.683    -0.683
  P              10     1.731   3.959   0.000   0.000   5.690    -0.690
  P              11     1.729   3.950   0.000   0.000   5.679    -0.679
  P              12     1.731   3.959   0.000   0.000   5.690    -0.690
  P              13     1.730   3.947   0.000   0.000   5.677    -0.677
  P              14     1.730   3.947   0.000   0.000   5.677    -0.677
  P              15     1.731   3.959   0.000   0.000   5.690    -0.690
  P              16     1.733   3.950   0.000   0.000   5.683    -0.683
  In              1     0.885   1.443   9.989   0.000  12.317     0.683
  In              2     0.875   1.450   9.988   0.000  12.312     0.688
  In              3     0.886   1.448   9.988   0.000  12.322     0.678
  In              4     0.875   1.450   9.988   0.000  12.312     0.688
  In              5     0.886   1.448   9.988   0.000  12.322     0.678
  In              6     0.875   1.450   9.988   0.000  12.312     0.688
  In              7     0.875   1.450   9.988   0.000  12.312     0.688
  In              8     0.886   1.448   9.988   0.000  12.322     0.678
  In              9     0.885   1.443   9.989   0.000  12.317     0.683
  In             10     0.911   1.423   9.988   0.000  12.321     0.679
  In             11     0.885   1.443   9.989   0.000  12.317     0.683
  In             12     0.886   1.448   9.988   0.000  12.322     0.678
  In             13     0.911   1.423   9.988   0.000  12.321     0.679
  In             14     0.885   1.443   9.989   0.000  12.317     0.683
  In             15     0.911   1.423   9.988   0.000  12.321     0.679
  In             16     0.911   1.423   9.988   0.000  12.321     0.679
==========================================================================

                 Bond                   Population      Length (A)
======================================================================
              P 10 -- In 15                  0.90        2.36159
              P 12 -- In 16                  0.90        2.36159
              P 15 -- In 13                  0.90        2.36159
              P 3  -- In 10                  0.90        2.36159
              P 15 -- In 12                  0.73        2.51281
              P 10 -- In 5                   0.73        2.51281
              P 10 -- In 3                   0.73        2.51281
              P 3  -- In 12                  0.73        2.51281
              P 15 -- In 8                   0.73        2.51281
              P 12 -- In 3                   0.73        2.51281
              P 12 -- In 5                   0.73        2.51281
              P 3  -- In 8                   0.73        2.51281
              P 16 -- In 16                  0.68        2.52710
              P 2  -- In 15                  0.68        2.52710
              P 9  -- In 10                  0.68        2.52711
              P 16 -- In 15                  0.68        2.52711
              P 7  -- In 13                  0.68        2.52711
              P 2  -- In 16                  0.68        2.52711
              P 9  -- In 13                  0.68        2.52711
              P 7  -- In 10                  0.68        2.52711
              P 6  -- In 14                  0.70        2.52942
              P 11 -- In 1                   0.70        2.52942
              P 4  -- In 14                  0.70        2.52942
              P 4  -- In 11                  0.70        2.52942
              P 1  -- In 1                   0.70        2.52942
              P 1  -- In 9                   0.70        2.52942
              P 6  -- In 11                  0.70        2.52942
              P 11 -- In 9                   0.70        2.52942
              P 14 -- In 7                   0.70        2.52961
              P 13 -- In 7                   0.70        2.52961
              P 13 -- In 6                   0.70        2.52961
              P 14 -- In 6                   0.70        2.52961
              P 5  -- In 2                   0.70        2.52961
              P 8  -- In 2                   0.70        2.52961
              P 8  -- In 4                   0.70        2.52961
              P 5  -- In 4                   0.70        2.52961
              P 11 -- In 4                   0.66        2.54540
              P 6  -- In 4                   0.66        2.54540
              P 11 -- In 6                   0.66        2.54540
              P 6  -- In 6                   0.66        2.54540
              P 1  -- In 2                   0.66        2.54540
              P 1  -- In 7                   0.66        2.54541
              P 4  -- In 2                   0.66        2.54541
              P 4  -- In 7                   0.66        2.54541
              P 5  -- In 8                   0.64        2.54766
              P 14 -- In 8                   0.67        2.54766
              P 14 -- In 3                   0.64        2.54766
              P 8  -- In 12                  0.64        2.54767
              P 13 -- In 12                  0.67        2.54767
              P 5  -- In 3                   0.67        2.54767
              P 13 -- In 5                   0.64        2.54767
              P 8  -- In 5                   0.67        2.54767
              P 9  -- In 9                   0.65        2.54852
              P 16 -- In 11                  0.65        2.54852
              P 16 -- In 9                   0.65        2.54852
              P 9  -- In 11                  0.65        2.54852
              P 7  -- In 1                   0.65        2.54852
              P 2  -- In 1                   0.65        2.54852
              P 2  -- In 14                  0.65        2.54852
              P 7  -- In 14                  0.65        2.54852
======================================================================


     Hirshfeld Analysis
     ------------------
Species   Ion     Hirshfeld Charge (e)
======================================
  P        1                -0.24
  P        2                -0.23
  P        3                -0.26
  P        4                -0.24
  P        5                -0.24
  P        6                -0.24
  P        7                -0.23
  P        8                -0.24
  P        9                -0.23
  P       10                -0.26
  P       11                -0.24
  P       12                -0.26
  P       13                -0.24
  P       14                -0.24
  P       15                -0.26
  P       16                -0.23
  In       1                 0.24
  In       2                 0.24
  In       3                 0.24
  In       4                 0.24
  In       5                 0.24
  In       6                 0.24
  In       7                 0.24
  In       8                 0.24
  In       9                 0.24
  In      10                 0.25
  In      11                 0.24
  In      12                 0.24
  In      13                 0.25
  In      14                 0.24
  In      15                 0.25
  In      16                 0.25
======================================

 
 A BibTeX formatted list of references used in this run has been written to 
 StackingFaultStructs_(0_0_1)_(1_1_0)_1.bib
 
Initialisation time =     21.12 s
Calculation time    =   1173.11 s
Finalisation time   =      1.49 s
Total time          =   1195.72 s
Peak Memory Use     = 2462628 kB
 
Overall parallel efficiency rating: Poor (42%)
 
Data was distributed by:-
G-vector (7-way); efficiency rating: Poor (49%)
k-point (36-way); efficiency rating: Good (75%)
