 +-------------------------------------------------+
 |                                                 |
 |      CCC   AA    SSS  TTTTT  EEEEE  PPPP        |
 |     C     A  A  S       T    E      P   P       |
 |     C     AAAA   SS     T    EEE    PPPP        |
 |     C     A  A     S    T    E      P           |
 |      CCC  A  A  SSS     T    EEEEE  P           |
 |                                                 |
 +-------------------------------------------------+
 |                                                 |
 | Welcome to Academic Release CASTEP version 20.11|          
 | Ab Initio Total Energy Program                  |
 |                                                 |
 | Authors:                                        |
 | M. Segall, M. Probert, C. Pickard, P. Hasnip,   |
 | S. Clark, K. Refson, J. R. Yates, M. Payne      |
 |                                                 |
 | Contributors:                                   |
 | P. Lindan, P. Haynes, J. White, V. Milman,      |
 | N. Govind, M. Gibson, P. Tulip, V. Cocula,      |
 | B. Montanari, D. Quigley, M. Glover,            |
 | L. Bernasconi, A. Perlov, M. Plummer,           |
 | E. McNellis, J. Meyer, J. Gale, D. Jochym       |
 | J. Aarons, B. Walker, R. Gillen, D. Jones       |
 | T. Green, I. J. Bush, C. J. Armstrong,          |
 | E. J. Higgins, E. L. Brown, M. S. McFly,        |
 | J. Wilkins, B-C. Shih, P. J. P. Byrne,          |
 | R. J. Maurer, J. C. Womack, J. Dziedzic,        |
 | J. R. Kermode, A. Bartok-Partay                 |
 |                                                 |
 | Copyright (c) 2000 - 2020                       |
 |                                                 |
 |     Distributed under license from Cambridge    |
 |     Enterprise for academic use only.           |
 |                                                 |
 | Please cite                                     |
 |                                                 |
 |     "First principles methods using CASTEP"     |
 |                                                 |
 |         Zeitschrift fuer Kristallographie       |
 |           220(5-6) pp. 567-570 (2005)           |
 |                                                 |
 | S. J. Clark, M. D. Segall, C. J. Pickard,       |
 | P. J. Hasnip, M. J. Probert, K. Refson,         |
 | M. C. Payne                                     |
 |                                                 |
 |       in all publications arising from          |
 |              your use of CASTEP                 |
 |                                                 |
 +-------------------------------------------------+
 |                                                 |
 |              http://www.castep.org              |
 |                                                 |
 +-------------------------------------------------+
 
 
 
 Compiled for linux_x86_64_ifort on Wed, 25 Aug 2021 18:50:38 +0100
 from code version e772bf432+  HEAD  Sat Apr 3 17:41:32 2021 +0100
 Compiler: Intel Fortran 19.0.5.281; Optimisation: fast
 MATHLIBS: Intel MKL(2019.0.5) (LAPACK version 3.7.0)
 FFT Lib : mkl
 Fundamental constants values: CODATA 2014
 
 Run started: Fri, 16 Dec 2022 20:19:37 +0000
 
 Atomic calculation performed for P: 1s2 2s2 2p6 3s2 3p3
 
 Exceeded max iterations: converged to -0.000003405 eV
 The ae energy is -9309.074 eV
 
   ============================================================                
   | Pseudopotential Report - Date of generation 16-12-2022   |                
   ------------------------------------------------------------                
   | Element: P Ionic charge:  5.00 Level of theory: RSCAN    |                
   | Atomic Solver: Koelling-Harmon                           |                
   |                                                          |                
   |               Reference Electronic Structure             |                
   |         Orbital         Occupation         Energy        |                
   |            3s              2.000           -0.535        |                
   |            3p              3.000           -0.209        |                
   |                                                          |                
   |                 Pseudopotential Definition               |                
   |        Beta     l      e      Rc     scheme   norm       |                
   |          1      0   -0.535   1.807     qc      0         |                
   |          2      0    0.250   1.807     qc      0         |                
   |          3      1   -0.209   1.807     qc      0         |                
   |          4      1    0.250   1.807     qc      0         |                
   |          5      2    0.000   1.807     qc      0         |                
   |          6      2    0.250   1.807     qc      0         |                
   |         loc     3    0.000   1.807     pn      0         |                
   |                                                          |                
   | Augmentation charge Rinner = 1.263                       |                
   | Partial core correction Rc = 1.263                       |                
   ------------------------------------------------------------                
   | "3|1.8|4|4|5|30:31:32"                                   |                
   ------------------------------------------------------------                
   |      Author: Chris J. Pickard, Cambridge University      |                
   ============================================================                
 Warning: ion_atom_output_psp cannot write out meta-GGA pseudopotentials present
 ly.
 
 Atomic calculation performed for In:
 1s2 2s2 2p6 3s2 3p6 3d10 4s2 4p6 4d10 5s2 5p1
 
 Exceeded max iterations: converged to -0.000725459 eV
 The ae energy is -160093.321 eV
 
   ============================================================                
   | Pseudopotential Report - Date of generation 16-12-2022   |                
   ------------------------------------------------------------                
   | Element: In Ionic charge: 13.00 Level of theory: RSCAN   |                
   | Atomic Solver: Koelling-Harmon                           |                
   |                                                          |                
   |               Reference Electronic Structure             |                
   |         Orbital         Occupation         Energy        |                
   |            4d             10.000           -0.711        |                
   |            5s              2.000           -0.313        |                
   |            5p              1.000           -0.095        |                
   |                                                          |                
   |                 Pseudopotential Definition               |                
   |        Beta     l      e      Rc     scheme   norm       |                
   |          1      0   -0.313   2.501     qc      0         |                
   |          2      0    0.250   2.501     qc      0         |                
   |          3      1   -0.095   2.501     qc      0         |                
   |          4      1    0.250   2.501     qc      0         |                
   |          5      2   -0.711   2.207     qc      0         |                
   |          6      2    0.250   2.207     qc      0         |                
   |         loc     3    0.000   2.501     pn      0         |                
   |                                                          |                
   | Augmentation charge Rinner = 1.504                       |                
   | Partial core correction Rc = 1.504                       |                
   ------------------------------------------------------------                
   | "3|2.5|2.5|1.5|7|8|9|50:51:42U2.2U2.2"                   |                
   ------------------------------------------------------------                
   |      Author: Chris J. Pickard, Cambridge University      |                
   ============================================================                
 Warning: ion_atom_output_psp cannot write out meta-GGA pseudopotentials present
 ly.
 
 Pseudo atomic calculation performed for P 3s2 3p3
 
 Converged in 23 iterations to a total energy of -208.0292 eV
 
 Pseudo atomic calculation performed for In 4d10 5s2 5p1
 
 Converged in 42 iterations to a total energy of -1747.4504 eV
 Calculation parallelised over 32 processes.
 Data is distributed by k-point(32-way)

 ************************************ Title ************************************
 

 ***************************** General Parameters ******************************
  
 output verbosity                               : normal  (1)
 write checkpoint data to                       : WZ_EOS_1.1736.check
 type of calculation                            : single point energy
 stress calculation                             : on
 density difference calculation                 : off
 electron localisation func (ELF) calculation   : off
 Hirshfeld analysis                             : off
 molecular orbital projected DOS                : off
 deltaSCF calculation                           : off
 unlimited duration calculation
 timing information                             : on
 memory usage estimate                          : on
 write extra output files                       : on
 write final potential to formatted file        : off
 write final density to formatted file          : off
 write BibTeX reference list                    : on
 write OTFG pseudopotential files               : on
 write electrostatic potential file             : on
 write bands file                               : on
 checkpoint writing                             : off
  
 output         length unit                     : A
 output           mass unit                     : amu
 output           time unit                     : ps
 output         charge unit                     : e
 output           spin unit                     : hbar/2
 output         energy unit                     : eV
 output          force unit                     : eV/A
 output       velocity unit                     : A/ps
 output       pressure unit                     : GPa
 output     inv_length unit                     : 1/A
 output      frequency unit                     : cm-1
 output force constant unit                     : eV/A**2
 output         volume unit                     : A**3
 output   IR intensity unit                     : (D/A)**2/amu
 output         dipole unit                     : D
 output         efield unit                     : eV/A/e
 output        entropy unit                     : J/mol/K
 output    efield chi2 unit                     : pm/V
  
 wavefunctions paging                           : none
 random number generator seed                   : randomised (201937256)
 data distribution                              : optimal for this architecture
 optimization strategy                          : balance speed and memory

 *********************** Exchange-Correlation Parameters ***********************
  
 using functional                               : RSCAN
 relativistic treatment                         : Koelling-Harmon
 DFT+D: Semi-empirical dispersion correction    : off

 ************************* Pseudopotential Parameters **************************
  
 pseudopotential representation                 : reciprocal space
 <beta|phi> representation                      : reciprocal space
 spin-orbit coupling                            : off

 **************************** Basis Set Parameters *****************************
  
 plane wave basis set cut-off                   :   900.0000   eV
 size of standard grid                          :     1.7500
 size of   fine   gmax                          :    26.8966   1/A
 finite basis set correction                    : automatic
 number of sample energies                      :          3
           sample  spacing                      :     5.0000   eV

 **************************** Electronic Parameters ****************************
  
 number of  electrons                           :  36.00    
 net charge of system                           :  0.000    
 treating system as non-spin-polarized
 number of bands                                :         22

 ********************* Electronic Minimization Parameters **********************
  
 Method: Treating system as metallic with density mixing treatment of electrons,
         and number of  SD  steps               :          1
         and number of  CG  steps               :          4
  
 total energy / atom convergence tol.           : 0.1000E-07   eV
 eigen-energy convergence tolerance             : 0.2222E-08   eV
 max force / atom convergence tol.              : ignored
 convergence tolerance window                   :          3   cycles
 max. number of SCF cycles                      :         30
 number of fixed-spin iterations                :         10
 smearing scheme                                : Gaussian
 smearing width                                 : 0.2000       eV
 Fermi energy convergence tolerance             : 0.2721E-13   eV
 periodic dipole correction                     : NONE

 ************************** Density Mixing Parameters **************************
  
 density-mixing scheme                          : Broyden
 max. length of mixing history                  :         20
 charge density mixing amplitude                : 0.8000    
 cut-off energy for mixing                      :  900.0       eV

 *********************** Population Analysis Parameters ************************
  
 Population analysis with cutoff                :  3.000       A
 Population analysis output                     : summary and pdos components

 *******************************************************************************
  
 
                           -------------------------------
                                      Unit Cell
                           -------------------------------
        Real Lattice(A)                      Reciprocal Lattice(1/A)
     4.8875620    -0.0000510     0.0000000        1.285538159  -0.742188030   0.000000000
     2.4437370     4.2327780     0.0000000        0.000015489   1.484402786   0.000000000
     0.0000000     0.0000000     8.0264330        0.000000000   0.000000000   0.782811656
 
                       Lattice parameters(A)       Cell Angles
                    a =      4.887562          alpha =   90.000000
                    b =      4.887562          beta  =   90.000000
                    c =      8.026433          gamma =   60.001192
 
                       Current cell volume =           166.051565       A**3
                                   density =             1.755982   AMU/A**3
                                           =             2.915876     g/cm^3
 
                           -------------------------------
                                     Cell Contents
                           -------------------------------
                         Total number of ions in cell =    4
                      Total number of species in cell =    2
                        Max number of any one species =    2
 
            xxxxxxxxxxxxxxxxxxxxxxxxxxxxxxxxxxxxxxxxxxxxxxxxxxxxxxxxxxxx
            x  Element    Atom        Fractional coordinates of atoms  x
            x            Number           u          v          w      x
            x----------------------------------------------------------x
            x  P            1         0.333329   0.333331  -0.000013   x 
            x  P            2         0.666669   0.666671   0.499987   x 
            x  In           1         0.333331   0.333333   0.374443   x 
            x  In           2         0.666667   0.666669   0.874443   x 
            xxxxxxxxxxxxxxxxxxxxxxxxxxxxxxxxxxxxxxxxxxxxxxxxxxxxxxxxxxxx
 
 
                         No user defined ionic velocities
 
                           -------------------------------
                                   Details of Species
                           -------------------------------
 
                               Mass of species in AMU
                                    P   30.9737600
                                    In  114.8180000
 
                          Electric Quadrupole Moment (Barn)
                                    P    1.0000000 No Isotope Defined
                                    In    0.7700000 Isotope115
 
                          Files used for pseudopotentials:
                                    P 3|1.8|4|4|5|30:31:32
                                    In 3|2.5|2.5|1.5|7|8|9|50:51:42U2.2U2.2
 
                           -------------------------------
                              k-Points For BZ Sampling
                           -------------------------------
                       MP grid size for SCF calculation is  9  9  5
                            with an offset of   0.056  0.056  0.100
                       Number of kpoints used =           203
 
                           -------------------------------
                               Symmetry and Constraints
                           -------------------------------
 
                      Maximum deviation from symmetry =  0.00000         ANG
 
                      Number of symmetry operations   =           1
                      Number of ionic constraints     =           3
                      Point group of crystal =     1: C1, 1, 1
                      Space group of crystal =   186: P6_3mc, P 6c -2c
 
             Set iprint > 1 for details on symmetry rotations/translations
 
                         Centre of mass is constrained
             Set iprint > 1 for details of linear ionic constraints
 
                         Number of cell constraints= 0
                         Cell constraints are:  1 2 3 4 5 6
 
                         External pressure/stress (GPa)
                          0.00000   0.00000   0.00000
                                    0.00000   0.00000
                                              0.00000
  
+---------------- MEMORY AND SCRATCH DISK ESTIMATES PER PROCESS --------------+
|                                                     Memory          Disk    |
| Baseline code, static data and system overhead      394.0 MB         0.0 MB |
| BLAS internal memory storage                          0.0 MB         0.0 MB |
| Model and support data                              252.2 MB       771.7 MB |
| Electronic energy minimisation requirements          99.2 MB         0.0 MB |
| Force calculation requirements                       21.1 MB         0.0 MB |
| Stress calculation requirements                      23.4 MB         0.0 MB |
|                                               ----------------------------- |
| Approx. total storage required per process          745.4 MB       771.7 MB |
|                                                                             |
| Requirements will fluctuate during execution and may exceed these estimates |
+-----------------------------------------------------------------------------+
Calculating finite basis set correction with  3 cut-off energies.
Calculating total energy with cut-off of  890.000 eV.
------------------------------------------------------------------------ <-- SCF
SCF loop      Energy           Fermi           Energy gain       Timer   <-- SCF
                               energy          per atom          (sec)   <-- SCF
------------------------------------------------------------------------ <-- SCF
Initial  -3.08694859E+003  0.00000000E+000                        21.81  <-- SCF
      1  -3.80303692E+003  2.42658620E+000   1.79022081E+002      45.51  <-- SCF
      2  -3.91071110E+003 -5.69632843E-001   2.69185453E+001      61.17  <-- SCF
      3  -3.91554329E+003 -9.62755410E-001   1.20804831E+000      77.05  <-- SCF
      4  -3.92714100E+003 -2.66926497E-001   2.89942754E+000      97.41  <-- SCF
      5  -3.92715403E+003 -2.67392617E-001   3.25601100E-003     116.90  <-- SCF
      6  -3.92754715E+003 -3.20892731E-001   9.82816021E-002     137.58  <-- SCF
      7  -3.92667441E+003 -2.34585675E-001  -2.18185738E-001     157.70  <-- SCF
      8  -3.92669438E+003 -1.85438358E-001   4.99224966E-003     177.96  <-- SCF
      9  -3.92669450E+003 -1.68450228E-001   2.94202753E-005     200.44  <-- SCF
     10  -3.92669477E+003 -1.57435783E-001   6.88661795E-005     220.89  <-- SCF
     11  -3.92669519E+003 -1.51518455E-001   1.03070937E-004     241.39  <-- SCF
     12  -3.92669528E+003 -1.51243262E-001   2.45409505E-005     262.16  <-- SCF
     13  -3.92669529E+003 -1.50466433E-001   2.79340690E-006     282.67  <-- SCF
     14  -3.92669530E+003 -1.50298690E-001   7.22754968E-007     301.59  <-- SCF
     15  -3.92669530E+003 -1.50300459E-001   2.56374346E-008     317.04  <-- SCF
     16  -3.92669530E+003 -1.50287030E-001   1.75719008E-008     331.68  <-- SCF
     17  -3.92669530E+003 -1.50276097E-001   1.61581364E-009     346.24  <-- SCF
     18  -3.92669530E+003 -1.50275376E-001   2.82288849E-010     360.81  <-- SCF
------------------------------------------------------------------------ <-- SCF
 
Final energy, E             =  -3926.691302793     eV
Final free energy (E-TS)    =  -3926.695297889     eV
(energies not corrected for finite basis set)
 
NB est. 0K energy (E-0.5TS)      =  -3926.693300341     eV
 
Calculating total energy with cut-off of  895.000 eV.
------------------------------------------------------------------------ <-- SCF
SCF loop      Energy           Fermi           Energy gain       Timer   <-- SCF
                               energy          per atom          (sec)   <-- SCF
------------------------------------------------------------------------ <-- SCF
Initial  -3.92669130E+003  0.00000000E+000                       369.37  <-- SCF
      1  -3.92669530E+003 -1.50272292E-001   9.99386674E-004     387.31  <-- SCF
      2  -3.92669530E+003 -1.50272292E-001   2.80355364E-011     402.23  <-- SCF
      3  -3.92669530E+003 -1.50272066E-001   2.88669350E-010     416.70  <-- SCF
      4  -3.92669530E+003 -1.50272924E-001   3.17091584E-011     431.20  <-- SCF
------------------------------------------------------------------------ <-- SCF
 
Final energy, E             =  -3926.691305253     eV
Final free energy (E-TS)    =  -3926.695300345     eV
(energies not corrected for finite basis set)
 
NB est. 0K energy (E-0.5TS)      =  -3926.693302799     eV
 
Calculating total energy with cut-off of  900.000 eV.
------------------------------------------------------------------------ <-- SCF
SCF loop      Energy           Fermi           Energy gain       Timer   <-- SCF
                               energy          per atom          (sec)   <-- SCF
------------------------------------------------------------------------ <-- SCF
Initial  -3.92669131E+003  0.00000000E+000                       440.31  <-- SCF
      1  -3.92669530E+003 -1.50272664E-001   9.99204820E-004     458.32  <-- SCF
      2  -3.92669530E+003 -1.50272664E-001   1.08275175E-011     472.64  <-- SCF
      3  -3.92669530E+003 -1.50273005E-001   1.96828800E-010     486.90  <-- SCF
      4  -3.92669530E+003 -1.50273240E-001   1.74013674E-011     501.09  <-- SCF
------------------------------------------------------------------------ <-- SCF
 
Final energy, E             =  -3926.691306982     eV
Final free energy (E-TS)    =  -3926.695302076     eV
(energies not corrected for finite basis set)
 
NB est. 0K energy (E-0.5TS)      =  -3926.693304529     eV
 
 For future reference: finite basis dEtot/dlog(Ecut) =      -0.000374eV
 Total energy corrected for finite basis set =   -3926.695302 eV
 
 ************************** Forces **************************
 *                                                          *
 *               Cartesian components (eV/A)                *
 * -------------------------------------------------------- *
 *                         x            y            z      *
 *                                                          *
 * P               1     -0.00032     -0.00019     -0.05109 *
 * P               2      0.00032      0.00018     -0.05109 *
 * In              1     -0.00025     -0.00014      0.05109 *
 * In              2      0.00025      0.00015      0.05109 *
 *                                                          *
 ************************************************************
 
 ***************** Stress Tensor *****************
 *                                               *
 *          Cartesian components (GPa)           *
 * --------------------------------------------- *
 *             x             y             z     *
 *                                               *
 *  x     10.101619      0.001335     -0.000001  *
 *  y      0.001335     10.100072     -0.000001  *
 *  z     -0.000001     -0.000001     10.131824  *
 *                                               *
 *  Pressure:  -10.1112                          *
 *                                               *
 *************************************************
 
 Pseudo atomic calculation performed for P 3s2 3p3
 
 Converged in 23 iterations to a total energy of -208.0292 eV
 
 Pseudo atomic calculation performed for In 4d10 5s2 5p1
 
 Converged in 42 iterations to a total energy of -1747.4504 eV
Charge spilling parameter for spin component 1 = 0.12%
 
            Orbital Populations       
     Ion    Atom   Orbital             Charge
  -------------------------------------------
      P     1      S                    1.875
      P     1      Px                   1.216
      P     1      Py                   1.216
      P     1      Pz                   1.217
      P     2      S                    1.875
      P     2      Px                   1.216
      P     2      Py                   1.216
      P     2      Pz                   1.217
     In     1      Dzz                  2.000
     In     1      Dzy                  2.000
     In     1      Dzx                  2.000
     In     1      Dxx-yy               2.000
     In     1      Dxy                  2.000
     In     1      S                    1.470
     In     1      Px                   0.393
     In     1      Py                   0.394
     In     1      Pz                   0.390
     In     1      S                   -0.170
     In     2      Dzz                  2.000
     In     2      Dzy                  2.000
     In     2      Dzx                  2.000
     In     2      Dxx-yy               2.000
     In     2      Dxy                  2.000
     In     2      S                    1.470
     In     2      Px                   0.393
     In     2      Py                   0.394
     In     2      Pz                   0.390
     In     2      S                   -0.170
  -------------------------------------------
                           Total:      36.000
  -------------------------------------------
 
     Atomic Populations (Mulliken)
     -----------------------------
Species          Ion     s      p      d      f     Total  Charge (e)
=====================================================================
  P               1     1.88   3.65   0.00   0.00   5.52    -0.52
  P               2     1.88   3.65   0.00   0.00   5.52    -0.52
  In              1     1.30   1.18  10.00   0.00  12.48     0.52
  In              2     1.30   1.18  10.00   0.00  12.48     0.52
=====================================================================
 
                 Bond                   Population      Length (A)
======================================================================
               P 2 -- In 1                   1.34        2.99637
               P 1 -- In 2                   1.34        2.99637
======================================================================
 
 
 A BibTeX formatted list of references used in this run has been written to 
 WZ_EOS_1.1736.bib
 
Initialisation time =     16.24 s
Calculation time    =    549.19 s
Finalisation time   =      0.28 s
Total time          =    565.71 s
Peak Memory Use     = 1891040 kB
  
Overall parallel efficiency rating: Excellent (96%)                             
  
Data was distributed by:-
k-point (32-way); efficiency rating: Excellent (97%)                            
  
Parallel notes:
1) Calculation only took 565.5 s, so efficiency estimates may be inaccurate.    
