 +-------------------------------------------------+
 |                                                 |
 |      CCC   AA    SSS  TTTTT  EEEEE  PPPP        |
 |     C     A  A  S       T    E      P   P       |
 |     C     AAAA   SS     T    EEE    PPPP        |
 |     C     A  A     S    T    E      P           |
 |      CCC  A  A  SSS     T    EEEEE  P           |
 |                                                 |
 +-------------------------------------------------+
 |                                                 |
 | Welcome to Academic Release CASTEP version 24.1 |
 | Ab Initio Total Energy Program                  |
 |                                                 |
 | Authors:                                        |
 | M. Segall, M. Probert, C. Pickard, P. Hasnip,   |
 | S. Clark, K. Refson, J. R. Yates,               |
 | A. Bartok-Partay, M. Payne                      |
 |                                                 |
 | Contributors:                                   |
 | P. Lindan, P. Haynes, J. White, V. Milman,      |
 | N. Govind, M. Gibson, P. Tulip, V. Cocula,      |
 | B. Montanari, D. Quigley, M. Glover,            |
 | L. Bernasconi, A. Perlov, M. Plummer,           |
 | E. McNellis, J. Meyer, J. Gale, D. Jochym       |
 | J. Aarons, B. Walker, R. Gillen, D. Jones       |
 | T. Green, I. J. Bush, C. J. Armstrong,          |
 | E. J. Higgins, E. L. Brown, M. S. McFly,        |
 | J. Wilkins, B-C. Shih, P. J. P. Byrne,          |
 | R. J. Maurer, J. C. Womack, J. Dziedzic,        |
 | L. LeBlanc, T. K. Stenczel, J. Kermode,         |
 | S. Sturniolo, B. Shi, B. Durham, M. Evans,      |
 | M. J. Smith, A. Tamerus, Z. Hawkhead,           |
 | V. Ravindran, T. Hollins, S. A. Joyce,          |
 | R. T. Strong, A. M. Reilly, S. J. Donaldson     |
 |                                                 |
 | Copyright (c) 2000 - 2023                       |
 |                                                 |
 |     Distributed under license from Cambridge    |
 |     Enterprise for academic use only.           |
 |                                                 |
 | Please cite                                     |
 |                                                 |
 |     "First principles methods using CASTEP"     |
 |                                                 |
 |         Zeitschrift fuer Kristallographie       |
 |           220(5-6) pp. 567-570 (2005)           |
 |                                                 |
 | S. J. Clark, M. D. Segall, C. J. Pickard,       |
 | P. J. Hasnip, M. J. Probert, K. Refson,         |
 | M. C. Payne                                     |
 |                                                 |
 |       in all publications arising from          |
 |              your use of CASTEP                 |
 |                                                 |
 +-------------------------------------------------+
 |                                                 |
 |              http://www.castep.org              |
 |                                                 |
 +-------------------------------------------------+



 Compiled for  GNU 11.2.0 on 04-04-2024 18:39:17
 from code version 6355fd106 Castep241_branch Thu Mar 7 17:56:19 2024 +0000
 Compiler: GNU Fortran 11.2.0; Optimisation: FAST
 Comms   : MPI VERSION : CRAY MPICH version 8.1.23.14 (ANL base 3.4a2)
 MATHLIBS: default (LAPACK version 3.10.1)
 FFT Lib : fftw3 version commercial-fftw-3.3.10-sse2-avx-avx2-avx2_128
 Fundamental constants values: CODATA 2018

 Run started: Mon, 24 Mar 2025 00:33:29 +0000

 Atomic calculation performed for P: 1s2 2s2 2p6 3s2 3p3

 Converged in 47 iterations to an ae energy of -9309.074 eV

   ============================================================                
   | Pseudopotential Report - Date of generation 24-03-2025   |                
   ------------------------------------------------------------                
   | Element: P Ionic charge:  5.00 Level of theory: RSCAN    |                
   | Atomic Solver: Koelling-Harmon                           |                
   |                                                          |                
   |               Reference Electronic Structure             |                
   |         Orbital         Occupation         Energy        |                
   |            3s              2.000           -0.535        |                
   |            3p              3.000           -0.209        |                
   |                                                          |                
   |                 Pseudopotential Definition               |                
   |        Beta     l      e      Rc     scheme   norm       |                
   |          1      0   -0.535   1.807     qc      0         |                
   |          2      0    0.250   1.807     qc      0         |                
   |          3      1   -0.209   1.807     qc      0         |                
   |          4      1    0.250   1.807     qc      0         |                
   |          5      2    0.000   1.807     qc      0         |                
   |          6      2    0.250   1.807     qc      0         |                
   |         loc     3    0.000   1.807     pn      0         |                
   |                                                          |                
   | Augmentation charge Rinner = 1.263                       |                
   | Partial core correction Rc = 1.263                       |                
   ------------------------------------------------------------                
   | "3|1.8|4|4|5|30:31:32"                                   |                
   ------------------------------------------------------------                
   |      Author: Chris J. Pickard, Cambridge University      |                
   ============================================================                
 Warning: otfg_output_psp cannot write out meta-GGA pseudopotentials presently.

 Atomic calculation performed for In:
 1s2 2s2 2p6 3s2 3p6 3d10 4s2 4p6 4d10 5s2 5p1

 Converged in 84 iterations to an ae energy of -160093.328 eV

   ============================================================                
   | Pseudopotential Report - Date of generation 24-03-2025   |                
   ------------------------------------------------------------                
   | Element: In Ionic charge: 13.00 Level of theory: RSCAN   |                
   | Atomic Solver: Koelling-Harmon                           |                
   |                                                          |                
   |               Reference Electronic Structure             |                
   |         Orbital         Occupation         Energy        |                
   |            4d             10.000           -0.711        |                
   |            5s              2.000           -0.313        |                
   |            5p              1.000           -0.095        |                
   |                                                          |                
   |                 Pseudopotential Definition               |                
   |        Beta     l      e      Rc     scheme   norm       |                
   |          1      0   -0.313   2.501     qc      0         |                
   |          2      0    0.250   2.501     qc      0         |                
   |          3      1   -0.095   2.501     qc      0         |                
   |          4      1    0.250   2.501     qc      0         |                
   |          5      2   -0.711   2.207     qc      0         |                
   |          6      2    0.250   2.207     qc      0         |                
   |         loc     3    0.000   2.501     pn      0         |                
   |                                                          |                
   | Augmentation charge Rinner = 1.504                       |                
   | Partial core correction Rc = 1.504                       |                
   ------------------------------------------------------------                
   | "3|2.5|2.5|1.5|7|8|9|50:51:42U2.2U2.2"                   |                
   ------------------------------------------------------------                
   |      Author: Chris J. Pickard, Cambridge University      |                
   ============================================================                
 Warning: otfg_output_psp cannot write out meta-GGA pseudopotentials presently.

 Pseudo atomic calculation performed for P 3s2 3p3

 Converged in 23 iterations to a total energy of -208.0292 eV

 Pseudo atomic calculation performed for In 4d10 5s2 5p1

 Converged in 42 iterations to a total energy of -1747.4501 eV
 Calculation parallelised over 84 processes.
 Data is distributed by k-point(84-way)
 Each process may use up to 16 threads.

 ************************************ Title ************************************
 

 ***************************** General Parameters ******************************
  
 output verbosity                               : normal  (1)
 write checkpoint data to                       : StackingFaultStructs_001_110_5.check
 type of calculation                            : geometry optimization
 stress calculation                             : off
 density difference calculation                 : off
 electron localisation func (ELF) calculation   : off
 Hirshfeld analysis                             : on
 polarisation (Berry phase) analysis            : off
 molecular orbital projected DOS                : off
 deltaSCF calculation                           : off
 unlimited duration calculation
 timing information                             : on
 memory usage estimate                          : on
 write extra output files                       : on
 write final potential to formatted file        : off
 write final density to formatted file          : off
 write BibTeX reference list                    : on
 write OTFG pseudopotential files               : on
 write electrostatic potential file             : on
 write bands file                               : on
 checkpoint writing                             : off
  
 output         length unit                     : A
 output           mass unit                     : amu
 output           time unit                     : ps
 output         charge unit                     : e
 output           spin unit                     : hbar/2
 output         energy unit                     : eV
 output          force unit                     : eV/A
 output       velocity unit                     : A/ps
 output       pressure unit                     : GPa
 output     inv_length unit                     : 1/A
 output      frequency unit                     : cm-1
 output force constant unit                     : eV/A**2
 output         volume unit                     : A**3
 output   IR intensity unit                     : (D/A)**2/amu
 output         dipole unit                     : D
 output         efield unit                     : eV/A/e
 output        entropy unit                     : J/mol/K
 output    efield chi2 unit                     : pm/V
  
 wavefunctions paging                           : none
 random number generator seed                   :    3329897
 data distribution                              : optimal for this architecture
 optimization strategy                          : balance speed and memory

 *********************** Exchange-Correlation Parameters ***********************
  
 using functional                               : RSCAN
 relativistic treatment                         : Koelling-Harmon
 DFT+D: Semi-empirical dispersion correction    : off

 ************************* Pseudopotential Parameters **************************
  
 pseudopotential representation                 : reciprocal space
 <beta|phi> representation                      : reciprocal space
 spin-orbit coupling                            : off

 **************************** Basis Set Parameters *****************************
  
 plane wave basis set cut-off                   :   900.0000   eV
 size of standard grid                          :     2.0000
 size of   fine   gmax                          :    30.7390   1/A
 finite basis set correction                    : none

 **************************** Electronic Parameters ****************************
  
 number of  electrons                           :  216.0    
 net charge of system                           :  0.000    
 treating system as non-spin-polarized
 number of bands                                :        130

 ********************* Electronic Minimization Parameters **********************
  
 Method: Treating system as metallic with density mixing treatment of electrons,
         and number of  SD  steps               :          1
         and number of  CG  steps               :          4
  
 total energy / atom convergence tol.           : 0.1000E-07   eV
 eigen-energy convergence tolerance             : 0.2222E-08   eV
 max force / atom convergence tol.              : ignored
 convergence tolerance window                   :          3   cycles
 max. number of SCF cycles                      :         50
 number of fixed-spin iterations                :         10
 smearing scheme                                : Gaussian
 smearing width                                 : 0.2000       eV
 Fermi energy convergence tolerance             : 0.2721E-13   eV
 periodic dipole correction                     : NONE

 ************************** Density Mixing Parameters **************************
  
 density-mixing scheme                          : Pulay
 max. length of mixing history                  :         15
 charge density mixing amplitude                : 0.5000    
 cut-off energy for mixing                      :  900.0       eV

 *********************** Population Analysis Parameters ************************
  
 Population analysis with cutoff                :  3.000       A
 Population analysis output                     : summary and pdos components

 ********************** Geometry Optimization Parameters ***********************
  
 optimization method                            : LBFGS
 max. no. of LBFGS updates                      : unbounded
 preconditioned LBFGS is activated
 preconditioner type                            : EXP
     stabilization constant                     :     0.1000
     parameter A                                :     3.0000
     nearest neighbor distance                  : automatic
     cut-off distance                           : automatic
     parameter mu                               : automatic
 variable cell method                           : fixed basis quality
 max. number of steps                           :         30
 estimated bulk modulus                         :  500.0       GPa
 estimated <frequency>                          :  1668.       cm-1
 geom line minimiser                            : on
 with line minimiser tolerance                  :     0.4000
 total energy convergence tolerance             : 0.2000E-04   eV/atom
        max ionic |force| tolerance             : 0.1000E-02   eV/A
 max ionic |displacement| tolerance             : 0.1000E-02   A
   max |stress component| tolerance             : 0.1000       GPa
 convergence tolerance window                   :          2   steps
 backup results every                           :          5   steps
 write geom trajectory file                     : on

 *******************************************************************************
  

                           -------------------------------
                                      Unit Cell
                           -------------------------------
        Real Lattice(A)                      Reciprocal Lattice(1/A)
     4.1725270     0.0000000     0.0000000        1.505846531   0.000000000   0.000000000
     0.0000000     4.1725270     0.0000000        0.000000000   1.505846531  -0.110916061
     0.0000000     2.6078290    35.4050640        0.000000000   0.000000000   0.177465724

                       Lattice parameters(A)       Cell Angles
                    a =      4.172527          alpha =   85.787375
                    b =      4.172527          beta  =   90.000000
                    c =     35.500976          gamma =   90.000000

                       Current cell volume =           616.401512       A**3
                                   density =             2.838249   AMU/A**3
                                           =             4.713024     g/cm^3

                           -------------------------------
                                     Cell Contents
                           -------------------------------
                         Total number of ions in cell =   24
                      Total number of species in cell =    2
                        Max number of any one species =   12

            xxxxxxxxxxxxxxxxxxxxxxxxxxxxxxxxxxxxxxxxxxxxxxxxxxxxxxxxxxxx
            x  Element    Atom        Fractional coordinates of atoms  x
            x            Number           u          v          w      x
            x----------------------------------------------------------x
            x  P            1         0.500000  -0.286440   0.458305   x 
            x  P            2         0.000000   0.369588   0.208659   x 
            x  P            3         0.000000   0.265570   0.375089   x 
            x  P            4         0.000000  -0.046508   0.874412   x 
            x  P            5         0.500000  -0.390463   0.624741   x 
            x  P            6         0.000000   0.161548   0.541523   x 
            x  P            7         0.500000  -0.182422   0.291875   x 
            x  P            8         0.500000  -0.494484   0.791174   x 
            x  P            9         0.000000   0.057511   0.707982   x 
            x  P           10         0.000000   0.473945   0.041688   x 
            x  P           11         0.500000  -0.602006   0.963210   x 
            x  P           12         0.500000  -0.078390   0.125425   x 
            x  In           1         0.500000   0.239566   0.416694   x 
            x  In           2         0.000000  -0.520472   0.832755   x 
            x  In           3         0.500000   0.031519   0.749570   x 
            x  In           4         0.000000  -0.416468   0.666349   x 
            x  In           5         0.500000   0.135542   0.583132   x 
            x  In           6         0.000000  -0.312446   0.499914   x 
            x  In           7         0.000000  -0.208423   0.333477   x 
            x  In           8         0.500000  -0.072870   0.916593   x 
            x  In           9         0.000000  -0.104335   0.166936   x 
            x  In          10         0.500000   0.447769   0.083569   x 
            x  In          11         0.000000   0.002074  -0.003318   x 
            x  In          12         0.500000   0.343595   0.250247   x 
            xxxxxxxxxxxxxxxxxxxxxxxxxxxxxxxxxxxxxxxxxxxxxxxxxxxxxxxxxxxx


                         No user defined ionic velocities

                           -------------------------------
                                   Details of Species
                           -------------------------------

                               Mass of species in AMU
                                    P   30.9737600
                                    In  114.8180000

                          Electric Quadrupole Moment (Barn)
                                    P    1.0000000 No Isotope Defined
                                    In    0.7700000 Isotope115

                          Files used for pseudopotentials:
                                    P 3|1.8|4|4|5|30:31:32
                                    In 3|2.5|2.5|1.5|7|8|9|50:51:42U2.2U2.2

                           -------------------------------
                              k-Points For BZ Sampling
                           -------------------------------
                       MP grid size for SCF calculation is  8 10  2
                            with an offset of   0.062  0.050  0.250
                       Number of kpoints used =            84

                           -------------------------------
                               Symmetry and Constraints
                           -------------------------------

                      Maximum deviation from symmetry =  0.00000         ANG

                      Number of symmetry operations   =           1
                      Number of ionic constraints     =          48
                      Point group of crystal =     1: C1, 1, 1
                      Space group of crystal =     6: Pm, P -2y

             Set iprint > 1 for details on symmetry rotations/translations

                         Centre of mass is NOT constrained
             Set iprint > 1 for details of linear ionic constraints

                         Number of cell constraints= 6
                         Cell constraints are:  0 0 0 0 0 0

                         External pressure/stress (GPa)
                          0.00000   0.00000   0.00000
                                    0.00000   0.00000
                                              0.00000
 
+---------------- MEMORY AND SCRATCH DISK ESTIMATES PER PROCESS --------------+
|                                                     Memory          Disk    |
| Baseline code, static data and system overhead      386.0 MB         0.0 MB |
| BLAS internal memory storage                          0.0 MB         0.0 MB |
| Model and support data                             4597.4 MB         0.0 MB |
| Electronic energy minimisation requirements         524.6 MB         0.0 MB |
| Force calculation requirements                      105.7 MB         0.0 MB |
|                                               ----------------------------- |
| Approx. total storage required per process         5508.0 MB         0.0 MB |
|                                                                             |
| Requirements will fluctuate during execution and may exceed these estimates |
+-----------------------------------------------------------------------------+
Calculating approximate eigenstates for fixed initial Hamiltonian
Cut-off for approx. calculation is   89.988 eV
Improving approx. states at cut-off of  450.000 eV
Resetting cut-off to  900.000 eV
Calculating total energy with cut-off of  900.000 eV.
------------------------------------------------------------------------ <-- SCF
SCF loop      Energy           Fermi           Energy gain       Timer   <-- SCF
                               energy          per atom          (sec)   <-- SCF
------------------------------------------------------------------------ <-- SCF
Initial  -2.36454198E+004  0.00000000E+000                        79.67  <-- SCF
      1  -2.35503792E+004  2.57694158E+000  -3.96002653E+000     125.22  <-- SCF
      2  -2.35504586E+004  2.57525161E+000   3.30960729E-003     155.64  <-- SCF
      3  -2.35755837E+004  2.85692023E+000   1.04687817E+000     192.81  <-- SCF
      4  -2.35800940E+004  2.90939740E+000   1.87926755E-001     240.61  <-- SCF
      5  -2.35776835E+004  3.13042796E+000  -1.00434861E-001     277.52  <-- SCF
      6  -2.35776819E+004  3.18123033E+000  -6.69848329E-005     312.32  <-- SCF
      7  -2.35776377E+004  3.22676618E+000  -1.84142513E-003     350.79  <-- SCF
      8  -2.35781571E+004  3.23554290E+000   2.16409308E-002     387.95  <-- SCF
      9  -2.35781899E+004  3.21730295E+000   1.36485191E-003     426.53  <-- SCF
     10  -2.35781907E+004  3.21814674E+000   3.56658835E-005     465.39  <-- SCF
     11  -2.35781920E+004  3.21457863E+000   5.39479113E-005     504.05  <-- SCF
     12  -2.35781919E+004  3.21590016E+000  -3.58743809E-006     542.76  <-- SCF
     13  -2.35781920E+004  3.21640016E+000   2.22467590E-006     580.72  <-- SCF
     14  -2.35781920E+004  3.21564124E+000  -5.42855253E-007     616.38  <-- SCF
     15  -2.35781920E+004  3.21552076E+000  -5.60317589E-007     653.44  <-- SCF
     16  -2.35781920E+004  3.21508420E+000   2.27218034E-008     689.53  <-- SCF
     17  -2.35781920E+004  3.21519921E+000   1.85621676E-007     721.57  <-- SCF
     18  -2.35781920E+004  3.21523195E+000   6.48684312E-009     750.02  <-- SCF
     19  -2.35781920E+004  3.21522476E+000  -2.62825099E-010     777.13  <-- SCF
------------------------------------------------------------------------ <-- SCF
 
Final energy, E             =  -23578.17919041     eV
Final free energy (E-TS)    =  -23578.19195701     eV
(energies not corrected for finite basis set)
 
NB est. 0K energy (E-0.5TS)      =  -23578.18557371     eV
 
 
+---------------- MEMORY AND SCRATCH DISK ESTIMATES PER PROCESS --------------+
|                                                     Memory          Disk    |
| Model and support data                             2667.4 MB         0.0 MB |
| Electronic energy minimisation requirements         524.6 MB         0.0 MB |
| Geometry minimisation requirements                  612.0 MB         0.0 MB |
|                                               ----------------------------- |
| Approx. total storage required per process         3804.1 MB         0.0 MB |
|                                                                             |
| Requirements will fluctuate during execution and may exceed these estimates |
+-----------------------------------------------------------------------------+
 

 ******************************** Constrained Forces ********************************
 *                                                                                  *
 *                           Cartesian components (eV/A)                            *
 * -------------------------------------------------------------------------------- *
 *                         x                    y                    z              *
 *                                                                                  *
 * P               1      0.00000(cons'd)      0.00000(cons'd)      0.00992         *
 * P               2      0.00000(cons'd)      0.00000(cons'd)     -0.00201         *
 * P               3      0.00000(cons'd)     -0.00000(cons'd)      0.00788         *
 * P               4      0.00000(cons'd)      0.00000(cons'd)      0.03749         *
 * P               5      0.00000(cons'd)      0.00000(cons'd)      0.00806         *
 * P               6      0.00000(cons'd)      0.00000(cons'd)      0.00578         *
 * P               7     -0.00000(cons'd)     -0.00000(cons'd)      0.01327         *
 * P               8     -0.00000(cons'd)      0.00000(cons'd)     -0.00391         *
 * P               9      0.00000(cons'd)      0.00000(cons'd)     -0.00667         *
 * P              10      0.00000(cons'd)      0.00000(cons'd)      0.02023         *
 * P              11      0.00000(cons'd)      0.00000(cons'd)     -0.11622         *
 * P              12     -0.00000(cons'd)      0.00000(cons'd)     -0.01172         *
 * In              1      0.00000(cons'd)      0.00000(cons'd)     -0.00869         *
 * In              2      0.00000(cons'd)      0.00000(cons'd)      0.02425         *
 * In              3      0.00000(cons'd)      0.00000(cons'd)     -0.00563         *
 * In              4      0.00000(cons'd)     -0.00000(cons'd)     -0.00306         *
 * In              5      0.00000(cons'd)      0.00000(cons'd)     -0.00834         *
 * In              6      0.00000(cons'd)      0.00000(cons'd)     -0.00879         *
 * In              7      0.00000(cons'd)      0.00000(cons'd)     -0.00940         *
 * In              8      0.00000(cons'd)      0.00000(cons'd)      0.00462         *
 * In              9      0.00000(cons'd)      0.00000(cons'd)      0.01515         *
 * In             10      0.00000(cons'd)      0.00000(cons'd)      0.02815         *
 * In             11      0.00000(cons'd)      0.00000(cons'd)      0.01745         *
 * In             12      0.00000(cons'd)      0.00000(cons'd)     -0.00784         *
 *                                                                                  *
 ************************************************************************************
 EXP precond LBFGS => estimated nearest neighbor distance :  2.660       A
 EXP precond LBFGS => estimated cutoff distance :  5.320       A

 ************************************** Forces **************************************
 *                                                                                  *
 *                           Cartesian components (eV/A)                            *
 * -------------------------------------------------------------------------------- *
 *                         x                    y                    z              *
 *                                                                                  *
 * P               1      0.00000(cons'd)     -0.00337(cons'd)      0.00992         *
 * P               2     -0.00000(cons'd)      0.01029(cons'd)     -0.00201         *
 * P               3     -0.00000(cons'd)      0.00216(cons'd)      0.00788         *
 * P               4     -0.00000(cons'd)     -0.21679(cons'd)      0.03749         *
 * P               5      0.00000(cons'd)     -0.00599(cons'd)      0.00806         *
 * P               6     -0.00000(cons'd)     -0.00705(cons'd)      0.00578         *
 * P               7      0.00000(cons'd)      0.00558(cons'd)      0.01327         *
 * P               8      0.00000(cons'd)     -0.02900(cons'd)     -0.00391         *
 * P               9     -0.00000(cons'd)     -0.00406(cons'd)     -0.00667         *
 * P              10     -0.00000(cons'd)      0.23898(cons'd)      0.02023         *
 * P              11      0.00000(cons'd)     -1.82034(cons'd)     -0.11622         *
 * P              12      0.00000(cons'd)      0.04552(cons'd)     -0.01172         *
 * In              1      0.00000(cons'd)      0.00002(cons'd)     -0.00869         *
 * In              2     -0.00000(cons'd)      0.05863(cons'd)      0.02425         *
 * In              3      0.00000(cons'd)      0.00911(cons'd)     -0.00563         *
 * In              4     -0.00000(cons'd)      0.00130(cons'd)     -0.00306         *
 * In              5      0.00000(cons'd)     -0.00015(cons'd)     -0.00834         *
 * In              6     -0.00000(cons'd)     -0.00024(cons'd)     -0.00879         *
 * In              7     -0.00000(cons'd)      0.00070(cons'd)     -0.00940         *
 * In              8      0.00000(cons'd)      0.31894(cons'd)      0.00462         *
 * In              9     -0.00000(cons'd)      0.02911(cons'd)      0.01515         *
 * In             10      0.00000(cons'd)      0.19761(cons'd)      0.02815         *
 * In             11     -0.00000(cons'd)      1.16462(cons'd)      0.01745         *
 * In             12      0.00000(cons'd)      0.00442(cons'd)     -0.00784         *
 *                                                                                  *
 ************************************************************************************
 doing test perturbation to get energy scale for EXP preconditioner

                           -------------------------------
                                     Cell Contents
                           -------------------------------

            xxxxxxxxxxxxxxxxxxxxxxxxxxxxxxxxxxxxxxxxxxxxxxxxxxxxxxxxxxxxxxxxx
            x  Element         Atom        Fractional coordinates of atoms  x
            x                 Number           u          v          w      x
            x---------------------------------------------------------------x
            x  P                 1         0.505365   0.718708   0.458652   x
            x  P                 2         0.000000   0.372543   0.208822   x
            x  P                 3         0.000000   0.268446   0.375376   x
            x  P                 4         0.000000   0.959479   0.875008   x
            x  P                 5         0.505365   0.614616   0.625198   x
            x  P                 6         0.000000   0.164352   0.541927   x
            x  P                 7         0.505365   0.822801   0.292101   x
            x  P                 8         0.505365   0.510535   0.791727   x
            x  P                 9         0.000000   0.060251   0.708489   x
            x  P                10         0.000000   0.476981   0.041721   x
            x  P                11         0.505365   0.402961   0.963845   x
            x  P                12         0.505365   0.926913   0.125523   x
            x  In                1         0.505365   0.242424   0.417012   x
            x  In                2         0.000000   0.484533   0.833330   x
            x  In                3         0.505365   0.034243   0.750101   x
            x  In                4         0.000000   0.588595   0.666831   x
            x  In                5         0.505365   0.138330   0.583563   x
            x  In                6         0.000000   0.692684   0.500289   x
            x  In                7         0.000000   0.796781   0.333734   x
            x  In                8         0.505365   0.933104   0.917208   x
            x  In                9         0.000000   0.900948   0.167067   x
            x  In               10         0.505365   0.450785   0.083635   x
            x  In               11         0.000000   0.005398   0.997331   x
            x  In               12         0.505365   0.346530   0.250442   x
            xxxxxxxxxxxxxxxxxxxxxxxxxxxxxxxxxxxxxxxxxxxxxxxxxxxxxxxxxxxxxxxxx


------------------------------------------------------------------------ <-- SCF
SCF loop      Energy           Fermi           Energy gain       Timer   <-- SCF
                               energy          per atom          (sec)   <-- SCF
------------------------------------------------------------------------ <-- SCF
Initial  -2.35765729E+004  0.00000000E+000                       856.90  <-- SCF
      1  -2.35779667E+004  3.22214572E+000   5.80750085E-002     895.38  <-- SCF
      2  -2.35781496E+004  3.22201019E+000   7.62279057E-003     937.57  <-- SCF
      3  -2.35781518E+004  3.22365418E+000   8.85409025E-005     977.38  <-- SCF
      4  -2.35781532E+004  3.22388973E+000   5.85745811E-005    1016.08  <-- SCF
      5  -2.35781533E+004  3.22369903E+000   6.39311458E-006    1059.39  <-- SCF
      6  -2.35781534E+004  3.22353626E+000   1.74748529E-006    1098.29  <-- SCF
      7  -2.35781534E+004  3.22348341E+000   8.94328461E-008    1134.85  <-- SCF
      8  -2.35781534E+004  3.22338308E+000  -2.54504667E-008    1164.49  <-- SCF
      9  -2.35781534E+004  3.22326861E+000  -4.33830271E-008    1195.46  <-- SCF
     10  -2.35781534E+004  3.22305864E+000  -5.17287230E-008    1227.23  <-- SCF
     11  -2.35781534E+004  3.22290248E+000  -1.91795295E-008    1256.54  <-- SCF
     12  -2.35781534E+004  3.22280605E+000  -5.27209876E-009    1284.71  <-- SCF
     13  -2.35781534E+004  3.22277910E+000  -1.34699475E-009    1313.37  <-- SCF
------------------------------------------------------------------------ <-- SCF
 
Final energy, E             =  -23578.14061417     eV
Final free energy (E-TS)    =  -23578.15335317     eV
(energies not corrected for finite basis set)
 
NB est. 0K energy (E-0.5TS)      =  -23578.14698367     eV
 

 ************************************** Forces **************************************
 *                                                                                  *
 *                           Cartesian components (eV/A)                            *
 * -------------------------------------------------------------------------------- *
 *                         x                    y                    z              *
 *                                                                                  *
 * P               1     -0.18520(cons'd)     -0.08490(cons'd)      0.00677         *
 * P               2      0.18769(cons'd)      0.09165(cons'd)     -0.00916         *
 * P               3      0.18703(cons'd)      0.07939(cons'd)      0.00504         *
 * P               4      0.17147(cons'd)     -0.25932(cons'd)      0.03043         *
 * P               5     -0.18547(cons'd)     -0.07822(cons'd)      0.00454         *
 * P               6      0.18697(cons'd)      0.07680(cons'd)      0.00478         *
 * P               7     -0.18536(cons'd)     -0.07977(cons'd)      0.00439         *
 * P               8     -0.18487(cons'd)     -0.10431(cons'd)     -0.00911         *
 * P               9      0.18725(cons'd)      0.08035(cons'd)     -0.00972         *
 * P              10      0.19000(cons'd)      0.28130(cons'd)      0.13012         *
 * P              11     -0.04842(cons'd)     -1.81947(cons'd)     -0.13451         *
 * P              12     -0.18394(cons'd)     -0.02903(cons'd)     -0.02344         *
 * In              1     -0.15685(cons'd)      0.06735(cons'd)     -0.00398         *
 * In              2      0.15421(cons'd)      0.08764(cons'd)      0.02892         *
 * In              3     -0.15732(cons'd)      0.07412(cons'd)     -0.00122         *
 * In              4      0.15522(cons'd)     -0.06541(cons'd)      0.00127         *
 * In              5     -0.15681(cons'd)      0.06722(cons'd)     -0.00379         *
 * In              6      0.15516(cons'd)     -0.06725(cons'd)     -0.00421         *
 * In              7      0.15519(cons'd)     -0.06607(cons'd)     -0.00471         *
 * In              8     -0.15249(cons'd)      0.30726(cons'd)      0.00427         *
 * In              9      0.15558(cons'd)     -0.03659(cons'd)      0.02040         *
 * In             10     -0.15782(cons'd)      0.26323(cons'd)      0.05427         *
 * In             11      0.02594(cons'd)      1.14218(cons'd)     -0.08859         *
 * In             12     -0.15715(cons'd)      0.07185(cons'd)     -0.00276         *
 *                                                                                  *
 ************************************************************************************
 EXP precond LBFGS => estimated parameter mu :  3.770       eV/A**2
 LBFGS: finished iteration     0 with enthalpy= -2.35781920E+004 eV
  
 +-----------+-----------------+-----------------+------------+-----+ <-- LBFGS
 | Parameter |      value      |    tolerance    |    units   | OK? | <-- LBFGS
 +-----------+-----------------+-----------------+------------+-----+ <-- LBFGS
 |  dE/ion   |   0.000000E+000 |   2.000000E-005 |         eV | No  | <-- LBFGS
 |  |F|max   |   1.825078E+000 |   1.000000E-003 |       eV/A | No  | <-- LBFGS
 |  |dR|max  |   7.534734E-015 |   1.000000E-003 |          A | No  | <-- LBFGS
 +-----------+-----------------+-----------------+------------+-----+ <-- LBFGS
  

================================================================================
 Starting LBFGS iteration          1 ...
================================================================================
  
 +------------+-------------+-------------+-----------------+ <-- min LBFGS
 |    Step    |   lambda    |   F.delta'  |    enthalpy     | <-- min LBFGS
 +------------+-------------+-------------+-----------------+ <-- min LBFGS
 |  previous  |    0.000000 |    0.131834 |   -23578.191957 | <-- min LBFGS
 +------------+-------------+-------------+-----------------+ <-- min LBFGS
  

--------------------------------------------------------------------------------
 LBFGS: starting iteration         1 with trial guess (lambda=  1.000000)
--------------------------------------------------------------------------------

                           -------------------------------
                                     Cell Contents
                           -------------------------------

            xxxxxxxxxxxxxxxxxxxxxxxxxxxxxxxxxxxxxxxxxxxxxxxxxxxxxxxxxxxxxxxxx
            x  Element         Atom        Fractional coordinates of atoms  x
            x                 Number           u          v          w      x
            x---------------------------------------------------------------x
            x  P                 1         0.500000  -0.286455   0.458328   x
            x  P                 2         0.000000   0.369561   0.208703   x
            x  P                 3         0.000000   0.265550   0.375120   x
            x  P                 4         0.000000  -0.046556   0.874489   x
            x  P                 5         0.500000  -0.390466   0.624745   x
            x  P                 6         0.000000   0.161546   0.541526   x
            x  P                 7         0.500000  -0.182458   0.291932   x
            x  P                 8         0.500000  -0.494497   0.791195   x
            x  P                 9         0.000000   0.057526   0.707958   x
            x  P                10         0.000000   0.473935   0.041703   x
            x  P                11         0.500000  -0.601779   0.962847   x
            x  P                12         0.500000  -0.078410   0.125456   x
            x  In                1         0.500000   0.239566   0.416695   x
            x  In                2         0.000000  -0.520526   0.832842   x
            x  In                3         0.500000   0.031524   0.749561   x
            x  In                4         0.000000  -0.416457   0.666332   x
            x  In                5         0.500000   0.135555   0.583111   x
            x  In                6         0.000000  -0.312438   0.499901   x
            x  In                7         0.000000  -0.208432   0.333491   x
            x  In                8         0.500000  -0.072818   0.916508   x
            x  In                9         0.000000  -0.104383   0.167013   x
            x  In               10         0.500000   0.447723   0.083643   x
            x  In               11         0.000000   0.002108  -0.003373   x
            x  In               12         0.500000   0.343579   0.250273   x
            xxxxxxxxxxxxxxxxxxxxxxxxxxxxxxxxxxxxxxxxxxxxxxxxxxxxxxxxxxxxxxxxx


------------------------------------------------------------------------ <-- SCF
SCF loop      Energy           Fermi           Energy gain       Timer   <-- SCF
                               energy          per atom          (sec)   <-- SCF
------------------------------------------------------------------------ <-- SCF
Initial  -2.35765129E+004  0.00000000E+000                      1359.21  <-- SCF
      1  -2.35780040E+004  3.21332929E+000   6.21269349E-002    1398.18  <-- SCF
      2  -2.35781892E+004  3.21316969E+000   7.71990035E-003    1443.58  <-- SCF
      3  -2.35781915E+004  3.21285328E+000   9.57494075E-005    1480.69  <-- SCF
      4  -2.35781930E+004  3.21312797E+000   6.25805789E-005    1519.75  <-- SCF
      5  -2.35781932E+004  3.21325870E+000   5.83845927E-006    1561.52  <-- SCF
      6  -2.35781932E+004  3.21338557E+000   1.61270783E-006    1600.91  <-- SCF
      7  -2.35781932E+004  3.21348110E+000   1.45056511E-007    1634.15  <-- SCF
      8  -2.35781932E+004  3.21358444E+000   2.27297952E-008    1662.41  <-- SCF
      9  -2.35781932E+004  3.21365410E+000   4.41221341E-010    1689.68  <-- SCF
     10  -2.35781932E+004  3.21375589E+000  -2.15196912E-009    1716.89  <-- SCF
     11  -2.35781932E+004  3.21382217E+000  -9.51661455E-010    1744.45  <-- SCF
------------------------------------------------------------------------ <-- SCF
 
Final energy, E             =  -23578.18010518     eV
Final free energy (E-TS)    =  -23578.19321478     eV
(energies not corrected for finite basis set)
 
NB est. 0K energy (E-0.5TS)      =  -23578.18665998     eV
 

 ******************************** Constrained Forces ********************************
 *                                                                                  *
 *                           Cartesian components (eV/A)                            *
 * -------------------------------------------------------------------------------- *
 *                         x                    y                    z              *
 *                                                                                  *
 * P               1     -0.00000(cons'd)      0.00000(cons'd)     -0.00051         *
 * P               2      0.00000(cons'd)     -0.00000(cons'd)      0.00055         *
 * P               3      0.00000(cons'd)     -0.00000(cons'd)     -0.00055         *
 * P               4      0.00000(cons'd)      0.00000(cons'd)      0.00528         *
 * P               5     -0.00000(cons'd)      0.00000(cons'd)     -0.00083         *
 * P               6     -0.00000(cons'd)      0.00000(cons'd)     -0.00102         *
 * P               7      0.00000(cons'd)      0.00000(cons'd)     -0.00123         *
 * P               8      0.00000(cons'd)      0.00000(cons'd)      0.00258         *
 * P               9      0.00000(cons'd)      0.00000(cons'd)     -0.00210         *
 * P              10     -0.00000(cons'd)      0.00000(cons'd)      0.01089         *
 * P              11     -0.00000(cons'd)      0.00000(cons'd)     -0.05454         *
 * P              12     -0.00000(cons'd)      0.00000(cons'd)      0.00253         *
 * In              1      0.00000(cons'd)      0.00000(cons'd)      0.00109         *
 * In              2      0.00000(cons'd)      0.00000(cons'd)      0.00493         *
 * In              3      0.00000(cons'd)      0.00000(cons'd)     -0.00045         *
 * In              4      0.00000(cons'd)      0.00000(cons'd)     -0.00075         *
 * In              5      0.00000(cons'd)      0.00000(cons'd)      0.00066         *
 * In              6      0.00000(cons'd)      0.00000(cons'd)      0.00074         *
 * In              7      0.00000(cons'd)      0.00000(cons'd)      0.00177         *
 * In              8      0.00000(cons'd)      0.00000(cons'd)      0.00064         *
 * In              9      0.00000(cons'd)      0.00000(cons'd)     -0.00008         *
 * In             10      0.00000(cons'd)      0.00000(cons'd)      0.00868         *
 * In             11      0.00000(cons'd)      0.00000(cons'd)      0.01968         *
 * In             12      0.00000(cons'd)      0.00000(cons'd)      0.00205         *
 *                                                                                  *
 ************************************************************************************
  
 +------------+-------------+-------------+-----------------+ <-- min LBFGS
 |    Step    |   lambda    |   F.delta'  |    enthalpy     | <-- min LBFGS
 +------------+-------------+-------------+-----------------+ <-- min LBFGS
 |  previous  |    0.000000 |    0.131834 |   -23578.191957 | <-- min LBFGS
 | trial step |    1.000000 |    0.053609 |   -23578.193215 | <-- min LBFGS
 +------------+-------------+-------------+-----------------+ <-- min LBFGS
  

--------------------------------------------------------------------------------
 LBFGS: improving iteration         1 with line minimization (lambda=  1.685326)
--------------------------------------------------------------------------------

                           -------------------------------
                                     Cell Contents
                           -------------------------------

            xxxxxxxxxxxxxxxxxxxxxxxxxxxxxxxxxxxxxxxxxxxxxxxxxxxxxxxxxxxxxxxxx
            x  Element         Atom        Fractional coordinates of atoms  x
            x                 Number           u          v          w      x
            x---------------------------------------------------------------x
            x  P                 1         0.500000  -0.286465   0.458343   x
            x  P                 2         0.000000   0.369542   0.208732   x
            x  P                 3         0.000000   0.265536   0.375142   x
            x  P                 4         0.000000  -0.046589   0.874542   x
            x  P                 5         0.500000  -0.390468   0.624748   x
            x  P                 6         0.000000   0.161545   0.541528   x
            x  P                 7         0.500000  -0.182482   0.291972   x
            x  P                 8         0.500000  -0.494506   0.791209   x
            x  P                 9         0.000000   0.057537   0.707941   x
            x  P                10         0.000000   0.473929   0.041714   x
            x  P                11         0.500000  -0.601624   0.962599   x
            x  P                12         0.500000  -0.078424   0.125478   x
            x  In                1         0.500000   0.239566   0.416695   x
            x  In                2         0.000000  -0.520564   0.832902   x
            x  In                3         0.500000   0.031528   0.749555   x
            x  In                4         0.000000  -0.416450   0.666320   x
            x  In                5         0.500000   0.135564   0.583097   x
            x  In                6         0.000000  -0.312432   0.499892   x
            x  In                7         0.000000  -0.208438   0.333500   x
            x  In                8         0.500000  -0.072782   0.916451   x
            x  In                9         0.000000  -0.104416   0.167066   x
            x  In               10         0.500000   0.447692   0.083693   x
            x  In               11         0.000000   0.002131  -0.003410   x
            x  In               12         0.500000   0.343568   0.250292   x
            xxxxxxxxxxxxxxxxxxxxxxxxxxxxxxxxxxxxxxxxxxxxxxxxxxxxxxxxxxxxxxxxx


------------------------------------------------------------------------ <-- SCF
SCF loop      Energy           Fermi           Energy gain       Timer   <-- SCF
                               energy          per atom          (sec)   <-- SCF
------------------------------------------------------------------------ <-- SCF
Initial  -2.35782000E+004  0.00000000E+000                      1792.97  <-- SCF
      1  -2.35781931E+004  3.21230592E+000  -2.87276325E-004    1832.07  <-- SCF
      2  -2.35781935E+004  3.21230359E+000   1.51106270E-005    1875.72  <-- SCF
      3  -2.35781935E+004  3.21303454E+000  -3.57343785E-007    1912.22  <-- SCF
      4  -2.35781935E+004  3.21330027E+000  -5.74495192E-008    1947.79  <-- SCF
      5  -2.35781935E+004  3.21331845E+000  -1.92024735E-008    1978.64  <-- SCF
      6  -2.35781935E+004  3.21337279E+000  -4.59174396E-008    2009.42  <-- SCF
      7  -2.35781935E+004  3.21347004E+000  -6.79476998E-008    2042.61  <-- SCF
      8  -2.35781935E+004  3.21351894E+000  -3.56043580E-008    2073.51  <-- SCF
      9  -2.35781935E+004  3.21352769E+000  -9.94649278E-009    2104.78  <-- SCF
     10  -2.35781935E+004  3.21350599E+000  -2.25379934E-009    2134.60  <-- SCF
     11  -2.35781935E+004  3.21348796E+000  -8.10259232E-010    2163.16  <-- SCF
------------------------------------------------------------------------ <-- SCF
 
Final energy, E             =  -23578.18011636     eV
Final free energy (E-TS)    =  -23578.19345797     eV
(energies not corrected for finite basis set)
 
NB est. 0K energy (E-0.5TS)      =  -23578.18678717     eV
 

 ******************************** Constrained Forces ********************************
 *                                                                                  *
 *                           Cartesian components (eV/A)                            *
 * -------------------------------------------------------------------------------- *
 *                         x                    y                    z              *
 *                                                                                  *
 * P               1      0.00000(cons'd)      0.00000(cons'd)     -0.00811         *
 * P               2      0.00000(cons'd)     -0.00000(cons'd)      0.00289         *
 * P               3      0.00000(cons'd)      0.00000(cons'd)     -0.00651         *
 * P               4      0.00000(cons'd)      0.00000(cons'd)     -0.01744         *
 * P               5      0.00000(cons'd)      0.00000(cons'd)     -0.00729         *
 * P               6      0.00000(cons'd)      0.00000(cons'd)     -0.00613         *
 * P               7      0.00000(cons'd)      0.00000(cons'd)     -0.01101         *
 * P               8     -0.00000(cons'd)      0.00000(cons'd)      0.00645         *
 * P               9      0.00000(cons'd)      0.00000(cons'd)      0.00064         *
 * P              10      0.00000(cons'd)     -0.00000(cons'd)      0.00459         *
 * P              11      0.00000(cons'd)      0.00000(cons'd)     -0.01074         *
 * P              12     -0.00000(cons'd)      0.00000(cons'd)      0.01283         *
 * In              1      0.00000(cons'd)      0.00000(cons'd)      0.00769         *
 * In              2      0.00000(cons'd)      0.00000(cons'd)     -0.00851         *
 * In              3      0.00000(cons'd)      0.00000(cons'd)      0.00334         *
 * In              4      0.00000(cons'd)      0.00000(cons'd)      0.00133         *
 * In              5      0.00000(cons'd)      0.00000(cons'd)      0.00719         *
 * In              6      0.00000(cons'd)      0.00000(cons'd)      0.00736         *
 * In              7      0.00000(cons'd)      0.00000(cons'd)      0.00928         *
 * In              8      0.00000(cons'd)     -0.00000(cons'd)     -0.00234         *
 * In              9      0.00000(cons'd)      0.00000(cons'd)     -0.01057         *
 * In             10      0.00000(cons'd)     -0.00000(cons'd)     -0.00479         *
 * In             11      0.00000(cons'd)      0.00000(cons'd)      0.02111         *
 * In             12      0.00000(cons'd)      0.00000(cons'd)      0.00876         *
 *                                                                                  *
 ************************************************************************************
  
 +------------+-------------+-------------+-----------------+ <-- min LBFGS
 |    Step    |   lambda    |   F.delta'  |    enthalpy     | <-- min LBFGS
 +------------+-------------+-------------+-----------------+ <-- min LBFGS
 |  previous  |    0.000000 |    0.131834 |   -23578.191957 | <-- min LBFGS
 | trial step |    1.000000 |    0.053609 |   -23578.193215 | <-- min LBFGS
 |  line step |    1.685326 |   -0.001575 |   -23578.193458 | <-- min LBFGS
 +------------+-------------+-------------+-----------------+ <-- min LBFGS
  
 LBFGS: finished iteration     1 with enthalpy= -2.35781935E+004 eV
  
 +-----------+-----------------+-----------------+------------+-----+ <-- LBFGS
 | Parameter |      value      |    tolerance    |    units   | OK? | <-- LBFGS
 +-----------+-----------------+-----------------+------------+-----+ <-- LBFGS
 |  dE/ion   |   6.254003E-005 |   2.000000E-005 |         eV | No  | <-- LBFGS
 |  |F|max   |   2.110762E-002 |   1.000000E-003 |       eV/A | No  | <-- LBFGS
 |  |dR|max  |   2.163860E-002 |   1.000000E-003 |          A | No  | <-- LBFGS
 +-----------+-----------------+-----------------+------------+-----+ <-- LBFGS
  

================================================================================
 Starting LBFGS iteration          2 ...
================================================================================
  
 +------------+-------------+-------------+-----------------+ <-- min LBFGS
 |    Step    |   lambda    |   F.delta'  |    enthalpy     | <-- min LBFGS
 +------------+-------------+-------------+-----------------+ <-- min LBFGS
 |  previous  |    0.000000 |    0.030560 |   -23578.193458 | <-- min LBFGS
 +------------+-------------+-------------+-----------------+ <-- min LBFGS
  

--------------------------------------------------------------------------------
 LBFGS: starting iteration         2 with trial guess (lambda=  1.000000)
--------------------------------------------------------------------------------

                           -------------------------------
                                     Cell Contents
                           -------------------------------

            xxxxxxxxxxxxxxxxxxxxxxxxxxxxxxxxxxxxxxxxxxxxxxxxxxxxxxxxxxxxxxxxx
            x  Element         Atom        Fractional coordinates of atoms  x
            x                 Number           u          v          w      x
            x---------------------------------------------------------------x
            x  P                 1         0.500000  -0.286463   0.458341   x
            x  P                 2         0.000000   0.369516   0.208774   x
            x  P                 3         0.000000   0.265529   0.375153   x
            x  P                 4         0.000000  -0.046534   0.874454   x
            x  P                 5         0.500000  -0.390452   0.624724   x
            x  P                 6         0.000000   0.161551   0.541519   x
            x  P                 7         0.500000  -0.182490   0.291985   x
            x  P                 8         0.500000  -0.494488   0.791181   x
            x  P                 9         0.000000   0.057549   0.707921   x
            x  P                10         0.000000   0.473902   0.041756   x
            x  P                11         0.500000  -0.601580   0.962529   x
            x  P                12         0.500000  -0.078463   0.125540   x
            x  In                1         0.500000   0.239550   0.416719   x
            x  In                2         0.000000  -0.520521   0.832833   x
            x  In                3         0.500000   0.031541   0.749534   x
            x  In                4         0.000000  -0.416440   0.666303   x
            x  In                5         0.500000   0.135563   0.583099   x
            x  In                6         0.000000  -0.312441   0.499905   x
            x  In                7         0.000000  -0.208461   0.333537   x
            x  In                8         0.500000  -0.072744   0.916390   x
            x  In                9         0.000000  -0.104432   0.167091   x
            x  In               10         0.500000   0.447669   0.083730   x
            x  In               11         0.000000   0.002100  -0.003360   x
            x  In               12         0.500000   0.343538   0.250340   x
            xxxxxxxxxxxxxxxxxxxxxxxxxxxxxxxxxxxxxxxxxxxxxxxxxxxxxxxxxxxxxxxxx


------------------------------------------------------------------------ <-- SCF
SCF loop      Energy           Fermi           Energy gain       Timer   <-- SCF
                               energy          per atom          (sec)   <-- SCF
------------------------------------------------------------------------ <-- SCF
Initial  -2.35781879E+004  0.00000000E+000                      2212.11  <-- SCF
      1  -2.35781932E+004  3.21372081E+000   2.18873427E-004    2252.32  <-- SCF
      2  -2.35781936E+004  3.21372020E+000   1.70868859E-005    2297.26  <-- SCF
      3  -2.35781936E+004  3.21383144E+000   1.12848900E-007    2336.00  <-- SCF
      4  -2.35781936E+004  3.21372478E+000   6.85175624E-008    2372.36  <-- SCF
      5  -2.35781936E+004  3.21363055E+000   3.39958272E-009    2400.96  <-- SCF
      6  -2.35781936E+004  3.21355182E+000  -5.28821114E-009    2428.33  <-- SCF
------------------------------------------------------------------------ <-- SCF
 
Final energy, E             =  -23578.18022688     eV
Final free energy (E-TS)    =  -23578.19359550     eV
(energies not corrected for finite basis set)
 
NB est. 0K energy (E-0.5TS)      =  -23578.18691119     eV
 

 ******************************** Constrained Forces ********************************
 *                                                                                  *
 *                           Cartesian components (eV/A)                            *
 * -------------------------------------------------------------------------------- *
 *                         x                    y                    z              *
 *                                                                                  *
 * P               1      0.00000(cons'd)      0.00000(cons'd)     -0.00197         *
 * P               2      0.00000(cons'd)     -0.00000(cons'd)      0.00046         *
 * P               3      0.00000(cons'd)     -0.00000(cons'd)     -0.00122         *
 * P               4      0.00000(cons'd)      0.00000(cons'd)     -0.00702         *
 * P               5     -0.00000(cons'd)      0.00000(cons'd)     -0.00195         *
 * P               6      0.00000(cons'd)      0.00000(cons'd)     -0.00141         *
 * P               7     -0.00000(cons'd)     -0.00000(cons'd)     -0.00094         *
 * P               8     -0.00000(cons'd)      0.00000(cons'd)     -0.00054         *
 * P               9      0.00000(cons'd)      0.00000(cons'd)      0.00047         *
 * P              10      0.00000(cons'd)     -0.00000(cons'd)      0.00178         *
 * P              11      0.00000(cons'd)      0.00000(cons'd)     -0.00233         *
 * P              12      0.00000(cons'd)      0.00000(cons'd)      0.00019         *
 * In              1      0.00000(cons'd)      0.00000(cons'd)      0.00126         *
 * In              2      0.00000(cons'd)      0.00000(cons'd)     -0.00135         *
 * In              3      0.00000(cons'd)      0.00000(cons'd)      0.00202         *
 * In              4      0.00000(cons'd)      0.00000(cons'd)      0.00102         *
 * In              5      0.00000(cons'd)      0.00000(cons'd)      0.00084         *
 * In              6      0.00000(cons'd)      0.00000(cons'd)      0.00122         *
 * In              7      0.00000(cons'd)      0.00000(cons'd)      0.00065         *
 * In              8      0.00000(cons'd)      0.00000(cons'd)     -0.00340         *
 * In              9      0.00000(cons'd)      0.00000(cons'd)      0.00101         *
 * In             10      0.00000(cons'd)      0.00000(cons'd)      0.00073         *
 * In             11      0.00000(cons'd)      0.00000(cons'd)      0.01021         *
 * In             12      0.00000(cons'd)      0.00000(cons'd)      0.00024         *
 *                                                                                  *
 ************************************************************************************
  
 +------------+-------------+-------------+-----------------+ <-- min LBFGS
 |    Step    |   lambda    |   F.delta'  |    enthalpy     | <-- min LBFGS
 +------------+-------------+-------------+-----------------+ <-- min LBFGS
 |  previous  |    0.000000 |    0.030560 |   -23578.193458 | <-- min LBFGS
 | trial step |    1.000000 |    0.010006 |   -23578.193595 | <-- min LBFGS
 +------------+-------------+-------------+-----------------+ <-- min LBFGS
  

--------------------------------------------------------------------------------
 LBFGS: improving iteration         2 with line minimization (lambda=  1.486828)
--------------------------------------------------------------------------------

                           -------------------------------
                                     Cell Contents
                           -------------------------------

            xxxxxxxxxxxxxxxxxxxxxxxxxxxxxxxxxxxxxxxxxxxxxxxxxxxxxxxxxxxxxxxxx
            x  Element         Atom        Fractional coordinates of atoms  x
            x                 Number           u          v          w      x
            x---------------------------------------------------------------x
            x  P                 1         0.500000  -0.286462   0.458340   x
            x  P                 2         0.000000   0.369503   0.208795   x
            x  P                 3         0.000000   0.265525   0.375159   x
            x  P                 4         0.000000  -0.046507   0.874412   x
            x  P                 5         0.500000  -0.390445   0.624712   x
            x  P                 6         0.000000   0.161554   0.541514   x
            x  P                 7         0.500000  -0.182494   0.291991   x
            x  P                 8         0.500000  -0.494479   0.791167   x
            x  P                 9         0.000000   0.057555   0.707912   x
            x  P                10         0.000000   0.473889   0.041777   x
            x  P                11         0.500000  -0.601559   0.962495   x
            x  P                12         0.500000  -0.078482   0.125570   x
            x  In                1         0.500000   0.239543   0.416731   x
            x  In                2         0.000000  -0.520500   0.832800   x
            x  In                3         0.500000   0.031547   0.749525   x
            x  In                4         0.000000  -0.416434   0.666295   x
            x  In                5         0.500000   0.135562   0.583100   x
            x  In                6         0.000000  -0.312445   0.499912   x
            x  In                7         0.000000  -0.208472   0.333555   x
            x  In                8         0.500000  -0.072725   0.916361   x
            x  In                9         0.000000  -0.104439   0.167103   x
            x  In               10         0.500000   0.447657   0.083748   x
            x  In               11         0.000000   0.002085  -0.003336   x
            x  In               12         0.500000   0.343523   0.250363   x
            xxxxxxxxxxxxxxxxxxxxxxxxxxxxxxxxxxxxxxxxxxxxxxxxxxxxxxxxxxxxxxxxx


------------------------------------------------------------------------ <-- SCF
SCF loop      Energy           Fermi           Energy gain       Timer   <-- SCF
                               energy          per atom          (sec)   <-- SCF
------------------------------------------------------------------------ <-- SCF
Initial  -2.35781848E+004  0.00000000E+000                      2475.78  <-- SCF
      1  -2.35781935E+004  3.21363279E+000   3.64403004E-004    2515.22  <-- SCF
      2  -2.35781936E+004  3.21363265E+000   4.05380917E-006    2562.03  <-- SCF
      3  -2.35781936E+004  3.21367299E+000   1.77114986E-008    2598.30  <-- SCF
      4  -2.35781936E+004  3.21360072E+000   7.40318624E-009    2630.42  <-- SCF
      5  -2.35781936E+004  3.21354424E+000  -2.32727178E-009    2659.21  <-- SCF
------------------------------------------------------------------------ <-- SCF
 
Final energy, E             =  -23578.18023439     eV
Final free energy (E-TS)    =  -23578.19361934     eV
(energies not corrected for finite basis set)
 
NB est. 0K energy (E-0.5TS)      =  -23578.18692686     eV
 

 ******************************** Constrained Forces ********************************
 *                                                                                  *
 *                           Cartesian components (eV/A)                            *
 * -------------------------------------------------------------------------------- *
 *                         x                    y                    z              *
 *                                                                                  *
 * P               1     -0.00000(cons'd)      0.00000(cons'd)      0.00132         *
 * P               2      0.00000(cons'd)      0.00000(cons'd)     -0.00049         *
 * P               3      0.00000(cons'd)     -0.00000(cons'd)      0.00187         *
 * P               4      0.00000(cons'd)      0.00000(cons'd)     -0.00322         *
 * P               5      0.00000(cons'd)      0.00000(cons'd)      0.00029         *
 * P               6      0.00000(cons'd)      0.00000(cons'd)      0.00097         *
 * P               7      0.00000(cons'd)     -0.00000(cons'd)      0.00428         *
 * P               8     -0.00000(cons'd)      0.00000(cons'd)     -0.00482         *
 * P               9      0.00000(cons'd)      0.00000(cons'd)     -0.00022         *
 * P              10      0.00000(cons'd)      0.00000(cons'd)      0.00095         *
 * P              11      0.00000(cons'd)      0.00000(cons'd)      0.00122         *
 * P              12      0.00000(cons'd)     -0.00000(cons'd)     -0.00564         *
 * In              1      0.00000(cons'd)      0.00000(cons'd)     -0.00166         *
 * In              2      0.00000(cons'd)      0.00000(cons'd)      0.00134         *
 * In              3      0.00000(cons'd)      0.00000(cons'd)      0.00103         *
 * In              4      0.00000(cons'd)      0.00000(cons'd)      0.00071         *
 * In              5      0.00000(cons'd)      0.00000(cons'd)     -0.00216         *
 * In              6      0.00000(cons'd)      0.00000(cons'd)     -0.00172         *
 * In              7      0.00000(cons'd)      0.00000(cons'd)     -0.00294         *
 * In              8      0.00000(cons'd)      0.00000(cons'd)     -0.00404         *
 * In              9      0.00000(cons'd)      0.00000(cons'd)      0.00651         *
 * In             10      0.00000(cons'd)      0.00000(cons'd)      0.00366         *
 * In             11      0.00000(cons'd)      0.00000(cons'd)      0.00582         *
 * In             12      0.00000(cons'd)      0.00000(cons'd)     -0.00307         *
 *                                                                                  *
 ************************************************************************************
  
 +------------+-------------+-------------+-----------------+ <-- min LBFGS
 |    Step    |   lambda    |   F.delta'  |    enthalpy     | <-- min LBFGS
 +------------+-------------+-------------+-----------------+ <-- min LBFGS
 |  previous  |    0.000000 |    0.030560 |   -23578.193458 | <-- min LBFGS
 | trial step |    1.000000 |    0.010006 |   -23578.193595 | <-- min LBFGS
 |  line step |    1.486828 |    0.002470 |   -23578.193619 | <-- min LBFGS
 +------------+-------------+-------------+-----------------+ <-- min LBFGS
  
 LBFGS: finished iteration     2 with enthalpy= -2.35781936E+004 eV
  
 +-----------+-----------------+-----------------+------------+-----+ <-- LBFGS
 | Parameter |      value      |    tolerance    |    units   | OK? | <-- LBFGS
 +-----------+-----------------+-----------------+------------+-----+ <-- LBFGS
 |  dE/ion   |   6.723583E-006 |   2.000000E-005 |         eV | Yes | <-- LBFGS
 |  |F|max   |   6.506903E-003 |   1.000000E-003 |       eV/A | No  | <-- LBFGS
 |  |dR|max  |   4.624926E-003 |   1.000000E-003 |          A | No  | <-- LBFGS
 +-----------+-----------------+-----------------+------------+-----+ <-- LBFGS
  

================================================================================
 Starting LBFGS iteration          3 ...
================================================================================
  
 +------------+-------------+-------------+-----------------+ <-- min LBFGS
 |    Step    |   lambda    |   F.delta'  |    enthalpy     | <-- min LBFGS
 +------------+-------------+-------------+-----------------+ <-- min LBFGS
 |  previous  |    0.000000 |    0.007877 |   -23578.193619 | <-- min LBFGS
 +------------+-------------+-------------+-----------------+ <-- min LBFGS
  

--------------------------------------------------------------------------------
 LBFGS: starting iteration         3 with trial guess (lambda=  1.000000)
--------------------------------------------------------------------------------

                           -------------------------------
                                     Cell Contents
                           -------------------------------

            xxxxxxxxxxxxxxxxxxxxxxxxxxxxxxxxxxxxxxxxxxxxxxxxxxxxxxxxxxxxxxxxx
            x  Element         Atom        Fractional coordinates of atoms  x
            x                 Number           u          v          w      x
            x---------------------------------------------------------------x
            x  P                 1         0.500000  -0.286460   0.458336   x
            x  P                 2         0.000000   0.369485   0.208823   x
            x  P                 3         0.000000   0.265521   0.375166   x
            x  P                 4         0.000000  -0.046483   0.874373   x
            x  P                 5         0.500000  -0.390432   0.624692   x
            x  P                 6         0.000000   0.161562   0.541500   x
            x  P                 7         0.500000  -0.182508   0.292013   x
            x  P                 8         0.500000  -0.494455   0.791129   x
            x  P                 9         0.000000   0.057570   0.707889   x
            x  P                10         0.000000   0.473865   0.041815   x
            x  P                11         0.500000  -0.601556   0.962489   x
            x  P                12         0.500000  -0.078499   0.125598   x
            x  In                1         0.500000   0.239543   0.416731   x
            x  In                2         0.000000  -0.520479   0.832767   x
            x  In                3         0.500000   0.031563   0.749500   x
            x  In                4         0.000000  -0.416423   0.666276   x
            x  In                5         0.500000   0.135574   0.583081   x
            x  In                6         0.000000  -0.312438   0.499901   x
            x  In                7         0.000000  -0.208477   0.333564   x
            x  In                8         0.500000  -0.072709   0.916335   x
            x  In                9         0.000000  -0.104465   0.167144   x
            x  In               10         0.500000   0.447632   0.083789   x
            x  In               11         0.000000   0.002059  -0.003294   x
            x  In               12         0.500000   0.343511   0.250382   x
            xxxxxxxxxxxxxxxxxxxxxxxxxxxxxxxxxxxxxxxxxxxxxxxxxxxxxxxxxxxxxxxxx


------------------------------------------------------------------------ <-- SCF
SCF loop      Energy           Fermi           Energy gain       Timer   <-- SCF
                               energy          per atom          (sec)   <-- SCF
------------------------------------------------------------------------ <-- SCF
Initial  -2.35781828E+004  0.00000000E+000                      2706.49  <-- SCF
      1  -2.35781934E+004  3.21402743E+000   4.44525636E-004    2746.32  <-- SCF
      2  -2.35781936E+004  3.21402725E+000   8.25575284E-006    2790.26  <-- SCF
      3  -2.35781936E+004  3.21411300E+000   1.13157484E-007    2827.20  <-- SCF
      4  -2.35781936E+004  3.21412996E+000   6.56566487E-008    2859.32  <-- SCF
      5  -2.35781936E+004  3.21411253E+000   6.48890550E-009    2886.49  <-- SCF
      6  -2.35781936E+004  3.21409068E+000   1.23807507E-009    2913.59  <-- SCF
------------------------------------------------------------------------ <-- SCF
 
Final energy, E             =  -23578.18027238     eV
Final free energy (E-TS)    =  -23578.19364382     eV
(energies not corrected for finite basis set)
 
NB est. 0K energy (E-0.5TS)      =  -23578.18695810     eV
 

 ******************************** Constrained Forces ********************************
 *                                                                                  *
 *                           Cartesian components (eV/A)                            *
 * -------------------------------------------------------------------------------- *
 *                         x                    y                    z              *
 *                                                                                  *
 * P               1     -0.00000(cons'd)      0.00000(cons'd)      0.00142         *
 * P               2      0.00000(cons'd)     -0.00000(cons'd)     -0.00028         *
 * P               3      0.00000(cons'd)      0.00000(cons'd)      0.00130         *
 * P               4      0.00000(cons'd)      0.00000(cons'd)      0.00067         *
 * P               5      0.00000(cons'd)      0.00000(cons'd)      0.00059         *
 * P               6      0.00000(cons'd)      0.00000(cons'd)      0.00070         *
 * P               7      0.00000(cons'd)     -0.00000(cons'd)      0.00141         *
 * P               8      0.00000(cons'd)      0.00000(cons'd)     -0.00214         *
 * P               9      0.00000(cons'd)      0.00000(cons'd)     -0.00046         *
 * P              10      0.00000(cons'd)     -0.00000(cons'd)      0.00014         *
 * P              11      0.00000(cons'd)      0.00000(cons'd)      0.00066         *
 * P              12      0.00000(cons'd)     -0.00000(cons'd)     -0.00195         *
 * In              1      0.00000(cons'd)      0.00000(cons'd)     -0.00106         *
 * In              2      0.00000(cons'd)      0.00000(cons'd)     -0.00021         *
 * In              3      0.00000(cons'd)      0.00000(cons'd)     -0.00074         *
 * In              4      0.00000(cons'd)      0.00000(cons'd)     -0.00036         *
 * In              5      0.00000(cons'd)      0.00000(cons'd)     -0.00087         *
 * In              6      0.00000(cons'd)      0.00000(cons'd)     -0.00095         *
 * In              7      0.00000(cons'd)      0.00000(cons'd)     -0.00072         *
 * In              8      0.00000(cons'd)      0.00000(cons'd)     -0.00073         *
 * In              9      0.00000(cons'd)      0.00000(cons'd)      0.00095         *
 * In             10      0.00000(cons'd)      0.00000(cons'd)      0.00138         *
 * In             11      0.00000(cons'd)      0.00000(cons'd)      0.00125         *
 * In             12      0.00000(cons'd)      0.00000(cons'd)      0.00001         *
 *                                                                                  *
 ************************************************************************************
  
 +------------+-------------+-------------+-----------------+ <-- min LBFGS
 |    Step    |   lambda    |   F.delta'  |    enthalpy     | <-- min LBFGS
 +------------+-------------+-------------+-----------------+ <-- min LBFGS
 |  previous  |    0.000000 |    0.007877 |   -23578.193619 | <-- min LBFGS
 | trial step |    1.000000 |    0.002055 |   -23578.193644 | <-- min LBFGS
 +------------+-------------+-------------+-----------------+ <-- min LBFGS
  
 LBFGS: finished iteration     3 with enthalpy= -2.35781936E+004 eV
  
 +-----------+-----------------+-----------------+------------+-----+ <-- LBFGS
 | Parameter |      value      |    tolerance    |    units   | OK? | <-- LBFGS
 +-----------+-----------------+-----------------+------------+-----+ <-- LBFGS
 |  dE/ion   |   1.019863E-006 |   2.000000E-005 |         eV | Yes | <-- LBFGS
 |  |F|max   |   2.139263E-003 |   1.000000E-003 |       eV/A | No  | <-- LBFGS
 |  |dR|max  |   1.483403E-003 |   1.000000E-003 |          A | No  | <-- LBFGS
 +-----------+-----------------+-----------------+------------+-----+ <-- LBFGS
  

================================================================================
 Starting LBFGS iteration          4 ...
================================================================================
  
 +------------+-------------+-------------+-----------------+ <-- min LBFGS
 |    Step    |   lambda    |   F.delta'  |    enthalpy     | <-- min LBFGS
 +------------+-------------+-------------+-----------------+ <-- min LBFGS
 |  previous  |    0.000000 |    0.002596 |   -23578.193644 | <-- min LBFGS
 +------------+-------------+-------------+-----------------+ <-- min LBFGS
  

--------------------------------------------------------------------------------
 LBFGS: starting iteration         4 with trial guess (lambda=  1.000000)
--------------------------------------------------------------------------------

                           -------------------------------
                                     Cell Contents
                           -------------------------------

[...]
            x  P                 7         0.500000  -0.182519   0.292030   x
            x  P                 8         0.500000  -0.494438   0.791101   x
            x  P                 9         0.000000   0.057583   0.707867   x
            x  P                10         0.000000   0.473855   0.041832   x
            x  P                11         0.500000  -0.601557   0.962491   x
            x  P                12         0.500000  -0.078505   0.125608   x
            x  In                1         0.500000   0.239540   0.416736   x
            x  In                2         0.000000  -0.520466   0.832747   x
            x  In                3         0.500000   0.031578   0.749476   x
            x  In                4         0.000000  -0.416412   0.666259   x
            x  In                5         0.500000   0.135581   0.583071   x
            x  In                6         0.000000  -0.312437   0.499899   x
            x  In                7         0.000000  -0.208485   0.333576   x
            x  In                8         0.500000  -0.072704   0.916326   x
            x  In                9         0.000000  -0.104475   0.167160   x
            x  In               10         0.500000   0.447621   0.083807   x
            x  In               11         0.000000   0.002047  -0.003276   x
            x  In               12         0.500000   0.343501   0.250397   x
            xxxxxxxxxxxxxxxxxxxxxxxxxxxxxxxxxxxxxxxxxxxxxxxxxxxxxxxxxxxxxxxxx


 LBFGS: Final Enthalpy     = -2.35781936E+004 eV
 LBFGS: Final <frequency>  =     135.06416 cm-1

 ******************* Unconstrained Forces *******************
 *                                                          *
 *               Cartesian components (eV/A)                *
 * -------------------------------------------------------- *
 *                         x            y            z      *
 *                                                          *
 * P               1      0.00000     -0.00324      0.00009 *
 * P               2     -0.00000      0.00979      0.00016 *
 * P               3     -0.00000      0.00230      0.00008 *
 * P               4     -0.00000     -0.21994      0.00045 *
 * P               5      0.00000     -0.00608     -0.00003 *
 * P               6     -0.00000     -0.00700      0.00004 *
 * P               7      0.00000      0.00510     -0.00006 *
 * P               8      0.00000     -0.02956     -0.00007 *
 * P               9     -0.00000     -0.00401     -0.00024 *
 * P              10     -0.00000      0.22793      0.00013 *
 * P              11      0.00000     -1.82335     -0.00001 *
 * P              12      0.00000      0.04500      0.00042 *
 * In              1      0.00000      0.00017      0.00003 *
 * In              2     -0.00000      0.05984     -0.00022 *
 * In              3      0.00000      0.00955     -0.00058 *
 * In              4     -0.00000      0.00152     -0.00028 *
 * In              5      0.00000      0.00001     -0.00018 *
 * In              6     -0.00000     -0.00008     -0.00016 *
 * In              7     -0.00000      0.00083      0.00013 *
 * In              8      0.00000      0.32511      0.00021 *
 * In              9     -0.00000      0.02883      0.00012 *
 * In             10      0.00000      0.19441     -0.00003 *
 * In             11     -0.00000      1.17838     -0.00001 *
 * In             12      0.00000      0.00450      0.00000 *
 *                                                          *
 ************************************************************

 ******************************** Constrained Forces ********************************
 *                                                                                  *
 *                           Cartesian components (eV/A)                            *
 * -------------------------------------------------------------------------------- *
 *                         x                    y                    z              *
 *                                                                                  *
 * P               1      0.00000(cons'd)      0.00000(cons'd)      0.00009         *
 * P               2      0.00000(cons'd)     -0.00000(cons'd)      0.00016         *
 * P               3      0.00000(cons'd)      0.00000(cons'd)      0.00008         *
 * P               4      0.00000(cons'd)      0.00000(cons'd)      0.00045         *
 * P               5      0.00000(cons'd)      0.00000(cons'd)     -0.00003         *
 * P               6      0.00000(cons'd)      0.00000(cons'd)      0.00004         *
 * P               7      0.00000(cons'd)     -0.00000(cons'd)     -0.00006         *
 * P               8     -0.00000(cons'd)      0.00000(cons'd)     -0.00007         *
 * P               9      0.00000(cons'd)      0.00000(cons'd)     -0.00024         *
 * P              10      0.00000(cons'd)      0.00000(cons'd)      0.00013         *
 * P              11     -0.00000(cons'd)      0.00000(cons'd)     -0.00001         *
 * P              12     -0.00000(cons'd)     -0.00000(cons'd)      0.00042         *
 * In              1      0.00000(cons'd)      0.00000(cons'd)      0.00003         *
 * In              2      0.00000(cons'd)      0.00000(cons'd)     -0.00022         *
 * In              3      0.00000(cons'd)      0.00000(cons'd)     -0.00058         *
 * In              4      0.00000(cons'd)      0.00000(cons'd)     -0.00028         *
 * In              5      0.00000(cons'd)      0.00000(cons'd)     -0.00018         *
 * In              6      0.00000(cons'd)      0.00000(cons'd)     -0.00016         *
 * In              7      0.00000(cons'd)      0.00000(cons'd)      0.00013         *
 * In              8      0.00000(cons'd)      0.00000(cons'd)      0.00021         *
 * In              9      0.00000(cons'd)      0.00000(cons'd)      0.00012         *
 * In             10      0.00000(cons'd)     -0.00000(cons'd)     -0.00003         *
 * In             11      0.00000(cons'd)      0.00000(cons'd)     -0.00001         *
 * In             12      0.00000(cons'd)      0.00000(cons'd)      0.00000         *
 *                                                                                  *
 ************************************************************************************

 Pseudo atomic calculation performed for P 3s2 3p3

 Converged in 23 iterations to a total energy of -208.0292 eV

 Pseudo atomic calculation performed for In 4d10 5s2 5p1

 Converged in 42 iterations to a total energy of -1747.4501 eV
Charge spilling parameter for spin component 1 = 0.16%

            Orbital Populations       
     Ion    Atom   Orbital             Charge
  -------------------------------------------
      P     1      S                    1.734
      P     1      Px                   1.313
      P     1      Py                   1.314
      P     1      Pz                   1.314
      P     2      S                    1.735
      P     2      Px                   1.312
      P     2      Py                   1.314
      P     2      Pz                   1.313
      P     3      S                    1.734
      P     3      Px                   1.313
      P     3      Py                   1.314
      P     3      Pz                   1.314
      P     4      S                    1.739
      P     4      Px                   1.308
      P     4      Py                   1.309
      P     4      Pz                   1.300
      P     5      S                    1.734
      P     5      Px                   1.313
      P     5      Py                   1.314
      P     5      Pz                   1.314
      P     6      S                    1.734
      P     6      Px                   1.313
      P     6      Py                   1.314
      P     6      Pz                   1.314
      P     7      S                    1.735
      P     7      Px                   1.312
      P     7      Py                   1.314
      P     7      Pz                   1.314
      P     8      S                    1.736
      P     8      Px                   1.312
      P     8      Py                   1.313
      P     8      Pz                   1.312
      P     9      S                    1.735
      P     9      Px                   1.313
      P     9      Py                   1.314
      P     9      Pz                   1.313
      P    10      S                    1.767
      P    10      Px                   1.299
      P    10      Py                   1.238
      P    10      Pz                   1.272
      P    11      S                    1.815
      P    11      Px                   1.260
      P    11      Py                   1.183
      P    11      Pz                   1.335
      P    12      S                    1.736
      P    12      Px                   1.310
      P    12      Py                   1.314
      P    12      Pz                   1.308
     In     1      Dzz                  1.999
     In     1      Dzy                  1.997
     In     1      Dzx                  1.997
     In     1      Dxx-yy               1.997
     In     1      Dxy                  1.999
     In     1      S                    1.424
     In     1      Px                   0.482
     In     1      Py                   0.481
     In     1      Pz                   0.481
     In     1      S                   -0.533
     In     2      Dzz                  1.999
     In     2      Dzy                  1.997
     In     2      Dzx                  1.997
     In     2      Dxx-yy               1.997
     In     2      Dxy                  1.999
     In     2      S                    1.433
     In     2      Px                   0.481
     In     2      Py                   0.486
     In     2      Pz                   0.478
     In     2      S                   -0.502
     In     3      Dzz                  1.999
     In     3      Dzy                  1.997
     In     3      Dzx                  1.997
     In     3      Dxx-yy               1.997
     In     3      Dxy                  1.999
     In     3      S                    1.430
     In     3      Px                   0.481
     In     3      Py                   0.481
     In     3      Pz                   0.481
     In     3      S                   -0.544
     In     4      Dzz                  1.999
     In     4      Dzy                  1.997
     In     4      Dzx                  1.997
     In     4      Dxx-yy               1.997
     In     4      Dxy                  1.999
     In     4      S                    1.425
     In     4      Px                   0.482
     In     4      Py                   0.481
     In     4      Pz                   0.481
     In     4      S                   -0.536
     In     5      Dzz                  1.999
     In     5      Dzy                  1.997
     In     5      Dzx                  1.997
     In     5      Dxx-yy               1.997
     In     5      Dxy                  1.999
     In     5      S                    1.426
     In     5      Px                   0.482
     In     5      Py                   0.481
     In     5      Pz                   0.481
     In     5      S                   -0.534
     In     6      Dzz                  1.999
     In     6      Dzy                  1.997
     In     6      Dzx                  1.997
     In     6      Dxx-yy               1.997
     In     6      Dxy                  1.999
     In     6      S                    1.424
     In     6      Px                   0.482
     In     6      Py                   0.481
     In     6      Pz                   0.481
     In     6      S                   -0.533
     In     7      Dzz                  1.999
     In     7      Dzy                  1.997
     In     7      Dzx                  1.997
     In     7      Dxx-yy               1.997
     In     7      Dxy                  1.999
     In     7      S                    1.426
     In     7      Px                   0.482
     In     7      Py                   0.481
     In     7      Pz                   0.481
     In     7      S                   -0.536
     In     8      Dzz                  1.999
     In     8      Dzy                  1.997
     In     8      Dzx                  1.997
     In     8      Dxx-yy               1.997
     In     8      Dxy                  1.999
     In     8      S                    1.349
     In     8      Px                   0.512
     In     8      Py                   0.477
     In     8      Pz                   0.486
     In     8      S                   -0.402
     In     9      Dzz                  1.999
     In     9      Dzy                  1.997
     In     9      Dzx                  1.997
     In     9      Dxx-yy               1.997
     In     9      Dxy                  1.999
     In     9      S                    1.424
     In     9      Px                   0.482
     In     9      Py                   0.479
     In     9      Pz                   0.480
     In     9      S                   -0.552
     In    10      Dzz                  1.999
     In    10      Dzy                  1.997
     In    10      Dzx                  1.997
     In    10      Dxx-yy               1.997
     In    10      Dxy                  1.999
     In    10      S                    1.446
     In    10      Px                   0.499
     In    10      Py                   0.486
     In    10      Pz                   0.480
     In    10      S                   -0.456
     In    11      Dzz                  1.999
     In    11      Dzy                  1.997
     In    11      Dzx                  1.999
     In    11      Dxx-yy               1.998
     In    11      Dxy                  1.999
     In    11      S                    1.347
     In    11      Px                   0.368
     In    11      Py                   0.477
     In    11      Pz                   0.470
     In    11      S                   -0.339
     In    12      Dzz                  1.999
     In    12      Dzy                  1.997
     In    12      Dzx                  1.997
     In    12      Dxx-yy               1.997
     In    12      Dxy                  1.999
     In    12      S                    1.425
     In    12      Px                   0.482
     In    12      Py                   0.481
     In    12      Pz                   0.481
     In    12      S                   -0.526
  -------------------------------------------
                           Total:     216.000
  -------------------------------------------

     Atomic Populations (Mulliken)
     -----------------------------
Species          Ion     s       p       d       f      Total   Charge (e)
==========================================================================
  P               1     1.734   3.941   0.000   0.000   5.675    -0.675
  P               2     1.735   3.939   0.000   0.000   5.674    -0.674
  P               3     1.734   3.941   0.000   0.000   5.675    -0.675
  P               4     1.739   3.917   0.000   0.000   5.656    -0.656
  P               5     1.734   3.941   0.000   0.000   5.675    -0.675
  P               6     1.734   3.941   0.000   0.000   5.675    -0.675
  P               7     1.735   3.940   0.000   0.000   5.675    -0.675
  P               8     1.736   3.937   0.000   0.000   5.673    -0.673
  P               9     1.735   3.940   0.000   0.000   5.675    -0.675
  P              10     1.767   3.810   0.000   0.000   5.577    -0.577
  P              11     1.815   3.779   0.000   0.000   5.594    -0.594
  P              12     1.736   3.931   0.000   0.000   5.668    -0.668
  In              1     0.891   1.444   9.989   0.000  12.324     0.676
  In              2     0.931   1.445   9.989   0.000  12.366     0.634
  In              3     0.886   1.443   9.989   0.000  12.318     0.682
  In              4     0.890   1.444   9.989   0.000  12.323     0.677
  In              5     0.892   1.444   9.989   0.000  12.325     0.675
  In              6     0.891   1.444   9.989   0.000  12.324     0.676
  In              7     0.890   1.444   9.989   0.000  12.323     0.677
  In              8     0.946   1.475   9.990   0.000  12.411     0.589
  In              9     0.872   1.441   9.989   0.000  12.302     0.698
  In             10     0.990   1.465   9.989   0.000  12.443     0.557
  In             11     1.008   1.315   9.993   0.000  12.316     0.684
  In             12     0.899   1.444   9.989   0.000  12.332     0.668
==========================================================================

                 Bond                   Population      Length (A)
======================================================================
              P 7  -- In 7                   1.16        2.55267
              P 12 -- In 9                   1.24        2.55280
              P 3  -- In 1                   1.16        2.55291
              P 1  -- In 6                   1.16        2.55292
              P 2  -- In 12                  1.17        2.55297
              P 6  -- In 5                   1.17        2.55326
              P 5  -- In 4                   1.17        2.55337
              P 6  -- In 6                   1.16        2.55372
              P 3  -- In 7                   1.17        2.55384
              P 1  -- In 1                   1.16        2.55388
              P 9  -- In 4                   1.16        2.55394
              P 9  -- In 3                   1.16        2.55395
              P 5  -- In 5                   1.16        2.55395
              P 4  -- In 2                   1.05        2.55404
              P 8  -- In 3                   1.19        2.55429
              P 7  -- In 12                  1.15        2.55445
              P 8  -- In 2                   1.13        2.55471
              P 2  -- In 9                   1.15        2.55535
              P 12 -- In 10                  1.07        2.55790
              P 4  -- In 8                   1.26        2.56130
              P 10 -- In 10                  1.04        2.56146
              P 10 -- In 11                  1.16        2.62736
              P 11 -- In 8                   1.09        2.65027
              P 11 -- In 11                  0.75        2.87572
======================================================================

 Hirshfeld supercell size:           4           4           1
Standard grid dimensions: 180 180 360
Fine grid dimensions:     180 180 360


     Hirshfeld Analysis
     ------------------
Species   Ion     Hirshfeld Charge (e)
======================================
  P        1                -0.24
  P        2                -0.24
  P        3                -0.24
  P        4                -0.24
  P        5                -0.24
  P        6                -0.24
  P        7                -0.24
  P        8                -0.24
  P        9                -0.24
  P       10                -0.22
  P       11                -0.24
  P       12                -0.24
  In       1                 0.24
  In       2                 0.24
  In       3                 0.24
  In       4                 0.24
  In       5                 0.24
  In       6                 0.24
  In       7                 0.24
  In       8                 0.21
  In       9                 0.24
  In      10                 0.22
  In      11                 0.27
  In      12                 0.24
======================================

 
 A BibTeX formatted list of references used in this run has been written to 
 StackingFaultStructs_001_110_5.bib
 
Initialisation time =     22.57 s
Calculation time    =   3287.50 s
Finalisation time   =     62.90 s
Total time          =   3372.98 s
Peak Memory Use     = 10018880 kB
 
Overall parallel efficiency rating: Very good (85%)
 
Data was distributed by:-
k-point (84-way); efficiency rating: Very good (85%)
