 +-------------------------------------------------+
 |                                                 |
 |      CCC   AA    SSS  TTTTT  EEEEE  PPPP        |
 |     C     A  A  S       T    E      P   P       |
 |     C     AAAA   SS     T    EEE    PPPP        |
 |     C     A  A     S    T    E      P           |
 |      CCC  A  A  SSS     T    EEEEE  P           |
 |                                                 |
 +-------------------------------------------------+
 |                                                 |
 | Welcome to Academic Release CASTEP version 20.11|          
 | Ab Initio Total Energy Program                  |
 |                                                 |
 | Authors:                                        |
 | M. Segall, M. Probert, C. Pickard, P. Hasnip,   |
 | S. Clark, K. Refson, J. R. Yates, M. Payne      |
 |                                                 |
 | Contributors:                                   |
 | P. Lindan, P. Haynes, J. White, V. Milman,      |
 | N. Govind, M. Gibson, P. Tulip, V. Cocula,      |
 | B. Montanari, D. Quigley, M. Glover,            |
 | L. Bernasconi, A. Perlov, M. Plummer,           |
 | E. McNellis, J. Meyer, J. Gale, D. Jochym       |
 | J. Aarons, B. Walker, R. Gillen, D. Jones       |
 | T. Green, I. J. Bush, C. J. Armstrong,          |
 | E. J. Higgins, E. L. Brown, M. S. McFly,        |
 | J. Wilkins, B-C. Shih, P. J. P. Byrne,          |
 | R. J. Maurer, J. C. Womack, J. Dziedzic,        |
 | J. R. Kermode, A. Bartok-Partay                 |
 |                                                 |
 | Copyright (c) 2000 - 2020                       |
 |                                                 |
 |     Distributed under license from Cambridge    |
 |     Enterprise for academic use only.           |
 |                                                 |
 | Please cite                                     |
 |                                                 |
 |     "First principles methods using CASTEP"     |
 |                                                 |
 |         Zeitschrift fuer Kristallographie       |
 |           220(5-6) pp. 567-570 (2005)           |
 |                                                 |
 | S. J. Clark, M. D. Segall, C. J. Pickard,       |
 | P. J. Hasnip, M. J. Probert, K. Refson,         |
 | M. C. Payne                                     |
 |                                                 |
 |       in all publications arising from          |
 |              your use of CASTEP                 |
 |                                                 |
 +-------------------------------------------------+
 |                                                 |
 |              http://www.castep.org              |
 |                                                 |
 +-------------------------------------------------+
 
 
 
 Compiled for linux_x86_64_ifort on Wed, 25 Aug 2021 18:50:38 +0100
 from code version e772bf432+  HEAD  Sat Apr 3 17:41:32 2021 +0100
 Compiler: Intel Fortran 19.0.5.281; Optimisation: fast
 MATHLIBS: Intel MKL(2019.0.5) (LAPACK version 3.7.0)
 FFT Lib : mkl
 Fundamental constants values: CODATA 2014
 
 Run started: Thu, 15 Dec 2022 15:34:38 +0000
 
 Atomic calculation performed for P: 1s2 2s2 2p6 3s2 3p3
 
 Exceeded max iterations: converged to -0.000003405 eV
 The ae energy is -9309.074 eV
 
   ============================================================                
   | Pseudopotential Report - Date of generation 15-12-2022   |                
   ------------------------------------------------------------                
   | Element: P Ionic charge:  5.00 Level of theory: RSCAN    |                
   | Atomic Solver: Koelling-Harmon                           |                
   |                                                          |                
   |               Reference Electronic Structure             |                
   |         Orbital         Occupation         Energy        |                
   |            3s              2.000           -0.535        |                
   |            3p              3.000           -0.209        |                
   |                                                          |                
   |                 Pseudopotential Definition               |                
   |        Beta     l      e      Rc     scheme   norm       |                
   |          1      0   -0.535   1.807     qc      0         |                
   |          2      0    0.250   1.807     qc      0         |                
   |          3      1   -0.209   1.807     qc      0         |                
   |          4      1    0.250   1.807     qc      0         |                
   |          5      2    0.000   1.807     qc      0         |                
   |          6      2    0.250   1.807     qc      0         |                
   |         loc     3    0.000   1.807     pn      0         |                
   |                                                          |                
   | Augmentation charge Rinner = 1.263                       |                
   | Partial core correction Rc = 1.263                       |                
   ------------------------------------------------------------                
   | "3|1.8|4|4|5|30:31:32"                                   |                
   ------------------------------------------------------------                
   |      Author: Chris J. Pickard, Cambridge University      |                
   ============================================================                
 Warning: ion_atom_output_psp cannot write out meta-GGA pseudopotentials present
 ly.
 
 Atomic calculation performed for In:
 1s2 2s2 2p6 3s2 3p6 3d10 4s2 4p6 4d10 5s2 5p1
 
 Exceeded max iterations: converged to -0.000725459 eV
 The ae energy is -160093.321 eV
 
   ============================================================                
   | Pseudopotential Report - Date of generation 15-12-2022   |                
   ------------------------------------------------------------                
   | Element: In Ionic charge: 13.00 Level of theory: RSCAN   |                
   | Atomic Solver: Koelling-Harmon                           |                
   |                                                          |                
   |               Reference Electronic Structure             |                
   |         Orbital         Occupation         Energy        |                
   |            4d             10.000           -0.711        |                
   |            5s              2.000           -0.313        |                
   |            5p              1.000           -0.095        |                
   |                                                          |                
   |                 Pseudopotential Definition               |                
   |        Beta     l      e      Rc     scheme   norm       |                
   |          1      0   -0.313   2.501     qc      0         |                
   |          2      0    0.250   2.501     qc      0         |                
   |          3      1   -0.095   2.501     qc      0         |                
   |          4      1    0.250   2.501     qc      0         |                
   |          5      2   -0.711   2.207     qc      0         |                
   |          6      2    0.250   2.207     qc      0         |                
   |         loc     3    0.000   2.501     pn      0         |                
   |                                                          |                
   | Augmentation charge Rinner = 1.504                       |                
   | Partial core correction Rc = 1.504                       |                
   ------------------------------------------------------------                
   | "3|2.5|2.5|1.5|7|8|9|50:51:42U2.2U2.2"                   |                
   ------------------------------------------------------------                
   |      Author: Chris J. Pickard, Cambridge University      |                
   ============================================================                
 Warning: ion_atom_output_psp cannot write out meta-GGA pseudopotentials present
 ly.
 
 Pseudo atomic calculation performed for P 3s2 3p3
 
 Converged in 23 iterations to a total energy of -208.0292 eV
 
 Pseudo atomic calculation performed for In 4d10 5s2 5p1
 
 Converged in 42 iterations to a total energy of -1747.4504 eV
 Calculation parallelised over 32 processes.
 Data is distributed by k-point(32-way)

 ************************************ Title ************************************
 

 ***************************** General Parameters ******************************
  
 output verbosity                               : normal  (1)
 write checkpoint data to                       : ZB_EOS_0.7631.check
 type of calculation                            : single point energy
 stress calculation                             : on
 density difference calculation                 : off
 electron localisation func (ELF) calculation   : off
 Hirshfeld analysis                             : off
 molecular orbital projected DOS                : off
 deltaSCF calculation                           : off
 unlimited duration calculation
 timing information                             : on
 memory usage estimate                          : on
 write extra output files                       : on
 write final potential to formatted file        : off
 write final density to formatted file          : off
 write BibTeX reference list                    : on
 write OTFG pseudopotential files               : on
 write electrostatic potential file             : on
 write bands file                               : on
 checkpoint writing                             : off
  
 output         length unit                     : A
 output           mass unit                     : amu
 output           time unit                     : ps
 output         charge unit                     : e
 output           spin unit                     : hbar/2
 output         energy unit                     : eV
 output          force unit                     : eV/A
 output       velocity unit                     : A/ps
 output       pressure unit                     : GPa
 output     inv_length unit                     : 1/A
 output      frequency unit                     : cm-1
 output force constant unit                     : eV/A**2
 output         volume unit                     : A**3
 output   IR intensity unit                     : (D/A)**2/amu
 output         dipole unit                     : D
 output         efield unit                     : eV/A/e
 output        entropy unit                     : J/mol/K
 output    efield chi2 unit                     : pm/V
  
 wavefunctions paging                           : none
 random number generator seed                   : randomised (153438633)
 data distribution                              : optimal for this architecture
 optimization strategy                          : balance speed and memory

 *********************** Exchange-Correlation Parameters ***********************
  
 using functional                               : RSCAN
 relativistic treatment                         : Koelling-Harmon
 DFT+D: Semi-empirical dispersion correction    : off

 ************************* Pseudopotential Parameters **************************
  
 pseudopotential representation                 : reciprocal space
 <beta|phi> representation                      : reciprocal space
 spin-orbit coupling                            : off

 **************************** Basis Set Parameters *****************************
  
 plane wave basis set cut-off                   :   900.0000   eV
 size of standard grid                          :     1.7500
 size of   fine   gmax                          :    26.8966   1/A
 finite basis set correction                    : automatic
 number of sample energies                      :          3
           sample  spacing                      :     5.0000   eV

 **************************** Electronic Parameters ****************************
  
 number of  electrons                           :  72.00    
 net charge of system                           :  0.000    
 treating system as non-spin-polarized
 number of bands                                :         43

 ********************* Electronic Minimization Parameters **********************
  
 Method: Treating system as metallic with density mixing treatment of electrons,
         and number of  SD  steps               :          1
         and number of  CG  steps               :          4
  
 total energy / atom convergence tol.           : 0.1000E-07   eV
 eigen-energy convergence tolerance             : 0.2222E-08   eV
 max force / atom convergence tol.              : ignored
 convergence tolerance window                   :          3   cycles
 max. number of SCF cycles                      :         30
 number of fixed-spin iterations                :         10
 smearing scheme                                : Gaussian
 smearing width                                 : 0.2000       eV
 Fermi energy convergence tolerance             : 0.2721E-13   eV
 periodic dipole correction                     : NONE

 ************************** Density Mixing Parameters **************************
  
 density-mixing scheme                          : Broyden
 max. length of mixing history                  :         20
 charge density mixing amplitude                : 0.8000    
 cut-off energy for mixing                      :  900.0       eV

 *********************** Population Analysis Parameters ************************
  
 Population analysis with cutoff                :  3.000       A
 Population analysis output                     : summary and pdos components

 *******************************************************************************
  
 
                           -------------------------------
                                      Unit Cell
                           -------------------------------
        Real Lattice(A)                      Reciprocal Lattice(1/A)
     4.5032380     0.0000000     0.0000000        1.395259435   0.000000000   0.000000000
     0.0000000     4.5032380     0.0000000        0.000000000   1.395259435   0.000000000
     0.0000000     0.0000000     4.5032380        0.000000000   0.000000000   1.395259435
 
                       Lattice parameters(A)       Cell Angles
                    a =      4.503238          alpha =   90.000000
                    b =      4.503238          beta  =   90.000000
                    c =      4.503238          gamma =   90.000000
 
                       Current cell volume =            91.321850       A**3
                                   density =             6.385843   AMU/A**3
                                           =            10.603942     g/cm^3
 
                           -------------------------------
                                     Cell Contents
                           -------------------------------
                         Total number of ions in cell =    8
                      Total number of species in cell =    2
                        Max number of any one species =    4
 
            xxxxxxxxxxxxxxxxxxxxxxxxxxxxxxxxxxxxxxxxxxxxxxxxxxxxxxxxxxxx
            x  Element    Atom        Fractional coordinates of atoms  x
            x            Number           u          v          w      x
            x----------------------------------------------------------x
            x  P            1         0.250000   0.250000   0.750000   x 
            x  P            2         0.750000   0.250000   0.250000   x 
            x  P            3         0.250000   0.750000   0.250000   x 
            x  P            4         0.750000   0.750000   0.750000   x 
            x  In           1         0.000000   0.000000   0.000000   x 
            x  In           2         0.500000   0.000000   0.500000   x 
            x  In           3         0.000000   0.500000   0.500000   x 
            x  In           4         0.500000   0.500000   0.000000   x 
            xxxxxxxxxxxxxxxxxxxxxxxxxxxxxxxxxxxxxxxxxxxxxxxxxxxxxxxxxxxx
 
 
                         No user defined ionic velocities
 
                           -------------------------------
                                   Details of Species
                           -------------------------------
 
                               Mass of species in AMU
                                    P   30.9737600
                                    In  114.8180000
 
                          Electric Quadrupole Moment (Barn)
                                    P    1.0000000 No Isotope Defined
                                    In    0.7700000 Isotope115
 
                          Files used for pseudopotentials:
                                    P 3|1.8|4|4|5|30:31:32
                                    In 3|2.5|2.5|1.5|7|8|9|50:51:42U2.2U2.2
 
                           -------------------------------
                              k-Points For BZ Sampling
                           -------------------------------
                       MP grid size for SCF calculation is  9  9  9
                            with an offset of   0.056  0.056  0.056
                       Number of kpoints used =           365
 
                           -------------------------------
                               Symmetry and Constraints
                           -------------------------------
 
                      Cell is a supercell containing 4 primitive cells
                      Maximum deviation from symmetry =  0.00000         ANG
 
                      Number of symmetry operations   =           1
                      Number of ionic constraints     =           3
                      Point group of crystal =     1: C1, 1, 1
                      Space group of crystal =   216: F-43m, F -4 2 3
 
             Set iprint > 1 for details on symmetry rotations/translations
 
                         Centre of mass is constrained
             Set iprint > 1 for details of linear ionic constraints
 
                         Number of cell constraints= 0
                         Cell constraints are:  1 2 3 4 5 6
 
                         External pressure/stress (GPa)
                          0.00000   0.00000   0.00000
                                    0.00000   0.00000
                                              0.00000
  
+---------------- MEMORY AND SCRATCH DISK ESTIMATES PER PROCESS --------------+
|                                                     Memory          Disk    |
| Baseline code, static data and system overhead      391.0 MB         0.0 MB |
| BLAS internal memory storage                          0.0 MB         0.0 MB |
| Model and support data                              255.6 MB       342.8 MB |
| Electronic energy minimisation requirements         125.7 MB         0.0 MB |
| Force calculation requirements                        9.3 MB         0.0 MB |
| Stress calculation requirements                      10.3 MB         0.0 MB |
|                                               ----------------------------- |
| Approx. total storage required per process          772.3 MB       342.8 MB |
|                                                                             |
| Requirements will fluctuate during execution and may exceed these estimates |
+-----------------------------------------------------------------------------+
Calculating finite basis set correction with  3 cut-off energies.
Calculating total energy with cut-off of  890.000 eV.
------------------------------------------------------------------------ <-- SCF
SCF loop      Energy           Fermi           Energy gain       Timer   <-- SCF
                               energy          per atom          (sec)   <-- SCF
------------------------------------------------------------------------ <-- SCF
Initial  -6.25675033E+003  0.00000000E+000                        20.53  <-- SCF
      1  -7.62178728E+003  1.37362249E+001   1.70629619E+002      49.89  <-- SCF
      2  -7.77526273E+003  1.41770725E+001   1.91844315E+001      71.80  <-- SCF
      3  -7.77763054E+003  1.40007571E+001   2.95976332E-001      94.28  <-- SCF
      4  -7.80683689E+003  1.43920806E+001   3.65079282E+000     118.86  <-- SCF
      5  -7.80685086E+003  1.43906965E+001   1.74664666E-003     143.56  <-- SCF
      6  -7.80660075E+003  1.44984123E+001  -3.12635117E-002     168.50  <-- SCF
      7  -7.80453338E+003  1.47002683E+001  -2.58421025E-001     193.50  <-- SCF
      8  -7.80460757E+003  1.47410714E+001   9.27384460E-003     220.52  <-- SCF
      9  -7.80460809E+003  1.47460161E+001   6.47169601E-005     249.10  <-- SCF
     10  -7.80460859E+003  1.47508874E+001   6.16232752E-005     274.83  <-- SCF
     11  -7.80460862E+003  1.47518970E+001   4.10704057E-006     302.34  <-- SCF
     12  -7.80460862E+003  1.47520594E+001   1.24621633E-007     323.11  <-- SCF
     13  -7.80460862E+003  1.47521205E+001   6.63494804E-009     340.38  <-- SCF
     14  -7.80460862E+003  1.47521138E+001   5.56070363E-010     358.05  <-- SCF
------------------------------------------------------------------------ <-- SCF
 
Final energy, E             =  -7804.595271463     eV
Final free energy (E-TS)    =  -7804.608619234     eV
(energies not corrected for finite basis set)
 
NB est. 0K energy (E-0.5TS)      =  -7804.601945348     eV
 
Calculating total energy with cut-off of  895.000 eV.
------------------------------------------------------------------------ <-- SCF
SCF loop      Energy           Fermi           Energy gain       Timer   <-- SCF
                               energy          per atom          (sec)   <-- SCF
------------------------------------------------------------------------ <-- SCF
Initial  -7.80459527E+003  0.00000000E+000                       363.30  <-- SCF
      1  -7.80460864E+003  1.47521169E+001   1.67156900E-003     388.40  <-- SCF
      2  -7.80460864E+003  1.47521169E+001   3.59628260E-011     405.15  <-- SCF
      3  -7.80460864E+003  1.47521145E+001   9.26332791E-010     422.68  <-- SCF
      4  -7.80460864E+003  1.47521148E+001   5.29774963E-011     439.57  <-- SCF
------------------------------------------------------------------------ <-- SCF
 
Final energy, E             =  -7804.595296208     eV
Final free energy (E-TS)    =  -7804.608644018     eV
(energies not corrected for finite basis set)
 
NB est. 0K energy (E-0.5TS)      =  -7804.601970113     eV
 
Calculating total energy with cut-off of  900.000 eV.
------------------------------------------------------------------------ <-- SCF
SCF loop      Energy           Fermi           Energy gain       Timer   <-- SCF
                               energy          per atom          (sec)   <-- SCF
------------------------------------------------------------------------ <-- SCF
Initial  -7.80459530E+003  0.00000000E+000                       444.72  <-- SCF
      1  -7.80460867E+003  1.47521137E+001   1.67113350E-003     469.44  <-- SCF
      2  -7.80460867E+003  1.47521137E+001   1.00541234E-011     486.35  <-- SCF
      3  -7.80460867E+003  1.47521146E+001   7.52899163E-010     503.02  <-- SCF
      4  -7.80460867E+003  1.47521142E+001   3.20958554E-011     519.74  <-- SCF
------------------------------------------------------------------------ <-- SCF
 
Final energy, E             =  -7804.595317497     eV
Final free energy (E-TS)    =  -7804.608665279     eV
(energies not corrected for finite basis set)
 
NB est. 0K energy (E-0.5TS)      =  -7804.601991388     eV
 
 For future reference: finite basis dEtot/dlog(Ecut) =      -0.004148eV
 Total energy corrected for finite basis set =   -7804.608666 eV
 
 ************************** Forces **************************
 *                                                          *
 *               Cartesian components (eV/A)                *
 * -------------------------------------------------------- *
 *                         x            y            z      *
 *                                                          *
 * P               1     -0.00003     -0.00003     -0.00003 *
 * P               2     -0.00003     -0.00003     -0.00003 *
 * P               3     -0.00003     -0.00003     -0.00003 *
 * P               4     -0.00003     -0.00003     -0.00003 *
 * In              1      0.00003      0.00003      0.00003 *
 * In              2      0.00003      0.00003      0.00003 *
 * In              3      0.00003      0.00003      0.00003 *
 * In              4      0.00003      0.00003      0.00003 *
 *                                                          *
 ************************************************************
 
 ***************** Stress Tensor *****************
 *                                               *
 *          Cartesian components (GPa)           *
 * --------------------------------------------- *
 *             x             y             z     *
 *                                               *
 *  x   -314.175811     -0.000309     -0.000309  *
 *  y     -0.000309   -314.175811     -0.000309  *
 *  z     -0.000309     -0.000309   -314.175809  *
 *                                               *
 *  Pressure:  314.1758                          *
 *                                               *
 *************************************************
 
 Pseudo atomic calculation performed for P 3s2 3p3
 
 Converged in 23 iterations to a total energy of -208.0292 eV
 
 Pseudo atomic calculation performed for In 4d10 5s2 5p1
 
 Converged in 42 iterations to a total energy of -1747.4504 eV
Charge spilling parameter for spin component 1 = 0.56%
 
            Orbital Populations       
     Ion    Atom   Orbital             Charge
  -------------------------------------------
      P     1      S                    1.496
      P     1      Px                   1.406
      P     1      Py                   1.406
      P     1      Pz                   1.406
      P     2      S                    1.496
      P     2      Px                   1.406
      P     2      Py                   1.406
      P     2      Pz                   1.406
      P     3      S                    1.496
      P     3      Px                   1.406
      P     3      Py                   1.406
      P     3      Pz                   1.406
      P     4      S                    1.496
      P     4      Px                   1.406
      P     4      Py                   1.406
      P     4      Pz                   1.406
     In     1      Dzz                  1.991
     In     1      Dzy                  1.970
     In     1      Dzx                  1.970
     In     1      Dxx-yy               1.991
     In     1      Dxy                  1.970
     In     1      S                    1.593
     In     1      Px                   0.640
     In     1      Py                   0.640
     In     1      Pz                   0.640
     In     1      S                   -1.118
     In     2      Dzz                  1.991
     In     2      Dzy                  1.970
     In     2      Dzx                  1.970
     In     2      Dxx-yy               1.991
     In     2      Dxy                  1.970
     In     2      S                    1.593
     In     2      Px                   0.640
     In     2      Py                   0.640
     In     2      Pz                   0.640
     In     2      S                   -1.119
     In     3      Dzz                  1.991
     In     3      Dzy                  1.970
     In     3      Dzx                  1.970
     In     3      Dxx-yy               1.991
     In     3      Dxy                  1.970
     In     3      S                    1.593
     In     3      Px                   0.640
     In     3      Py                   0.640
     In     3      Pz                   0.640
     In     3      S                   -1.119
     In     4      Dzz                  1.991
     In     4      Dzy                  1.970
     In     4      Dzx                  1.970
     In     4      Dxx-yy               1.991
     In     4      Dxy                  1.970
     In     4      S                    1.593
     In     4      Px                   0.640
     In     4      Py                   0.640
     In     4      Pz                   0.640
     In     4      S                   -1.119
  -------------------------------------------
                           Total:      71.999
  -------------------------------------------
 
     Atomic Populations (Mulliken)
     -----------------------------
Species          Ion     s      p      d      f     Total  Charge (e)
=====================================================================
  P               1     1.50   4.22   0.00   0.00   5.71    -0.71
  P               2     1.50   4.22   0.00   0.00   5.71    -0.71
  P               3     1.50   4.22   0.00   0.00   5.71    -0.71
  P               4     1.50   4.22   0.00   0.00   5.71    -0.71
  In              1     0.47   1.92   9.89   0.00  12.29     0.71
  In              2     0.47   1.92   9.89   0.00  12.29     0.71
  In              3     0.47   1.92   9.89   0.00  12.29     0.71
  In              4     0.47   1.92   9.89   0.00  12.29     0.71
=====================================================================
 
                 Bond                   Population      Length (A)
======================================================================
               P 3 -- In 2                   0.62        1.94996
               P 2 -- In 3                   0.62        1.94996
               P 1 -- In 4                   0.62        1.94996
               P 4 -- In 1                   0.62        1.94996
               P 4 -- In 4                   0.61        1.94996
               P 4 -- In 3                   0.62        1.94996
               P 4 -- In 2                   0.61        1.94996
               P 3 -- In 4                   0.62        1.94996
               P 3 -- In 3                   0.61        1.94996
               P 2 -- In 4                   0.61        1.94996
               P 2 -- In 2                   0.61        1.94996
               P 1 -- In 3                   0.61        1.94996
               P 1 -- In 2                   0.62        1.94996
               P 3 -- In 1                   0.61        1.94996
               P 2 -- In 1                   0.62        1.94996
               P 1 -- In 1                   0.61        1.94996
======================================================================
 
 
 A BibTeX formatted list of references used in this run has been written to 
 ZB_EOS_0.7631.bib
 
Initialisation time =     16.65 s
Calculation time    =    550.98 s
Finalisation time   =      0.16 s
Total time          =    567.79 s
Peak Memory Use     = 1477108 kB
  
Overall parallel efficiency rating: Excellent (96%)                             
  
Data was distributed by:-
k-point (32-way); efficiency rating: Excellent (96%)                            
  
Parallel notes:
1) Calculation only took 567.6 s, so efficiency estimates may be inaccurate.    
