 +-------------------------------------------------+
 |                                                 |
 |      CCC   AA    SSS  TTTTT  EEEEE  PPPP        |
 |     C     A  A  S       T    E      P   P       |
 |     C     AAAA   SS     T    EEE    PPPP        |
 |     C     A  A     S    T    E      P           |
 |      CCC  A  A  SSS     T    EEEEE  P           |
 |                                                 |
 +-------------------------------------------------+
 |                                                 |
 | Welcome to Academic Release CASTEP version 24.1 |
 | Ab Initio Total Energy Program                  |
 |                                                 |
 | Authors:                                        |
 | M. Segall, M. Probert, C. Pickard, P. Hasnip,   |
 | S. Clark, K. Refson, J. R. Yates,               |
 | A. Bartok-Partay, M. Payne                      |
 |                                                 |
 | Contributors:                                   |
 | P. Lindan, P. Haynes, J. White, V. Milman,      |
 | N. Govind, M. Gibson, P. Tulip, V. Cocula,      |
 | B. Montanari, D. Quigley, M. Glover,            |
 | L. Bernasconi, A. Perlov, M. Plummer,           |
 | E. McNellis, J. Meyer, J. Gale, D. Jochym       |
 | J. Aarons, B. Walker, R. Gillen, D. Jones       |
 | T. Green, I. J. Bush, C. J. Armstrong,          |
 | E. J. Higgins, E. L. Brown, M. S. McFly,        |
 | J. Wilkins, B-C. Shih, P. J. P. Byrne,          |
 | R. J. Maurer, J. C. Womack, J. Dziedzic,        |
 | L. LeBlanc, T. K. Stenczel, J. Kermode,         |
 | S. Sturniolo, B. Shi, B. Durham, M. Evans,      |
 | M. J. Smith, A. Tamerus, Z. Hawkhead,           |
 | V. Ravindran, T. Hollins, S. A. Joyce,          |
 | R. T. Strong, A. M. Reilly, S. J. Donaldson     |
 |                                                 |
 | Copyright (c) 2000 - 2023                       |
 |                                                 |
 |     Distributed under license from Cambridge    |
 |     Enterprise for academic use only.           |
 |                                                 |
 | Please cite                                     |
 |                                                 |
 |     "First principles methods using CASTEP"     |
 |                                                 |
 |         Zeitschrift fuer Kristallographie       |
 |           220(5-6) pp. 567-570 (2005)           |
 |                                                 |
 | S. J. Clark, M. D. Segall, C. J. Pickard,       |
 | P. J. Hasnip, M. J. Probert, K. Refson,         |
 | M. C. Payne                                     |
 |                                                 |
 |       in all publications arising from          |
 |              your use of CASTEP                 |
 |                                                 |
 +-------------------------------------------------+
 |                                                 |
 |              http://www.castep.org              |
 |                                                 |
 +-------------------------------------------------+



 Compiled for  GNU 11.2.0 on 04-04-2024 18:39:17
 from code version 6355fd106 Castep241_branch Thu Mar 7 17:56:19 2024 +0000
 Compiler: GNU Fortran 11.2.0; Optimisation: FAST
 Comms   : MPI VERSION : CRAY MPICH version 8.1.23.14 (ANL base 3.4a2)
 MATHLIBS: default (LAPACK version 3.10.1)
 FFT Lib : fftw3 version commercial-fftw-3.3.10-sse2-avx-avx2-avx2_128
 Fundamental constants values: CODATA 2018

 Run started: Wed, 30 Jul 2025 15:15:19 +0100

 Atomic calculation performed for P: 1s2 2s2 2p6 3s2 3p3

 Converged in 47 iterations to an ae energy of -9309.074 eV

   ============================================================                
   | Pseudopotential Report - Date of generation 30-07-2025   |                
   ------------------------------------------------------------                
   | Element: P Ionic charge:  5.00 Level of theory: RSCAN    |                
   | Atomic Solver: Koelling-Harmon                           |                
   |                                                          |                
   |               Reference Electronic Structure             |                
   |         Orbital         Occupation         Energy        |                
   |            3s              2.000           -0.535        |                
   |            3p              3.000           -0.209        |                
   |                                                          |                
   |                 Pseudopotential Definition               |                
   |        Beta     l      e      Rc     scheme   norm       |                
   |          1      0   -0.535   1.807     qc      0         |                
   |          2      0    0.250   1.807     qc      0         |                
   |          3      1   -0.209   1.807     qc      0         |                
   |          4      1    0.250   1.807     qc      0         |                
   |          5      2    0.000   1.807     qc      0         |                
   |          6      2    0.250   1.807     qc      0         |                
   |         loc     3    0.000   1.807     pn      0         |                
   |                                                          |                
   | Augmentation charge Rinner = 1.263                       |                
   | Partial core correction Rc = 1.263                       |                
   ------------------------------------------------------------                
   | "3|1.8|4|4|5|30:31:32"                                   |                
   ------------------------------------------------------------                
   |      Author: Chris J. Pickard, Cambridge University      |                
   ============================================================                
 Warning: otfg_output_psp cannot write out meta-GGA pseudopotentials presently.

 Atomic calculation performed for In:
 1s2 2s2 2p6 3s2 3p6 3d10 4s2 4p6 4d10 5s2 5p1

 Converged in 84 iterations to an ae energy of -160093.328 eV

   ============================================================                
   | Pseudopotential Report - Date of generation 30-07-2025   |                
   ------------------------------------------------------------                
   | Element: In Ionic charge: 13.00 Level of theory: RSCAN   |                
   | Atomic Solver: Koelling-Harmon                           |                
   |                                                          |                
   |               Reference Electronic Structure             |                
   |         Orbital         Occupation         Energy        |                
   |            4d             10.000           -0.711        |                
   |            5s              2.000           -0.313        |                
   |            5p              1.000           -0.095        |                
   |                                                          |                
   |                 Pseudopotential Definition               |                
   |        Beta     l      e      Rc     scheme   norm       |                
   |          1      0   -0.313   2.501     qc      0         |                
   |          2      0    0.250   2.501     qc      0         |                
   |          3      1   -0.095   2.501     qc      0         |                
   |          4      1    0.250   2.501     qc      0         |                
   |          5      2   -0.711   2.207     qc      0         |                
   |          6      2    0.250   2.207     qc      0         |                
   |         loc     3    0.000   2.501     pn      0         |                
   |                                                          |                
   | Augmentation charge Rinner = 1.504                       |                
   | Partial core correction Rc = 1.504                       |                
   ------------------------------------------------------------                
   | "3|2.5|2.5|1.5|7|8|9|50:51:42U2.2U2.2"                   |                
   ------------------------------------------------------------                
   |      Author: Chris J. Pickard, Cambridge University      |                
   ============================================================                
 Warning: otfg_output_psp cannot write out meta-GGA pseudopotentials presently.

 Pseudo atomic calculation performed for P 3s2 3p3

 Converged in 23 iterations to a total energy of -208.0292 eV

 Pseudo atomic calculation performed for In 4d10 5s2 5p1

 Converged in 42 iterations to a total energy of -1747.4501 eV
 Calculation parallelised over 120 processes.
 Data is distributed by G-vector(6-way) and k-point(20-way)
 Each process may use up to 16 threads.

 ************************************ Title ************************************
 

 ***************************** General Parameters ******************************
  
 output verbosity                               : normal  (1)
 write checkpoint data to                       : 90deg_Singlepoints_2.check
 type of calculation                            : single point energy
 stress calculation                             : off
 density difference calculation                 : off
 electron localisation func (ELF) calculation   : off
 Hirshfeld analysis                             : on
 polarisation (Berry phase) analysis            : off
 molecular orbital projected DOS                : off
 deltaSCF calculation                           : off
 unlimited duration calculation
 timing information                             : on
 memory usage estimate                          : on
 write extra output files                       : on
 write final potential to formatted file        : off
 write final density to formatted file          : off
 write BibTeX reference list                    : on
 write OTFG pseudopotential files               : on
 write electrostatic potential file             : on
 write bands file                               : on
 checkpoint writing                             : off
  
 output         length unit                     : A
 output           mass unit                     : amu
 output           time unit                     : ps
 output         charge unit                     : e
 output           spin unit                     : hbar/2
 output         energy unit                     : eV
 output          force unit                     : eV/A
 output       velocity unit                     : A/ps
 output       pressure unit                     : GPa
 output     inv_length unit                     : 1/A
 output      frequency unit                     : cm-1
 output force constant unit                     : eV/A**2
 output         volume unit                     : A**3
 output   IR intensity unit                     : (D/A)**2/amu
 output         dipole unit                     : D
 output         efield unit                     : eV/A/e
 output        entropy unit                     : J/mol/K
 output    efield chi2 unit                     : pm/V
  
 wavefunctions paging                           : none
 random number generator seed                   :  151519786
 data distribution                              : optimal for this architecture
 optimization strategy                          : balance speed and memory

 *********************** Exchange-Correlation Parameters ***********************
  
 using functional                               : RSCAN
 relativistic treatment                         : Koelling-Harmon
 DFT+D: Semi-empirical dispersion correction    : off

 ************************* Pseudopotential Parameters **************************
  
 pseudopotential representation                 : reciprocal space
 <beta|phi> representation                      : reciprocal space
 spin-orbit coupling                            : off

 **************************** Basis Set Parameters *****************************
  
 plane wave basis set cut-off                   :   900.0000   eV
 size of standard grid                          :     2.0000
 size of   fine   gmax                          :    30.7390   1/A
 finite basis set correction                    : none

 **************************** Electronic Parameters ****************************
  
 number of  electrons                           :  864.0    
 net charge of system                           :  0.000    
 treating system as non-spin-polarized
 number of bands                                :        518

 ********************* Electronic Minimization Parameters **********************
  
 Method: Treating system as metallic with density mixing treatment of electrons,
         and number of  SD  steps               :          1
         and number of  CG  steps               :          4
  
 total energy / atom convergence tol.           : 0.1000E-07   eV
 eigen-energy convergence tolerance             : 0.2222E-08   eV
 max force / atom convergence tol.              : ignored
 convergence tolerance window                   :          3   cycles
 max. number of SCF cycles                      :        100
 number of fixed-spin iterations                :         10
 smearing scheme                                : Gaussian
 smearing width                                 : 0.2000       eV
 Fermi energy convergence tolerance             : 0.2721E-13   eV
 periodic dipole correction                     : NONE

 ************************** Density Mixing Parameters **************************
  
 density-mixing scheme                          : Pulay
 max. length of mixing history                  :         20
 charge density mixing amplitude                : 0.5000    
 cut-off energy for mixing                      :  900.0       eV

 *********************** Population Analysis Parameters ************************
  
 Population analysis with cutoff                :  3.000       A
 Population analysis output                     : summary and pdos components

 *******************************************************************************
  

                           -------------------------------
                                      Unit Cell
                           -------------------------------
        Real Lattice(A)                      Reciprocal Lattice(1/A)
    14.4540490    20.4411120     0.0000000        0.217350353   0.153689910   0.000000000
    14.4540490   -20.4411120     0.0000000        0.217350353  -0.153689910   0.000000000
     0.0000000     0.0000000     4.1725250        0.000000000   0.000000000   1.505847252

                       Lattice parameters(A)       Cell Angles
                    a =     25.035147          alpha =   90.000000
                    b =     25.035147          beta  =   90.000000
                    c =      4.172525          gamma =  109.471220

                       Current cell volume =          2465.602056       A**3
                                   density =             2.838254   AMU/A**3
                                           =             4.713031     g/cm^3

                           -------------------------------
                                     Cell Contents
                           -------------------------------
                         Total number of ions in cell =   96
                      Total number of species in cell =    2
                        Max number of any one species =   48

            xxxxxxxxxxxxxxxxxxxxxxxxxxxxxxxxxxxxxxxxxxxxxxxxxxxxxxxxxxxx
            x  Element    Atom        Fractional coordinates of atoms  x
            x            Number           u          v          w      x
            x----------------------------------------------------------x
            x  P            1         0.274317   0.308451   0.139153   x 
            x  P            2         0.202360   0.234608   0.346283   x 
            x  P            3         0.379529   0.239975   0.533389   x 
            x  P            4         0.507726   0.364365   0.032219   x 
            x  P            5         0.410330   0.104371   0.016365   x 
            x  P            6         0.538228   0.227766   0.515970   x 
            x  P            7         0.572657   0.094372   0.011069   x 
            x  P            8         0.448163   0.970882   0.511476   x 
            x  P            9         0.610108   0.961209   0.510784   x 
            x  P           10         0.734761   0.086762   0.001412   x 
            x  P           11         0.645455   0.827611   0.013271   x 
            x  P           12         0.774408   0.956854   0.500028   x 
            x  P           13         0.533676   0.555241   0.035070   x 
            x  P           14         0.405721   0.428900   0.563304   x 
            x  P           15         0.632714   0.487706   0.523150   x 
            x  P           16         0.757093   0.607178   0.010899   x 
            x  P           17         0.664257   0.351865   0.010107   x 
            x  P           18         0.790585   0.475071   0.501527   x 
            x  P           19         0.822381   0.342810  -0.003999   x 
            x  P           20         0.697947   0.218452   0.504806   x 
            x  P           21         0.858975   0.212519   0.489113   x 
            x  P           22         0.981441   0.336961  -0.019082   x 
            x  P           23         0.899379   0.085361  -0.020114   x 
            x  P           24         0.021833   0.210106   0.471561   x 
            x  P           25         0.814679   0.832709  -0.000443   x 
            x  P           26         0.660542   0.680748   0.526014   x 
            x  P           27         0.886002   0.722465   0.497378   x 
            x  P           28        -0.000681   0.851821  -0.022219   x 
            x  P           29         0.918301   0.595424  -0.007730   x 
            x  P           30         0.042383   0.723427   0.481404   x 
            x  P           31         0.075144   0.594048  -0.017435   x 
            x  P           32         0.949333   0.466236   0.488763   x 
            x  P           33         0.106265   0.464575   0.473852   x 
            x  P           34         0.232310   0.587631   0.007804   x 
            x  P           35         0.138120   0.336852  -0.053243   x 
            x  P           36         0.263284   0.456002   0.535940   x 
            x  P           37         0.076654   0.097566  -0.058291   x 
            x  P           38         0.947840   0.966771   0.460724   x 
            x  P           39         0.123692   0.978878   0.472003   x 
            x  P           40         0.249658   0.108490  -0.035856   x 
            x  P           41         0.162902   0.850322  -0.015392   x 
            x  P           42         0.286867   0.976791   0.488134   x 
            x  P           43         0.323910   0.845191   0.001000   x 
            x  P           44         0.200547   0.719590   0.495367   x 
            x  P           45         0.357922   0.711375   0.511967   x 
            x  P           46         0.483581   0.836913   0.014887   x 
            x  P           47         0.388714   0.576430   0.027549   x 
            x  P           48         0.515342   0.701831   0.523748   x 
            x  In           1         0.239992   0.394261   0.038653   x 
            x  In           2         0.122551   0.276510   0.441422   x 
            x  In           3         0.338943   0.321425   0.616484   x 
            x  In           4         0.467925   0.447738   0.058919   x 
            x  In           5         0.353917   0.175199   0.024280   x 
            x  In           6         0.485178   0.299997   0.529611   x 
            x  In           7         0.515426   0.163718   0.015369   x 
            x  In           8         0.390767   0.040082   0.513969   x 
            x  In           9         0.552942   0.030556   0.511171   x 
            x  In          10         0.677013   0.154898   0.005052   x 
            x  In          11         0.588113   0.897143   0.011681   x 
            x  In          12         0.714578   0.023174   0.502139   x 
            x  In          13         0.492089   0.637135   0.025907   x 
            x  In          14         0.367373   0.512723   0.529637   x 
            x  In          15         0.594409   0.571893   0.533262   x 
            x  In          16         0.720983   0.691602   0.026156   x 
            x  In          17         0.612005   0.424126   0.022981   x 
            x  In          18         0.736752   0.544796   0.510924   x 
            x  In          19         0.767764   0.412148   0.001551   x 
            x  In          20         0.642406   0.288150   0.509825   x 
            x  In          21         0.801617   0.279863   0.496096   x 
            x  In          22         0.925508   0.404293  -0.011095   x 
            x  In          23         0.838462   0.149794  -0.010765   x 
            x  In          24         0.962332   0.274930   0.480666   x 
            x  In          25         0.748382   0.894022   0.001587   x 
            x  In          26         0.619478   0.762923   0.515068   x 
            x  In          27         0.825306   0.782323   0.500723   x 
            x  In          28         0.925669   0.903960  -0.037483   x 
            x  In          29         0.861524   0.660764  -0.001807   x 
            x  In          30         0.987272   0.790997   0.479042   x 
            x  In          31         0.019964   0.661774  -0.018283   x 
            x  In          32         0.894424   0.534015   0.492738   x 
            x  In          33         0.051214   0.532348   0.481869   x 
            x  In          34         0.178191   0.657080  -0.004248   x 
            x  In          35         0.082526   0.403396  -0.029137   x 
            x  In          36         0.209403   0.525473   0.508511   x 
            x  In          37         1.003620   0.148366  -0.028161   x 
            x  In          38         0.879025   0.022701   0.480209   x 
            x  In          39         0.053789   0.033819   0.446292   x 
            x  In          40         0.181758   0.165204  -0.119942   x 
            x  In          41         0.103735   0.916446  -0.025747   x 
            x  In          42         0.228316   0.043957   0.466354   x 
            x  In          43         0.266602   0.913493  -0.011330   x 
            x  In          44         0.144926   0.787790   0.485410   x 
            x  In          45         0.303882   0.781948   0.501410   x 
            x  In          46         0.427790   0.907172   0.010980   x 
            x  In          47         0.335858   0.648038   0.012805   x 
            x  In          48         0.461455   0.773035   0.515559   x 
            xxxxxxxxxxxxxxxxxxxxxxxxxxxxxxxxxxxxxxxxxxxxxxxxxxxxxxxxxxxx


                         No user defined ionic velocities

                           -------------------------------
                                   Details of Species
                           -------------------------------

                               Mass of species in AMU
                                    P   30.9737600
                                    In  114.8180000

                          Electric Quadrupole Moment (Barn)
                                    P    1.0000000 No Isotope Defined
                                    In    0.7700000 Isotope115

                          Files used for pseudopotentials:
                                    P 3|1.8|4|4|5|30:31:32
                                    In 3|2.5|2.5|1.5|7|8|9|50:51:42U2.2U2.2

                           -------------------------------
                              k-Points For BZ Sampling
                           -------------------------------
                       MP grid size for SCF calculation is  2  2  8
                            with an offset of   0.250  0.250  0.062
                       Number of kpoints used =            20

                           -------------------------------
                               Symmetry and Constraints
                           -------------------------------

                      Maximum deviation from symmetry =  0.00000         ANG

                      Number of symmetry operations   =           1
                      Number of ionic constraints     =           3
                      Point group of crystal =     1: C1, 1, 1
                      Space group of crystal =     1: P1, P 1

             Set iprint > 1 for details on symmetry rotations/translations

                         Centre of mass is constrained
             Set iprint > 1 for details of linear ionic constraints

                         Number of cell constraints= 0
                         Cell constraints are:  1 2 3 4 5 6

                         External pressure/stress (GPa)
                          0.00000   0.00000   0.00000
                                    0.00000   0.00000
                                              0.00000
 
+---------------- MEMORY AND SCRATCH DISK ESTIMATES PER PROCESS --------------+
|                                                     Memory          Disk    |
| Baseline code, static data and system overhead      368.0 MB         0.0 MB |
| BLAS internal memory storage                          0.0 MB         0.0 MB |
| Model and support data                             3663.9 MB         0.0 MB |
| Electronic energy minimisation requirements         956.3 MB         0.0 MB |
| Force calculation requirements                       70.0 MB         0.0 MB |
|                                               ----------------------------- |
| Approx. total storage required per process         4988.2 MB         0.0 MB |
|                                                                             |
| Requirements will fluctuate during execution and may exceed these estimates |
+-----------------------------------------------------------------------------+
Calculating approximate eigenstates for fixed initial Hamiltonian
Cut-off for approx. calculation is   89.988 eV
Improving approx. states at cut-off of  450.000 eV
Resetting cut-off to  900.000 eV
Calculating total energy with cut-off of  900.000 eV.
------------------------------------------------------------------------ <-- SCF
SCF loop      Energy           Fermi           Energy gain       Timer   <-- SCF
                               energy          per atom          (sec)   <-- SCF
------------------------------------------------------------------------ <-- SCF
Initial  -9.45665881E+004  0.00000000E+000                       362.87  <-- SCF
      1  -9.42027809E+004  3.41400320E+000  -3.78965805E+000     712.50  <-- SCF
      2  -9.42032274E+004  3.41339739E+000   4.65139385E-003     938.64  <-- SCF
      3  -9.43031343E+004  3.54316188E+000   1.04069669E+000    1204.09  <-- SCF
      4  -9.43208905E+004  3.59163506E+000   1.84959913E-001    1578.70  <-- SCF
      5  -9.43115844E+004  3.89635150E+000  -9.69384275E-002    1852.84  <-- SCF
      6  -9.43118750E+004  3.97858193E+000   3.02795870E-003    2110.30  <-- SCF
      7  -9.43115439E+004  4.00866813E+000  -3.44973332E-003    2387.61  <-- SCF
      8  -9.43138498E+004  4.00402613E+000   2.40197347E-002    2656.83  <-- SCF
      9  -9.43138070E+004  3.98863371E+000  -4.45436294E-004    2930.09  <-- SCF
     10  -9.43137674E+004  3.99232606E+000  -4.12707725E-004    3196.61  <-- SCF
     11  -9.43138069E+004  3.98992091E+000   4.11436871E-004    3458.87  <-- SCF
     12  -9.43138073E+004  3.99470127E+000   4.39842212E-006    3732.82  <-- SCF
     13  -9.43138072E+004  3.99435642E+000  -7.87452742E-007    4013.90  <-- SCF
     14  -9.43138072E+004  3.99412832E+000  -8.26903704E-007    4303.47  <-- SCF
     15  -9.43138071E+004  3.99414321E+000  -1.90622701E-007    4575.87  <-- SCF
     16  -9.43138071E+004  3.99388833E+000  -8.24579913E-009    4822.29  <-- SCF
     17  -9.43138071E+004  3.99375884E+000   1.78150045E-008    5021.77  <-- SCF
     18  -9.43138071E+004  3.99369447E+000  -4.21370892E-009    5228.34  <-- SCF
     19  -9.43138071E+004  3.99367974E+000  -5.44881932E-009    5427.17  <-- SCF
------------------------------------------------------------------------ <-- SCF
 
Final energy, E             =  -94313.67727370     eV
Final free energy (E-TS)    =  -94313.80713395     eV
(energies not corrected for finite basis set)
 
NB est. 0K energy (E-0.5TS)      =  -94313.74220383     eV
 

 ************************** Forces **************************
 *                                                          *
 *               Cartesian components (eV/A)                *
 * -------------------------------------------------------- *
 *                         x            y            z      *
 *                                                          *
 * P               1      0.08943     -0.00396     -0.15105 *
 * P               2     -0.11650      0.07743      0.16265 *
 * P               3      0.00041      0.03396     -0.02390 *
 * P               4     -0.09023      0.03219     -0.02007 *
 * P               5     -0.02008      0.00343      0.01453 *
 * P               6     -0.05261      0.00608      0.00514 *
 * P               7     -0.02437      0.00869      0.00275 *
 * P               8      0.00507     -0.01104      0.00491 *
 * P               9     -0.00076     -0.00998      0.00217 *
 * P              10     -0.01157      0.00762     -0.00017 *
 * P              11      0.02186     -0.03223      0.00507 *
 * P              12      0.04296     -0.08352     -0.00766 *
 * P              13     -0.13143     -0.01577     -0.00185 *
 * P              14      0.06939      0.02445     -0.03479 *
 * P              15     -0.07821      0.02845     -0.00800 *
 * P              16     -0.21173      0.22616     -0.04189 *
 * P              17     -0.05593      0.01800      0.00126 *
 * P              18     -0.06651      0.08369     -0.00262 *
 * P              19     -0.03044      0.04641      0.00568 *
 * P              20     -0.03052      0.02822      0.00847 *
 * P              21     -0.03107      0.01420      0.00283 *
 * P              22     -0.00503      0.00544      0.00944 *
 * P              23     -0.02695     -0.01617      0.00343 *
 * P              24     -0.06779     -0.01640      0.00660 *
 * P              25      1.24294      0.03997     -0.14709 *
 * P              26     -0.45642      0.03426      0.07435 *
 * P              27      0.05528      0.01429      0.01259 *
 * P              28      0.05940     -0.05228      0.01138 *
 * P              29      0.06097      0.02932      0.00470 *
 * P              30      0.03341      0.00913      0.00964 *
 * P              31      0.03413     -0.00849     -0.00670 *
 * P              32      0.02968      0.01023      0.00397 *
 * P              33      0.02399     -0.01853     -0.01907 *
 * P              34      0.02336     -0.03172     -0.00805 *
 * P              35     -0.01636     -0.06887      0.01871 *
 * P              36      0.01821     -0.04515     -0.04751 *
 * P              37     -0.05910      0.02675      0.02174 *
 * P              38      0.22134      0.04803      0.07072 *
 * P              39      0.01643      0.03977      0.01167 *
 * P              40     -0.04628      0.05304      0.03381 *
 * P              41      0.01279     -0.00215     -0.00187 *
 * P              42      0.00657      0.01118      0.00378 *
 * P              43      0.00797      0.00056     -0.00802 *
 * P              44      0.01123     -0.01578     -0.00684 *
 * P              45      0.02282     -0.02039     -0.00302 *
 * P              46      0.02170     -0.00811      0.00647 *
 * P              47     -0.00312     -0.02781      0.00399 *
 * P              48      0.00881     -0.06911      0.00177 *
 * In              1      0.02335      0.09649      0.00857 *
 * In              2      0.00944      0.10780     -0.02517 *
 * In              3     -0.00406     -0.10366      0.08917 *
 * In              4     -0.00062     -0.01907      0.00126 *
 * In              5     -0.00012      0.00819     -0.00730 *
 * In              6      0.05379     -0.02888      0.01317 *
 * In              7      0.05579     -0.00306     -0.00673 *
 * In              8      0.00458     -0.01369     -0.01263 *
 * In              9      0.00903     -0.02370     -0.00475 *
 * In             10      0.03153     -0.04084     -0.00362 *
 * In             11      0.02884      0.01190     -0.00642 *
 * In             12      0.00929     -0.04747     -0.00547 *
 * In             13      0.04345      0.08576     -0.01001 *
 * In             14     -0.03771      0.00337      0.01605 *
 * In             15      0.17964     -0.11251      0.05278 *
 * In             16      0.40152      0.12066      0.23060 *
 * In             17      0.03985     -0.04006     -0.00773 *
 * In             18      0.09428      0.00622      0.01027 *
 * In             19      0.06479     -0.02339      0.00238 *
 * In             20      0.03952     -0.02850      0.00075 *
 * In             21      0.04270     -0.03091     -0.00289 *
 * In             22     -0.01388     -0.00629     -0.00368 *
 * In             23      0.03896      0.00711     -0.00381 *
 * In             24      0.02481     -0.03488     -0.00733 *
 * In             25      0.10090      0.16063     -0.01787 *
 * In             26     -0.09229      0.17836      0.01434 *
 * In             27     -0.94933     -0.15006     -0.26675 *
 * In             28     -0.15097     -0.21637     -0.00275 *
 * In             29     -0.10160     -0.11136      0.01552 *
 * In             30     -0.11002     -0.10677      0.00948 *
 * In             31     -0.05567     -0.00598      0.00411 *
 * In             32     -0.07821     -0.03561     -0.00151 *
 * In             33     -0.02075      0.02977     -0.00038 *
 * In             34     -0.01842      0.00749      0.00567 *
 * In             35      0.00331     -0.00496      0.02471 *
 * In             36     -0.00545      0.01327      0.00483 *
 * In             37      0.06137      0.01796     -0.04266 *
 * In             38     -0.01375      0.07385      0.00071 *
 * In             39     -0.07586     -0.02511      0.00115 *
 * In             40      0.01827     -0.08830     -0.04889 *
 * In             41     -0.06390     -0.04421     -0.01904 *
 * In             42     -0.00991     -0.04836      0.00167 *
 * In             43     -0.00806      0.00166      0.01009 *
 * In             44     -0.01466     -0.01207      0.00300 *
 * In             45     -0.02986      0.00174      0.00677 *
 * In             46     -0.00083      0.00262     -0.00191 *
 * In             47     -0.00660      0.01600      0.00318 *
 * In             48     -0.02360      0.05172     -0.00496 *
 *                                                          *
 ************************************************************

 Pseudo atomic calculation performed for P 3s2 3p3

 Converged in 23 iterations to a total energy of -208.0292 eV

 Pseudo atomic calculation performed for In 4d10 5s2 5p1

 Converged in 42 iterations to a total energy of -1747.4501 eV
Charge spilling parameter for spin component 1 = 0.17%

            Orbital Populations       
     Ion    Atom   Orbital             Charge
  -------------------------------------------
      P     1      S                    1.746
      P     1      Px                   1.072
      P     1      Py                   1.348
      P     1      Pz                   1.316
      P     2      S                    1.756
      P     2      Px                   1.071
      P     2      Py                   1.347
      P     2      Pz                   1.303
      P     3      S                    1.746
      P     3      Px                   1.306
      P     3      Py                   1.311
      P     3      Pz                   1.301
      P     4      S                    1.741
      P     4      Px                   1.308
      P     4      Py                   1.323
      P     4      Pz                   1.298
      P     5      S                    1.745
      P     5      Px                   1.311
      P     5      Py                   1.303
      P     5      Pz                   1.305
      P     6      S                    1.740
      P     6      Px                   1.311
      P     6      Py                   1.310
      P     6      Pz                   1.308
      P     7      S                    1.741
      P     7      Px                   1.315
      P     7      Py                   1.306
      P     7      Pz                   1.307
      P     8      S                    1.741
      P     8      Px                   1.317
      P     8      Py                   1.303
      P     8      Pz                   1.306
      P     9      S                    1.742
      P     9      Px                   1.311
      P     9      Py                   1.307
      P     9      Pz                   1.307
      P    10      S                    1.739
      P    10      Px                   1.312
      P    10      Py                   1.310
      P    10      Pz                   1.309
      P    11      S                    1.744
      P    11      Px                   1.290
      P    11      Py                   1.318
      P    11      Pz                   1.315
      P    12      S                    1.742
      P    12      Px                   1.306
      P    12      Py                   1.320
      P    12      Pz                   1.300
      P    13      S                    1.745
      P    13      Px                   1.282
      P    13      Py                   1.309
      P    13      Pz                   1.326
      P    14      S                    1.750
      P    14      Px                   1.279
      P    14      Py                   1.310
      P    14      Pz                   1.319
      P    15      S                    1.738
      P    15      Px                   1.314
      P    15      Py                   1.320
      P    15      Pz                   1.301
      P    16      S                    1.736
      P    16      Px                   1.290
      P    16      Py                   1.335
      P    16      Pz                   1.306
      P    17      S                    1.737
      P    17      Px                   1.313
      P    17      Py                   1.315
      P    17      Pz                   1.308
      P    18      S                    1.733
      P    18      Px                   1.310
      P    18      Py                   1.321
      P    18      Pz                   1.309
      P    19      S                    1.733
      P    19      Px                   1.312
      P    19      Py                   1.321
      P    19      Pz                   1.310
      P    20      S                    1.737
      P    20      Px                   1.315
      P    20      Py                   1.311
      P    20      Pz                   1.309
      P    21      S                    1.734
      P    21      Px                   1.315
      P    21      Py                   1.315
      P    21      Pz                   1.310
      P    22      S                    1.728
      P    22      Px                   1.315
      P    22      Py                   1.324
      P    22      Pz                   1.311
      P    23      S                    1.737
      P    23      Px                   1.306
      P    23      Py                   1.315
      P    23      Pz                   1.312
      P    24      S                    1.731
      P    24      Px                   1.303
      P    24      Py                   1.314
      P    24      Pz                   1.325
      P    25      S                    1.764
      P    25      Px                   1.280
      P    25      Py                   1.317
      P    25      Pz                   1.249
      P    26      S                    1.752
      P    26      Px                   1.262
      P    26      Py                   1.303
      P    26      Pz                   1.309
      P    27      S                    1.732
      P    27      Px                   1.341
      P    27      Py                   1.252
      P    27      Pz                   1.339
      P    28      S                    1.738
      P    28      Px                   1.323
      P    28      Py                   1.310
      P    28      Pz                   1.295
      P    29      S                    1.727
      P    29      Px                   1.317
      P    29      Py                   1.321
      P    29      Pz                   1.317
      P    30      S                    1.730
      P    30      Px                   1.323
      P    30      Py                   1.314
      P    30      Pz                   1.311
      P    31      S                    1.729
      P    31      Px                   1.314
      P    31      Py                   1.326
      P    31      Pz                   1.309
      P    32      S                    1.728
      P    32      Px                   1.311
      P    32      Py                   1.326
      P    32      Pz                   1.313
      P    33      S                    1.726
      P    33      Px                   1.316
      P    33      Py                   1.328
      P    33      Pz                   1.308
      P    34      S                    1.731
      P    34      Px                   1.316
      P    34      Py                   1.318
      P    34      Pz                   1.309
      P    35      S                    1.720
      P    35      Px                   1.332
      P    35      Py                   1.319
      P    35      Pz                   1.308
      P    36      S                    1.729
      P    36      Px                   1.325
      P    36      Py                   1.314
      P    36      Pz                   1.296
      P    37      S                    1.752
      P    37      Px                   1.284
      P    37      Py                   1.313
      P    37      Pz                   1.307
      P    38      S                    1.748
      P    38      Px                   1.281
      P    38      Py                   1.309
      P    38      Pz                   1.316
      P    39      S                    1.739
      P    39      Px                   1.309
      P    39      Py                   1.318
      P    39      Pz                   1.304
      P    40      S                    1.747
      P    40      Px                   1.305
      P    40      Py                   1.307
      P    40      Pz                   1.301
      P    41      S                    1.736
      P    41      Px                   1.319
      P    41      Py                   1.312
      P    41      Pz                   1.306
      P    42      S                    1.740
      P    42      Px                   1.316
      P    42      Py                   1.308
      P    42      Pz                   1.306
      P    43      S                    1.738
      P    43      Px                   1.317
      P    43      Py                   1.309
      P    43      Pz                   1.306
      P    44      S                    1.732
      P    44      Px                   1.319
      P    44      Py                   1.315
      P    44      Pz                   1.308
      P    45      S                    1.736
      P    45      Px                   1.314
      P    45      Py                   1.312
      P    45      Pz                   1.308
      P    46      S                    1.741
      P    46      Px                   1.309
      P    46      Py                   1.308
      P    46      Pz                   1.309
      P    47      S                    1.735
      P    47      Px                   1.317
      P    47      Py                   1.311
      P    47      Pz                   1.306
      P    48      S                    1.739
      P    48      Px                   1.306
      P    48      Py                   1.311
      P    48      Pz                   1.308
     In     1      Dzz                  1.997
     In     1      Dzy                  1.998
     In     1      Dzx                  1.997
     In     1      Dxx-yy               1.998
     In     1      Dxy                  1.998
     In     1      S                    1.416
     In     1      Px                   0.493
     In     1      Py                   0.474
     In     1      Pz                   0.480
     In     1      S                   -0.501
     In     2      Dzz                  1.997
     In     2      Dzy                  1.998
     In     2      Dzx                  1.998
     In     2      Dxx-yy               1.997
     In     2      Dxy                  1.998
     In     2      S                    1.404
     In     2      Px                   0.487
     In     2      Py                   0.479
     In     2      Pz                   0.488
     In     2      S                   -0.503
     In     3      Dzz                  1.998
     In     3      Dzy                  1.998
     In     3      Dzx                  1.998
     In     3      Dxx-yy               1.998
     In     3      Dxy                  1.999
     In     3      S                    1.447
     In     3      Px                   0.456
     In     3      Py                   0.469
     In     3      Pz                   0.471
     In     3      S                   -0.485
     In     4      Dzz                  1.998
     In     4      Dzy                  1.998
     In     4      Dzx                  1.998
     In     4      Dxx-yy               1.998
     In     4      Dxy                  1.998
     In     4      S                    1.435
     In     4      Px                   0.467
     In     4      Py                   0.460
     In     4      Pz                   0.492
     In     4      S                   -0.520
     In     5      Dzz                  1.998
     In     5      Dzy                  1.999
     In     5      Dzx                  1.998
     In     5      Dxx-yy               1.998
     In     5      Dxy                  1.999
     In     5      S                    1.432
     In     5      Px                   0.481
     In     5      Py                   0.463
     In     5      Pz                   0.466
     In     5      S                   -0.501
     In     6      Dzz                  1.998
     In     6      Dzy                  1.999
     In     6      Dzx                  1.998
     In     6      Dxx-yy               1.998
     In     6      Dxy                  1.998
     In     6      S                    1.422
     In     6      Px                   0.484
     In     6      Py                   0.471
     In     6      Pz                   0.474
     In     6      S                   -0.495
     In     7      Dzz                  1.998
     In     7      Dzy                  1.999
     In     7      Dzx                  1.998
     In     7      Dxx-yy               1.998
     In     7      Dxy                  1.998
     In     7      S                    1.419
     In     7      Px                   0.486
     In     7      Py                   0.474
     In     7      Pz                   0.474
     In     7      S                   -0.508
     In     8      Dzz                  1.998
     In     8      Dzy                  1.999
     In     8      Dzx                  1.998
     In     8      Dxx-yy               1.997
     In     8      Dxy                  1.999
     In     8      S                    1.420
     In     8      Px                   0.483
     In     8      Py                   0.475
     In     8      Pz                   0.474
     In     8      S                   -0.504
     In     9      Dzz                  1.998
     In     9      Dzy                  1.998
     In     9      Dzx                  1.998
     In     9      Dxx-yy               1.998
     In     9      Dxy                  1.998
     In     9      S                    1.420
     In     9      Px                   0.484
     In     9      Py                   0.476
     In     9      Pz                   0.477
     In     9      S                   -0.504
     In    10      Dzz                  1.998
     In    10      Dzy                  1.998
     In    10      Dzx                  1.998
     In    10      Dxx-yy               1.997
     In    10      Dxy                  1.998
     In    10      S                    1.421
     In    10      Px                   0.486
     In    10      Py                   0.477
     In    10      Pz                   0.476
     In    10      S                   -0.514
     In    11      Dzz                  1.998
     In    11      Dzy                  1.999
     In    11      Dzx                  1.998
     In    11      Dxx-yy               1.997
     In    11      Dxy                  1.998
     In    11      S                    1.412
     In    11      Px                   0.489
     In    11      Py                   0.473
     In    11      Pz                   0.475
     In    11      S                   -0.503
     In    12      Dzz                  1.998
     In    12      Dzy                  1.999
     In    12      Dzx                  1.998
     In    12      Dxx-yy               1.997
     In    12      Dxy                  1.998
     In    12      S                    1.412
     In    12      Px                   0.485
     In    12      Py                   0.477
     In    12      Pz                   0.479
     In    12      S                   -0.510
     In    13      Dzz                  1.998
     In    13      Dzy                  1.999
     In    13      Dzx                  1.998
     In    13      Dxx-yy               1.998
     In    13      Dxy                  1.998
     In    13      S                    1.418
     In    13      Px                   0.490
     In    13      Py                   0.477
     In    13      Pz                   0.463
     In    13      S                   -0.493
     In    14      Dzz                  1.997
     In    14      Dzy                  1.999
     In    14      Dzx                  1.998
     In    14      Dxx-yy               1.998
     In    14      Dxy                  1.998
     In    14      S                    1.419
     In    14      Px                   0.490
     In    14      Py                   0.479
     In    14      Pz                   0.468
     In    14      S                   -0.515
     In    15      Dzz                  1.998
     In    15      Dzy                  1.998
     In    15      Dzx                  1.998
     In    15      Dxx-yy               1.998
     In    15      Dxy                  1.998
     In    15      S                    1.435
     In    15      Px                   0.460
     In    15      Py                   0.463
     In    15      Pz                   0.496
     In    15      S                   -0.485
     In    16      Dzz                  1.998
     In    16      Dzy                  1.998
     In    16      Dzx                  1.997
     In    16      Dxx-yy               1.998
     In    16      Dxy                  1.999
     In    16      S                    1.460
     In    16      Px                   0.575
     In    16      Py                   0.443
     In    16      Pz                   0.490
     In    16      S                   -0.449
     In    17      Dzz                  1.997
     In    17      Dzy                  1.998
     In    17      Dzx                  1.998
     In    17      Dxx-yy               1.997
     In    17      Dxy                  1.998
     In    17      S                    1.421
     In    17      Px                   0.490
     In    17      Py                   0.477
     In    17      Pz                   0.476
     In    17      S                   -0.520
     In    18      Dzz                  1.997
     In    18      Dzy                  1.998
     In    18      Dzx                  1.998
     In    18      Dxx-yy               1.997
     In    18      Dxy                  1.998
     In    18      S                    1.415
     In    18      Px                   0.491
     In    18      Py                   0.480
     In    18      Pz                   0.495
     In    18      S                   -0.519
     In    19      Dzz                  1.997
     In    19      Dzy                  1.998
     In    19      Dzx                  1.998
     In    19      Dxx-yy               1.997
     In    19      Dxy                  1.998
     In    19      S                    1.423
     In    19      Px                   0.492
     In    19      Py                   0.479
     In    19      Pz                   0.478
     In    19      S                   -0.544
     In    20      Dzz                  1.998
     In    20      Dzy                  1.998
     In    20      Dzx                  1.998
     In    20      Dxx-yy               1.997
     In    20      Dxy                  1.998
     In    20      S                    1.422
     In    20      Px                   0.488
     In    20      Py                   0.477
     In    20      Pz                   0.474
     In    20      S                   -0.520
     In    21      Dzz                  1.997
     In    21      Dzy                  1.998
     In    21      Dzx                  1.998
     In    21      Dxx-yy               1.997
     In    21      Dxy                  1.998
     In    21      S                    1.423
     In    21      Px                   0.488
     In    21      Py                   0.481
     In    21      Pz                   0.477
     In    21      S                   -0.529
     In    22      Dzz                  1.997
     In    22      Dzy                  1.998
     In    22      Dzx                  1.997
     In    22      Dxx-yy               1.997
     In    22      Dxy                  1.998
     In    22      S                    1.426
     In    22      Px                   0.494
     In    22      Py                   0.483
     In    22      Pz                   0.477
     In    22      S                   -0.551
     In    23      Dzz                  1.998
     In    23      Dzy                  1.998
     In    23      Dzx                  1.998
     In    23      Dxx-yy               1.997
     In    23      Dxy                  1.998
     In    23      S                    1.424
     In    23      Px                   0.485
     In    23      Py                   0.479
     In    23      Pz                   0.480
     In    23      S                   -0.531
     In    24      Dzz                  1.997
     In    24      Dzy                  1.998
     In    24      Dzx                  1.998
     In    24      Dxx-yy               1.997
     In    24      Dxy                  1.998
     In    24      S                    1.429
     In    24      Px                   0.485
     In    24      Py                   0.482
     In    24      Pz                   0.479
     In    24      S                   -0.546
     In    25      Dzz                  1.998
     In    25      Dzy                  1.999
     In    25      Dzx                  1.998
     In    25      Dxx-yy               1.997
     In    25      Dxy                  1.999
     In    25      S                    1.437
     In    25      Px                   0.496
     In    25      Py                   0.458
     In    25      Pz                   0.481
     In    25      S                   -0.508
     In    26      Dzz                  1.998
     In    26      Dzy                  1.999
     In    26      Dzx                  1.998
     In    26      Dxx-yy               1.998
     In    26      Dxy                  1.998
     In    26      S                    1.428
     In    26      Px                   0.494
     In    26      Py                   0.478
     In    26      Pz                   0.459
     In    26      S                   -0.504
     In    27      Dzz                  1.997
     In    27      Dzy                  1.997
     In    27      Dzx                  1.999
     In    27      Dxx-yy               1.996
     In    27      Dxy                  1.999
     In    27      S                    1.438
     In    27      Px                   0.475
     In    27      Py                   0.509
     In    27      Pz                   0.483
     In    27      S                   -0.457
     In    28      Dzz                  1.998
     In    28      Dzy                  1.998
     In    28      Dzx                  1.998
     In    28      Dxx-yy               1.998
     In    28      Dxy                  1.999
     In    28      S                    1.425
     In    28      Px                   0.486
     In    28      Py                   0.479
     In    28      Pz                   0.489
     In    28      S                   -0.471
     In    29      Dzz                  1.997
     In    29      Dzy                  1.998
     In    29      Dzx                  1.998
     In    29      Dxx-yy               1.997
     In    29      Dxy                  1.998
     In    29      S                    1.420
     In    29      Px                   0.496
     In    29      Py                   0.485
     In    29      Pz                   0.465
     In    29      S                   -0.566
     In    30      Dzz                  1.997
     In    30      Dzy                  1.998
     In    30      Dzx                  1.998
     In    30      Dxx-yy               1.997
     In    30      Dxy                  1.998
     In    30      S                    1.427
     In    30      Px                   0.472
     In    30      Py                   0.491
     In    30      Pz                   0.492
     In    30      S                   -0.551
     In    31      Dzz                  1.997
     In    31      Dzy                  1.998
     In    31      Dzx                  1.997
     In    31      Dxx-yy               1.997
     In    31      Dxy                  1.998
     In    31      S                    1.430
     In    31      Px                   0.488
     In    31      Py                   0.486
     In    31      Pz                   0.477
     In    31      S                   -0.552
     In    32      Dzz                  1.997
     In    32      Dzy                  1.998
     In    32      Dzx                  1.997
     In    32      Dxx-yy               1.997
     In    32      Dxy                  1.998
     In    32      S                    1.427
     In    32      Px                   0.494
     In    32      Py                   0.487
     In    32      Pz                   0.477
     In    32      S                   -0.557
     In    33      Dzz                  1.997
     In    33      Dzy                  1.998
     In    33      Dzx                  1.997
     In    33      Dxx-yy               1.997
     In    33      Dxy                  1.998
     In    33      S                    1.424
     In    33      Px                   0.490
     In    33      Py                   0.486
     In    33      Pz                   0.478
     In    33      S                   -0.555
     In    34      Dzz                  1.997
     In    34      Dzy                  1.998
     In    34      Dzx                  1.998
     In    34      Dxx-yy               1.997
     In    34      Dxy                  1.998
     In    34      S                    1.427
     In    34      Px                   0.488
     In    34      Py                   0.484
     In    34      Pz                   0.476
     In    34      S                   -0.543
     In    35      Dzz                  1.997
     In    35      Dzy                  1.998
     In    35      Dzx                  1.997
     In    35      Dxx-yy               1.996
     In    35      Dxy                  1.998
     In    35      S                    1.432
     In    35      Px                   0.492
     In    35      Py                   0.484
     In    35      Pz                   0.480
     In    35      S                   -0.568
     In    36      Dzz                  1.997
     In    36      Dzy                  1.998
     In    36      Dzx                  1.997
     In    36      Dxx-yy               1.997
     In    36      Dxy                  1.998
     In    36      S                    1.432
     In    36      Px                   0.488
     In    36      Py                   0.484
     In    36      Pz                   0.477
     In    36      S                   -0.548
     In    37      Dzz                  1.997
     In    37      Dzy                  1.998
     In    37      Dzx                  1.998
     In    37      Dxx-yy               1.997
     In    37      Dxy                  1.998
     In    37      S                    1.420
     In    37      Px                   0.477
     In    37      Py                   0.485
     In    37      Pz                   0.482
     In    37      S                   -0.530
     In    38      Dzz                  1.998
     In    38      Dzy                  1.999
     In    38      Dzx                  1.998
     In    38      Dxx-yy               1.997
     In    38      Dxy                  1.999
     In    38      S                    1.422
     In    38      Px                   0.472
     In    38      Py                   0.483
     In    38      Pz                   0.481
     In    38      S                   -0.507
     In    39      Dzz                  1.998
     In    39      Dzy                  1.999
     In    39      Dzx                  1.998
     In    39      Dxx-yy               1.997
     In    39      Dxy                  1.999
     In    39      S                    1.443
     In    39      Px                   0.475
     In    39      Py                   0.476
     In    39      Pz                   0.480
     In    39      S                   -0.492
     In    40      Dzz                  1.998
     In    40      Dzy                  1.999
     In    40      Dzx                  1.998
     In    40      Dxx-yy               1.998
     In    40      Dxy                  1.999
     In    40      S                    1.452
     In    40      Px                   0.461
     In    40      Py                   0.480
     In    40      Pz                   0.459
     In    40      S                   -0.485
     In    41      Dzz                  1.998
     In    41      Dzy                  1.998
     In    41      Dzx                  1.998
     In    41      Dxx-yy               1.997
     In    41      Dxy                  1.999
     In    41      S                    1.425
     In    41      Px                   0.476
     In    41      Py                   0.479
     In    41      Pz                   0.487
     In    41      S                   -0.520
     In    42      Dzz                  1.998
     In    42      Dzy                  1.999
     In    42      Dzx                  1.998
     In    42      Dxx-yy               1.997
     In    42      Dxy                  1.999
     In    42      S                    1.429
     In    42      Px                   0.478
     In    42      Py                   0.478
     In    42      Pz                   0.474
     In    42      S                   -0.503
     In    43      Dzz                  1.998
     In    43      Dzy                  1.998
     In    43      Dzx                  1.998
     In    43      Dxx-yy               1.997
     In    43      Dxy                  1.998
     In    43      S                    1.423
     In    43      Px                   0.483
     In    43      Py                   0.477
     In    43      Pz                   0.478
     In    43      S                   -0.517
     In    44      Dzz                  1.997
     In    44      Dzy                  1.998
     In    44      Dzx                  1.998
     In    44      Dxx-yy               1.997
     In    44      Dxy                  1.998
     In    44      S                    1.427
     In    44      Px                   0.483
     In    44      Py                   0.486
     In    44      Pz                   0.480
     In    44      S                   -0.538
     In    45      Dzz                  1.998
     In    45      Dzy                  1.998
     In    45      Dzx                  1.998
     In    45      Dxx-yy               1.997
     In    45      Dxy                  1.998
     In    45      S                    1.425
     In    45      Px                   0.487
     In    45      Py                   0.481
     In    45      Pz                   0.476
     In    45      S                   -0.529
     In    46      Dzz                  1.998
     In    46      Dzy                  1.999
     In    46      Dzx                  1.998
     In    46      Dxx-yy               1.997
     In    46      Dxy                  1.998
     In    46      S                    1.420
     In    46      Px                   0.485
     In    46      Py                   0.477
     In    46      Pz                   0.476
     In    46      S                   -0.510
     In    47      Dzz                  1.997
     In    47      Dzy                  1.998
     In    47      Dzx                  1.998
     In    47      Dxx-yy               1.997
     In    47      Dxy                  1.998
     In    47      S                    1.426
     In    47      Px                   0.490
     In    47      Py                   0.481
     In    47      Pz                   0.472
     In    47      S                   -0.534
     In    48      Dzz                  1.998
     In    48      Dzy                  1.999
     In    48      Dzx                  1.998
     In    48      Dxx-yy               1.997
     In    48      Dxy                  1.998
     In    48      S                    1.422
     In    48      Px                   0.490
     In    48      Py                   0.483
     In    48      Pz                   0.471
     In    48      S                   -0.512
  -------------------------------------------
                           Total:     864.000
  -------------------------------------------

     Atomic Populations (Mulliken)
     -----------------------------
Species          Ion     s       p       d       f      Total   Charge (e)
==========================================================================
  P               1     1.746   3.737   0.000   0.000   5.483    -0.483
  P               2     1.756   3.721   0.000   0.000   5.477    -0.477
  P               3     1.746   3.918   0.000   0.000   5.664    -0.664
  P               4     1.741   3.930   0.000   0.000   5.671    -0.671
  P               5     1.745   3.919   0.000   0.000   5.663    -0.663
  P               6     1.740   3.930   0.000   0.000   5.669    -0.669
  P               7     1.741   3.928   0.000   0.000   5.669    -0.669
  P               8     1.741   3.926   0.000   0.000   5.668    -0.668
  P               9     1.742   3.925   0.000   0.000   5.668    -0.668
  P              10     1.739   3.931   0.000   0.000   5.671    -0.671
  P              11     1.744   3.923   0.000   0.000   5.667    -0.667
  P              12     1.742   3.925   0.000   0.000   5.667    -0.667
  P              13     1.745   3.918   0.000   0.000   5.663    -0.663
  P              14     1.750   3.908   0.000   0.000   5.658    -0.658
  P              15     1.738   3.936   0.000   0.000   5.674    -0.674
  P              16     1.736   3.930   0.000   0.000   5.666    -0.666
  P              17     1.737   3.935   0.000   0.000   5.672    -0.672
  P              18     1.733   3.940   0.000   0.000   5.673    -0.673
  P              19     1.733   3.943   0.000   0.000   5.676    -0.676
  P              20     1.737   3.935   0.000   0.000   5.672    -0.672
  P              21     1.734   3.941   0.000   0.000   5.675    -0.675
  P              22     1.728   3.950   0.000   0.000   5.678    -0.678
  P              23     1.737   3.933   0.000   0.000   5.671    -0.671
  P              24     1.731   3.942   0.000   0.000   5.673    -0.673
  P              25     1.764   3.846   0.000   0.000   5.610    -0.610
  P              26     1.752   3.874   0.000   0.000   5.626    -0.626
  P              27     1.732   3.932   0.000   0.000   5.664    -0.664
  P              28     1.738   3.928   0.000   0.000   5.666    -0.666
  P              29     1.727   3.954   0.000   0.000   5.681    -0.681
  P              30     1.730   3.948   0.000   0.000   5.678    -0.678
  P              31     1.729   3.949   0.000   0.000   5.678    -0.678
  P              32     1.728   3.950   0.000   0.000   5.678    -0.678
  P              33     1.726   3.952   0.000   0.000   5.678    -0.678
  P              34     1.731   3.943   0.000   0.000   5.674    -0.674
  P              35     1.720   3.958   0.000   0.000   5.679    -0.679
  P              36     1.729   3.936   0.000   0.000   5.665    -0.665
  P              37     1.752   3.904   0.000   0.000   5.655    -0.655
  P              38     1.748   3.906   0.000   0.000   5.654    -0.654
  P              39     1.739   3.930   0.000   0.000   5.669    -0.669
  P              40     1.747   3.913   0.000   0.000   5.661    -0.661
  P              41     1.736   3.936   0.000   0.000   5.673    -0.673
  P              42     1.740   3.930   0.000   0.000   5.670    -0.670
  P              43     1.738   3.933   0.000   0.000   5.670    -0.670
  P              44     1.732   3.942   0.000   0.000   5.675    -0.675
  P              45     1.736   3.935   0.000   0.000   5.671    -0.671
  P              46     1.741   3.926   0.000   0.000   5.667    -0.667
  P              47     1.735   3.935   0.000   0.000   5.670    -0.670
  P              48     1.739   3.925   0.000   0.000   5.665    -0.665
  In              1     0.915   1.447   9.988   0.000  12.350     0.650
  In              2     0.901   1.454   9.988   0.000  12.343     0.657
  In              3     0.962   1.396   9.991   0.000  12.349     0.651
  In              4     0.916   1.419   9.990   0.000  12.325     0.675
  In              5     0.931   1.410   9.991   0.000  12.333     0.667
  In              6     0.927   1.429   9.990   0.000  12.346     0.654
  In              7     0.911   1.434   9.990   0.000  12.335     0.665
  In              8     0.916   1.431   9.990   0.000  12.338     0.662
  In              9     0.916   1.438   9.990   0.000  12.343     0.657
  In             10     0.907   1.439   9.990   0.000  12.336     0.664
  In             11     0.909   1.438   9.990   0.000  12.337     0.663
  In             12     0.902   1.442   9.990   0.000  12.334     0.666
  In             13     0.925   1.430   9.990   0.000  12.345     0.655
  In             14     0.905   1.438   9.989   0.000  12.332     0.668
  In             15     0.950   1.419   9.990   0.000  12.359     0.641
  In             16     1.012   1.508   9.989   0.000  12.509     0.491
  In             17     0.901   1.443   9.989   0.000  12.333     0.667
  In             18     0.895   1.465   9.988   0.000  12.349     0.651
  In             19     0.879   1.449   9.989   0.000  12.317     0.683
  In             20     0.902   1.439   9.989   0.000  12.330     0.670
  In             21     0.894   1.445   9.989   0.000  12.328     0.672
  In             22     0.875   1.453   9.988   0.000  12.316     0.684
  In             23     0.893   1.445   9.989   0.000  12.327     0.673
  In             24     0.883   1.446   9.989   0.000  12.317     0.683
  In             25     0.930   1.435   9.990   0.000  12.354     0.646
  In             26     0.924   1.432   9.990   0.000  12.346     0.654
  In             27     0.981   1.467   9.987   0.000  12.435     0.565
  In             28     0.954   1.454   9.991   0.000  12.399     0.601
  In             29     0.854   1.447   9.988   0.000  12.288     0.712
  In             30     0.875   1.455   9.988   0.000  12.318     0.682
  In             31     0.878   1.452   9.988   0.000  12.318     0.682
  In             32     0.870   1.457   9.988   0.000  12.315     0.685
  In             33     0.868   1.453   9.988   0.000  12.310     0.690
  In             34     0.884   1.448   9.989   0.000  12.321     0.679
  In             35     0.864   1.456   9.987   0.000  12.308     0.692
  In             36     0.884   1.449   9.988   0.000  12.321     0.679
  In             37     0.889   1.444   9.989   0.000  12.322     0.678
  In             38     0.915   1.435   9.990   0.000  12.339     0.661
  In             39     0.951   1.432   9.990   0.000  12.373     0.627
  In             40     0.968   1.401   9.991   0.000  12.360     0.640
  In             41     0.905   1.441   9.990   0.000  12.336     0.664
  In             42     0.926   1.430   9.990   0.000  12.345     0.655
  In             43     0.906   1.438   9.990   0.000  12.334     0.666
  In             44     0.889   1.449   9.989   0.000  12.326     0.674
  In             45     0.896   1.444   9.989   0.000  12.329     0.671
  In             46     0.910   1.438   9.990   0.000  12.339     0.661
  In             47     0.892   1.443   9.989   0.000  12.324     0.676
  In             48     0.910   1.444   9.989   0.000  12.344     0.656
==========================================================================

                 Bond                   Population      Length (A)
======================================================================
              P 1  -- P 2                    0.43        2.27806
              P 27 -- In 27                  0.68        2.46435
              P 25 -- In 27                  1.42        2.49356
              P 29 -- In 29                  0.61        2.49940
              P 35 -- In 35                  0.58        2.50366
              P 35 -- In 1                   0.57        2.50470
              P 16 -- In 29                  0.59        2.50991
              P 35 -- In 2                   1.37        2.51030
              P 30 -- In 30                  0.58        2.51423
              P 32 -- In 32                  0.58        2.51483
              P 33 -- In 33                  0.57        2.51762
              P 1  -- In 3                   1.22        2.51785
              P 36 -- In 14                  0.55        2.51811
              P 24 -- In 2                   0.58        2.51850
              P 31 -- In 31                  0.57        2.51887
              P 15 -- In 18                  0.53        2.51945
              P 22 -- In 35                  0.57        2.52316
              P 22 -- In 22                  0.58        2.52525
              P 18 -- In 32                  0.57        2.52577
              P 13 -- In 15                  1.30        2.52666
              P 47 -- In 13                  0.57        2.52694
              P 19 -- In 22                  0.57        2.52715
              P 17 -- In 19                  0.56        2.52716
              P 33 -- In 36                  0.58        2.52746
              P 33 -- In 35                  1.38        2.52840
              P 34 -- In 47                  0.57        2.52866
              P 29 -- In 31                  0.56        2.53387
              P 36 -- In 36                  0.56        2.53408
              P 30 -- In 44                  0.56        2.53561
              P 32 -- In 33                  0.57        2.53604
              P 34 -- In 34                  0.56        2.53606
              P 18 -- In 18                  0.56        2.53641
              P 36 -- In 1                   1.37        2.53647
              P 45 -- In 48                  0.55        2.53653
              P 28 -- In 30                  1.37        2.53656
              P 14 -- In 4                   1.31        2.53660
              P 31 -- In 34                  0.56        2.53665
              P 44 -- In 45                  0.56        2.53732
              P 26 -- In 16                  1.34        2.53759
              P 20 -- In 21                  0.55        2.53789
              P 44 -- In 44                  0.57        2.53790
              P 21 -- In 24                  0.56        2.53824
              P 4  -- In 17                  0.52        2.53998
              P 29 -- In 32                  1.35        2.54019
              P 6  -- In 20                  0.55        2.54161
              P 19 -- In 19                  0.58        2.54280
              P 24 -- In 24                  0.54        2.54281
              P 30 -- In 31                  1.34        2.54300
              P 31 -- In 33                  1.36        2.54329
              P 27 -- In 29                  1.33        2.54338
              P 2  -- In 40                  1.13        2.54400
              P 24 -- In 37                  1.35        2.54456
              P 27 -- In 30                  0.50        2.54508
              P 48 -- In 26                  0.57        2.54540
              P 43 -- In 46                  0.56        2.54609
              P 7  -- In 10                  0.55        2.54618
              P 39 -- In 41                  1.34        2.54664
              P 46 -- In 11                  0.57        2.54789
              P 22 -- In 24                  1.37        2.54821
              P 32 -- In 22                  1.36        2.54833
              P 34 -- In 36                  1.34        2.54866
              P 8  -- In 9                   0.55        2.54957
              P 10 -- In 23                  0.55        2.54984
              P 41 -- In 43                  0.55        2.55033
              P 21 -- In 21                  0.57        2.55330
              P 16 -- In 18                  1.35        2.55347
              P 38 -- In 28                  1.31        2.55347
              P 41 -- In 44                  1.35        2.55385
              P 5  -- In 7                   0.55        2.55422
              P 44 -- In 34                  1.34        2.55424
              P 37 -- In 37                  0.57        2.55469
              P 23 -- In 38                  1.34        2.55626
              P 37 -- In 39                  1.25        2.55708
              P 42 -- In 8                   0.54        2.55746
              P 12 -- In 25                  1.31        2.55754
              P 21 -- In 23                  1.35        2.55782
              P 3  -- In 5                   1.30        2.55795
              P 9  -- In 12                  0.55        2.55799
              P 38 -- In 38                  0.56        2.55800
              P 45 -- In 45                  0.56        2.55878
              P 47 -- In 47                  0.57        2.55932
              P 11 -- In 25                  0.57        2.55938
              P 23 -- In 37                  0.55        2.56035
              P 19 -- In 21                  1.34        2.56093
              P 18 -- In 19                  1.35        2.56125
              P 16 -- In 16                  0.53        2.56169
              P 17 -- In 17                  0.57        2.56213
              P 23 -- In 23                  0.55        2.56309
              P 39 -- In 39                  0.54        2.56334
              P 41 -- In 41                  0.56        2.56343
              P 45 -- In 47                  1.34        2.56386
              P 43 -- In 45                  1.33        2.56405
              P 42 -- In 43                  1.34        2.56432
              P 47 -- In 14                  1.32        2.56464
              P 10 -- In 12                  1.34        2.56772
              P 20 -- In 20                  0.57        2.56829
              P 20 -- In 10                  1.33        2.56876
              P 15 -- In 17                  1.37        2.56939
              P 48 -- In 48                  0.56        2.56946
              P 3  -- In 6                   0.51        2.56989
              P 8  -- In 46                  1.32        2.57014
              P 17 -- In 20                  1.33        2.57089
              P 46 -- In 48                  1.31        2.57186
              P 5  -- In 8                   1.32        2.57209
              P 4  -- In 6                   1.35        2.57222
              P 43 -- In 43                  0.56        2.57304
              P 7  -- In 9                   1.32        2.57316
              P 9  -- In 11                  1.33        2.57366
              P 42 -- In 42                  0.54        2.57442
              P 6  -- In 7                   1.33        2.57463
              P 28 -- In 41                  0.54        2.57518
              P 40 -- In 42                  1.30        2.57571
              P 40 -- In 40                  0.54        2.57637
              P 6  -- In 6                   0.55        2.57647
              P 10 -- In 10                  0.56        2.57761
              P 2  -- In 2                   0.55        2.57827
              P 48 -- In 13                  1.30        2.57848
              P 12 -- In 12                  0.55        2.58038
              P 11 -- In 26                  1.27        2.58162
              P 39 -- In 42                  0.54        2.58275
              P 46 -- In 46                  0.55        2.58514
              P 14 -- In 14                  0.53        2.58618
              P 3  -- In 3                   0.52        2.58686
              P 26 -- In 26                  0.55        2.58868
              P 12 -- In 38                  0.54        2.58953
              P 15 -- In 15                  0.55        2.59055
              P 13 -- In 13                  0.52        2.59075
              P 28 -- In 28                  0.56        2.59079
              P 9  -- In 9                   0.55        2.59206
              P 7  -- In 7                   0.56        2.59334
              P 8  -- In 8                   0.56        2.59341
              P 4  -- In 4                   0.54        2.59777
              P 11 -- In 11                  0.53        2.59943
              P 40 -- In 5                   0.52        2.59978
              P 1  -- In 1                   0.49        2.60003
              P 25 -- In 25                  0.49        2.60950
              P 5  -- In 5                   0.54        2.60951
              P 37 -- In 40                  0.52        2.62429
              P 38 -- In 39                  0.47        2.62460
              P 13 -- In 4                   0.53        2.64754
              P 14 -- In 3                   0.51        2.66176
              P 26 -- In 15                  0.47        2.67598
              P 25 -- In 28                  0.30        2.76085
======================================================================

 Hirshfeld supercell size:           1           1           4
Standard grid dimensions: 250 250 180
Fine grid dimensions:     250 250 180


     Hirshfeld Analysis
     ------------------
Species   Ion     Hirshfeld Charge (e)
======================================
  P        1                -0.16
  P        2                -0.16
  P        3                -0.24
  P        4                -0.25
  P        5                -0.24
  P        6                -0.24
  P        7                -0.24
  P        8                -0.24
  P        9                -0.24
  P       10                -0.24
  P       11                -0.23
  P       12                -0.24
  P       13                -0.24
  P       14                -0.24
  P       15                -0.24
  P       16                -0.25
  P       17                -0.24
  P       18                -0.24
  P       19                -0.24
  P       20                -0.24
  P       21                -0.24
  P       22                -0.24
  P       23                -0.24
  P       24                -0.24
  P       25                -0.22
  P       26                -0.24
  P       27                -0.23
  P       28                -0.24
  P       29                -0.24
  P       30                -0.24
  P       31                -0.24
  P       32                -0.24
  P       33                -0.24
  P       34                -0.24
  P       35                -0.25
  P       36                -0.24
  P       37                -0.24
  P       38                -0.24
  P       39                -0.24
  P       40                -0.24
  P       41                -0.24
  P       42                -0.24
  P       43                -0.24
  P       44                -0.24
  P       45                -0.24
  P       46                -0.24
  P       47                -0.24
  P       48                -0.24
  In       1                 0.24
  In       2                 0.23
  In       3                 0.24
  In       4                 0.24
  In       5                 0.25
  In       6                 0.24
  In       7                 0.24
  In       8                 0.24
  In       9                 0.24
  In      10                 0.24
  In      11                 0.23
  In      12                 0.23
  In      13                 0.24
  In      14                 0.24
  In      15                 0.24
  In      16                 0.14
  In      17                 0.24
  In      18                 0.23
  In      19                 0.24
  In      20                 0.24
  In      21                 0.24
  In      22                 0.24
  In      23                 0.24
  In      24                 0.24
  In      25                 0.25
  In      26                 0.24
  In      27                 0.23
  In      28                 0.21
  In      29                 0.23
  In      30                 0.23
  In      31                 0.24
  In      32                 0.24
  In      33                 0.24
  In      34                 0.24
  In      35                 0.24
  In      36                 0.24
  In      37                 0.24
  In      38                 0.24
  In      39                 0.23
  In      40                 0.23
  In      41                 0.24
  In      42                 0.24
  In      43                 0.24
  In      44                 0.24
  In      45                 0.24
  In      46                 0.24
  In      47                 0.24
  In      48                 0.23
======================================

 
 A BibTeX formatted list of references used in this run has been written to 
 90deg_Singlepoints_2.bib
 
Initialisation time =     30.48 s
Calculation time    =   5595.16 s
Finalisation time   =     71.76 s
Total time          =   5697.40 s
Peak Memory Use     = 8560312 kB
 
Overall parallel efficiency rating: Terrible (33%)
 
Data was distributed by:-
G-vector (6-way); efficiency rating: Poor (36%)
k-point (20-way); efficiency rating: Good (79%)
