 +-------------------------------------------------+
 |                                                 |
 |      CCC   AA    SSS  TTTTT  EEEEE  PPPP        |
 |     C     A  A  S       T    E      P   P       |
 |     C     AAAA   SS     T    EEE    PPPP        |
 |     C     A  A     S    T    E      P           |
 |      CCC  A  A  SSS     T    EEEEE  P           |
 |                                                 |
 +-------------------------------------------------+
 |                                                 |
 | Welcome to Academic Release CASTEP version 24.1 |
 | Ab Initio Total Energy Program                  |
 |                                                 |
 | Authors:                                        |
 | M. Segall, M. Probert, C. Pickard, P. Hasnip,   |
 | S. Clark, K. Refson, J. R. Yates,               |
 | A. Bartok-Partay, M. Payne                      |
 |                                                 |
 | Contributors:                                   |
 | P. Lindan, P. Haynes, J. White, V. Milman,      |
 | N. Govind, M. Gibson, P. Tulip, V. Cocula,      |
 | B. Montanari, D. Quigley, M. Glover,            |
 | L. Bernasconi, A. Perlov, M. Plummer,           |
 | E. McNellis, J. Meyer, J. Gale, D. Jochym       |
 | J. Aarons, B. Walker, R. Gillen, D. Jones       |
 | T. Green, I. J. Bush, C. J. Armstrong,          |
 | E. J. Higgins, E. L. Brown, M. S. McFly,        |
 | J. Wilkins, B-C. Shih, P. J. P. Byrne,          |
 | R. J. Maurer, J. C. Womack, J. Dziedzic,        |
 | L. LeBlanc, T. K. Stenczel, J. Kermode,         |
 | S. Sturniolo, B. Shi, B. Durham, M. Evans,      |
 | M. J. Smith, A. Tamerus, Z. Hawkhead,           |
 | V. Ravindran, T. Hollins, S. A. Joyce,          |
 | R. T. Strong, A. M. Reilly, S. J. Donaldson     |
 |                                                 |
 | Copyright (c) 2000 - 2023                       |
 |                                                 |
 |     Distributed under license from Cambridge    |
 |     Enterprise for academic use only.           |
 |                                                 |
 | Please cite                                     |
 |                                                 |
 |     "First principles methods using CASTEP"     |
 |                                                 |
 |         Zeitschrift fuer Kristallographie       |
 |           220(5-6) pp. 567-570 (2005)           |
 |                                                 |
 | S. J. Clark, M. D. Segall, C. J. Pickard,       |
 | P. J. Hasnip, M. J. Probert, K. Refson,         |
 | M. C. Payne                                     |
 |                                                 |
 |       in all publications arising from          |
 |              your use of CASTEP                 |
 |                                                 |
 +-------------------------------------------------+
 |                                                 |
 |              http://www.castep.org              |
 |                                                 |
 +-------------------------------------------------+



 Compiled for  GNU 11.2.0 on 04-04-2024 18:39:17
 from code version 6355fd106 Castep241_branch Thu Mar 7 17:56:19 2024 +0000
 Compiler: GNU Fortran 11.2.0; Optimisation: FAST
 Comms   : MPI VERSION : CRAY MPICH version 8.1.23.14 (ANL base 3.4a2)
 MATHLIBS: default (LAPACK version 3.10.1)
 FFT Lib : fftw3 version commercial-fftw-3.3.10-sse2-avx-avx2-avx2_128
 Fundamental constants values: CODATA 2018

 Run started: Sun, 27 Apr 2025 02:54:37 +0100

 Atomic calculation performed for P: 1s2 2s2 2p6 3s2 3p3

 Converged in 47 iterations to an ae energy of -9309.074 eV

   ============================================================                
   | Pseudopotential Report - Date of generation 27-04-2025   |                
   ------------------------------------------------------------                
   | Element: P Ionic charge:  5.00 Level of theory: RSCAN    |                
   | Atomic Solver: Koelling-Harmon                           |                
   |                                                          |                
   |               Reference Electronic Structure             |                
   |         Orbital         Occupation         Energy        |                
   |            3s              2.000           -0.535        |                
   |            3p              3.000           -0.209        |                
   |                                                          |                
   |                 Pseudopotential Definition               |                
   |        Beta     l      e      Rc     scheme   norm       |                
   |          1      0   -0.535   1.807     qc      0         |                
   |          2      0    0.250   1.807     qc      0         |                
   |          3      1   -0.209   1.807     qc      0         |                
   |          4      1    0.250   1.807     qc      0         |                
   |          5      2    0.000   1.807     qc      0         |                
   |          6      2    0.250   1.807     qc      0         |                
   |         loc     3    0.000   1.807     pn      0         |                
   |                                                          |                
   | Augmentation charge Rinner = 1.263                       |                
   | Partial core correction Rc = 1.263                       |                
   ------------------------------------------------------------                
   | "3|1.8|4|4|5|30:31:32"                                   |                
   ------------------------------------------------------------                
   |      Author: Chris J. Pickard, Cambridge University      |                
   ============================================================                
 Warning: otfg_output_psp cannot write out meta-GGA pseudopotentials presently.

 Atomic calculation performed for In:
 1s2 2s2 2p6 3s2 3p6 3d10 4s2 4p6 4d10 5s2 5p1

 Converged in 84 iterations to an ae energy of -160093.328 eV

   ============================================================                
   | Pseudopotential Report - Date of generation 27-04-2025   |                
   ------------------------------------------------------------                
   | Element: In Ionic charge: 13.00 Level of theory: RSCAN   |                
   | Atomic Solver: Koelling-Harmon                           |                
   |                                                          |                
   |               Reference Electronic Structure             |                
   |         Orbital         Occupation         Energy        |                
   |            4d             10.000           -0.711        |                
   |            5s              2.000           -0.313        |                
   |            5p              1.000           -0.095        |                
   |                                                          |                
   |                 Pseudopotential Definition               |                
   |        Beta     l      e      Rc     scheme   norm       |                
   |          1      0   -0.313   2.501     qc      0         |                
   |          2      0    0.250   2.501     qc      0         |                
   |          3      1   -0.095   2.501     qc      0         |                
   |          4      1    0.250   2.501     qc      0         |                
   |          5      2   -0.711   2.207     qc      0         |                
   |          6      2    0.250   2.207     qc      0         |                
   |         loc     3    0.000   2.501     pn      0         |                
   |                                                          |                
   | Augmentation charge Rinner = 1.504                       |                
   | Partial core correction Rc = 1.504                       |                
   ------------------------------------------------------------                
   | "3|2.5|2.5|1.5|7|8|9|50:51:42U2.2U2.2"                   |                
   ------------------------------------------------------------                
   |      Author: Chris J. Pickard, Cambridge University      |                
   ============================================================                
 Warning: otfg_output_psp cannot write out meta-GGA pseudopotentials presently.

 Pseudo atomic calculation performed for P 3s2 3p3

 Converged in 23 iterations to a total energy of -208.0292 eV

 Pseudo atomic calculation performed for In 4d10 5s2 5p1

 Converged in 42 iterations to a total energy of -1747.4501 eV
 Calculation parallelised over 108 processes.
 Data is distributed by G-vector(3-way) and k-point(36-way)
 Each process may use up to 16 threads.

 ************************************ Title ************************************
 

 ***************************** General Parameters ******************************
  
 output verbosity                               : normal  (1)
 write checkpoint data to                       : In_Interstitial_Migration_Tetra_Octa_Singlepoints_5.check
 type of calculation                            : single point energy
 stress calculation                             : off
 density difference calculation                 : off
 electron localisation func (ELF) calculation   : off
 Hirshfeld analysis                             : on
 polarisation (Berry phase) analysis            : off
 molecular orbital projected DOS                : off
 deltaSCF calculation                           : off
 unlimited duration calculation
 timing information                             : on
 memory usage estimate                          : on
 write extra output files                       : on
 write final potential to formatted file        : off
 write final density to formatted file          : off
 write BibTeX reference list                    : on
 write OTFG pseudopotential files               : on
 write electrostatic potential file             : on
 write bands file                               : on
 checkpoint writing                             : off
  
 output         length unit                     : A
 output           mass unit                     : amu
 output           time unit                     : ps
 output         charge unit                     : e
 output           spin unit                     : hbar/2
 output         energy unit                     : eV
 output          force unit                     : eV/A
 output       velocity unit                     : A/ps
 output       pressure unit                     : GPa
 output     inv_length unit                     : 1/A
 output      frequency unit                     : cm-1
 output force constant unit                     : eV/A**2
 output         volume unit                     : A**3
 output   IR intensity unit                     : (D/A)**2/amu
 output         dipole unit                     : D
 output         efield unit                     : eV/A/e
 output        entropy unit                     : J/mol/K
 output    efield chi2 unit                     : pm/V
  
 wavefunctions paging                           : none
 random number generator seed                   :   25437261
 data distribution                              : optimal for this architecture
 optimization strategy                          : balance speed and memory

 *********************** Exchange-Correlation Parameters ***********************
  
 using functional                               : RSCAN
 relativistic treatment                         : Koelling-Harmon
 DFT+D: Semi-empirical dispersion correction    : off

 ************************* Pseudopotential Parameters **************************
  
 pseudopotential representation                 : reciprocal space
 <beta|phi> representation                      : reciprocal space
 spin-orbit coupling                            : off

 **************************** Basis Set Parameters *****************************
  
 plane wave basis set cut-off                   :   900.0000   eV
 size of standard grid                          :     2.0000
 size of   fine   gmax                          :    30.7390   1/A
 finite basis set correction                    : none

 **************************** Electronic Parameters ****************************
  
 number of  electrons                           :  589.0    
 net charge of system                           :  0.000    
 net spin   of system                           :  1.000    
 number of  up  spins                           :  295.0    
 number of down spins                           :  294.0    
 treating system as spin-polarized
 number of bands                                :        354

 ********************* Electronic Minimization Parameters **********************
  
 Method: Treating system as metallic with density mixing treatment of electrons,
         and number of  SD  steps               :          1
         and number of  CG  steps               :          4
  
 total energy / atom convergence tol.           : 0.1000E-07   eV
 eigen-energy convergence tolerance             : 0.2203E-08   eV
 max force / atom convergence tol.              : ignored
 convergence tolerance window                   :          3   cycles
 max. number of SCF cycles                      :        100
 number of fixed-spin iterations                :         10
 smearing scheme                                : Gaussian
 smearing width                                 : 0.2000       eV
 Fermi energy convergence tolerance             : 0.2721E-13   eV
 periodic dipole correction                     : NONE

 ************************** Density Mixing Parameters **************************
  
 density-mixing scheme                          : Pulay
 max. length of mixing history                  :         20
 charge density mixing amplitude                : 0.5000    
   spin density mixing amplitude                :  2.000    
 cut-off energy for mixing                      :  900.0       eV

 *********************** Population Analysis Parameters ************************
  
 Population analysis with cutoff                :  3.000       A
 Population analysis output                     : summary and pdos components

 *******************************************************************************
  

                           -------------------------------
                                      Unit Cell
                           -------------------------------
        Real Lattice(A)                      Reciprocal Lattice(1/A)
    11.8025500     0.0000000     0.0000000        0.532358288   0.000000000   0.000000000
     0.0000000    11.8025500     0.0000000        0.000000000   0.532358288   0.000000000
     0.0000000     0.0000000    11.8025500        0.000000000   0.000000000   0.532358288

                       Lattice parameters(A)       Cell Angles
                    a =     11.802550          alpha =   90.000000
                    b =     11.802550          beta  =   90.000000
                    c =     11.802550          gamma =   90.000000

                       Current cell volume =          1644.097416       A**3
                                   density =             2.907464   AMU/A**3
                                           =             4.827958     g/cm^3

                           -------------------------------
                                     Cell Contents
                           -------------------------------
                         Total number of ions in cell =   65
                      Total number of species in cell =    2
                        Max number of any one species =   33

            xxxxxxxxxxxxxxxxxxxxxxxxxxxxxxxxxxxxxxxxxxxxxxxxxxxxxxxxxxxx
            x  Element    Atom        Fractional coordinates of atoms  x
            x            Number           u          v          w      x
            x----------------------------------------------------------x
            x  P            1         0.127417   0.122583   0.378279   x 
            x  P            2         0.385334   0.132901   0.133771   x 
            x  P            3         0.127417   0.377409   0.123453   x 
            x  P            4         0.375107   0.378039   0.378909   x 
            x  P            5         0.117099   0.132901   0.865536   x 
            x  P            6         0.377050   0.123750   0.623529   x 
            x  P            7         0.125833   0.375547   0.623491   x 
            x  P            8         0.386485   0.382491   0.864386   x 
            x  P            9         0.125833   0.622621   0.376417   x 
            x  P           10         0.377050   0.622659   0.124620   x 
            x  P           11         0.117099   0.864666   0.133771   x 
            x  P           12         0.386485   0.863516   0.383361   x 
            x  P           13         0.126251   0.622659   0.873820   x 
            x  P           14         0.378033   0.626584   0.627454   x 
            x  P           15         0.126251   0.872950   0.623529   x 
            x  P           16         0.367128   0.882872   0.883742   x 
            x  P           17         0.627379   0.124167   0.376417   x 
            x  P           18         0.872591   0.122583   0.123453   x 
            x  P           19         0.627379   0.375547   0.125037   x 
            x  P           20         0.881276   0.368724   0.369594   x 
            x  P           21         0.627341   0.123750   0.873820   x 
            x  P           22         0.874453   0.124167   0.623491   x 
            x  P           23         0.628803   0.373707   0.622067   x 
            x  P           24         0.871961   0.378039   0.875763   x 
            x  P           25         0.628803   0.621197   0.374578   x 
            x  P           26         0.874453   0.622621   0.125037   x 
            x  P           27         0.627341   0.872950   0.124620   x 
            x  P           28         0.871961   0.874893   0.378909   x 
            x  P           29         0.623416   0.626584   0.872837   x 
            x  P           30         0.876293   0.621197   0.622067   x 
            x  P           31         0.623416   0.871967   0.627454   x 
            x  P           32         0.867509   0.863516   0.864386   x 
            x  In           1        -0.023029  -0.009518  -0.008648   x 
            x  In           2         0.259518  -0.009518   0.273899   x 
            x  In           3         0.007058   0.242942   0.243812   x 
            x  In           4         0.259518   0.273029  -0.008648   x 
            x  In           5         0.000094  -0.001335   0.501192   x 
            x  In           6         0.246461   0.003539   0.746201   x 
            x  In           7        -0.008297   0.258297   0.743510   x 
            x  In           8         0.251336   0.249906   0.501192   x 
            x  In           9         0.000094   0.500321  -0.000465   x 
            x  In          10         0.251336   0.500321   0.250776   x 
            x  In          11        -0.008297   0.742640   0.259167   x 
            x  In          12         0.246461   0.745330   0.004410   x 
            x  In          13         0.000021   0.495871   0.496741   x 
            x  In          14         0.250849   0.501473   0.745591   x 
            x  In          15         0.002914   0.744726   0.745596   x 
            x  In          16         0.250849   0.744721   0.502343   x 
            x  In          17         0.504670   0.003539   0.004410   x 
            x  In          18         0.749679  -0.001335   0.250776   x 
            x  In          19         0.507360   0.258297   0.259167   x 
            x  In          20         0.749679   0.249906  -0.000465   x 
            x  In          21         0.505279  -0.000849   0.502343   x 
            x  In          22         0.748527  -0.000849   0.745591   x 
            x  In          23         0.505274   0.247086   0.745596   x 
            x  In          24         0.754129   0.249979   0.496741   x 
            x  In          25         0.505279   0.501473   0.000021   x 
            x  In          26         0.754129   0.495871   0.250849   x 
            x  In          27         0.505274   0.744726   0.247956   x 
            x  In          28         0.748527   0.744721   0.000021   x 
            x  In          29         0.502231   0.501408   0.502278   x 
            x  In          30         0.748592   0.501408   0.748639   x 
            x  In          31         0.494203   0.755797   0.756667   x 
            x  In          32         0.748592   0.747769   0.502278   x 
            x  In          33         0.216933   0.033067   0.033937   x 
            xxxxxxxxxxxxxxxxxxxxxxxxxxxxxxxxxxxxxxxxxxxxxxxxxxxxxxxxxxxx


                         No user defined ionic velocities

                           -------------------------------
                                   Details of Species
                           -------------------------------

                               Mass of species in AMU
                                    P   30.9737600
                                    In  114.8180000

                          Electric Quadrupole Moment (Barn)
                                    P    1.0000000 No Isotope Defined
                                    In    0.7700000 Isotope115

                          Files used for pseudopotentials:
                                    P 3|1.8|4|4|5|30:31:32
                                    In 3|2.5|2.5|1.5|7|8|9|50:51:42U2.2U2.2

                           -------------------------------
                              k-Points For BZ Sampling
                           -------------------------------
                       MP grid size for SCF calculation is  4  4  4
                            with an offset of   0.125  0.125  0.125
                       Number of kpoints used =            36

                           -------------------------------
                               Symmetry and Constraints
                           -------------------------------

                      Maximum deviation from symmetry =  0.00000         ANG

                      Number of symmetry operations   =           1
                      Number of ionic constraints     =           3
                      Point group of crystal =     1: C1, 1, 1
                      Space group of crystal =   160: R3m, R 3 -2"

             Set iprint > 1 for details on symmetry rotations/translations

                         Centre of mass is constrained
             Set iprint > 1 for details of linear ionic constraints

                         Number of cell constraints= 0
                         Cell constraints are:  1 2 3 4 5 6

                         External pressure/stress (GPa)
                          0.00000   0.00000   0.00000
                                    0.00000   0.00000
                                              0.00000
 
+---------------- MEMORY AND SCRATCH DISK ESTIMATES PER PROCESS --------------+
|                                                     Memory          Disk    |
| Baseline code, static data and system overhead      368.0 MB         0.0 MB |
| BLAS internal memory storage                          0.0 MB         0.0 MB |
| Model and support data                             4331.9 MB         0.0 MB |
| Electronic energy minimisation requirements        1349.7 MB         0.0 MB |
| Force calculation requirements                      127.4 MB         0.0 MB |
|                                               ----------------------------- |
| Approx. total storage required per process         6049.6 MB         0.0 MB |
|                                                                             |
| Requirements will fluctuate during execution and may exceed these estimates |
+-----------------------------------------------------------------------------+
Calculating approximate eigenstates for fixed initial Hamiltonian
Cut-off for approx. calculation is   89.988 eV
Improving approx. states at cut-off of  450.000 eV
Resetting cut-off to  900.000 eV
Calculating total energy with cut-off of  900.000 eV.
------------------------------------------------------------------------ <-- SCF
SCF loop      Energy           Fermi           Energy gain       Timer   <-- SCF
                               energy          per atom          (sec)   <-- SCF
------------------------------------------------------------------------ <-- SCF
Initial  -6.48017664E+004  0.00000000E+000                       441.08  <-- SCF
      1  -6.45474155E+004  3.90831844E+000  -3.91308975E+000     888.78  <-- SCF
      2  -6.45477419E+004  3.90070604E+000   5.02089090E-003    1211.26  <-- SCF
      3  -6.46174526E+004  4.07890212E+000   1.07247213E+000    1570.30  <-- SCF
      4  -6.46298271E+004  4.14285058E+000   1.90377056E-001    2066.42  <-- SCF
      5  -6.46368106E+004  4.29446899E+000   1.07439157E-001    2422.48  <-- SCF
      6  -6.46252580E+004  4.54805990E+000  -1.77732859E-001    2775.69  <-- SCF
      7  -6.46239717E+004  4.59571315E+000  -1.97895695E-002    3132.46  <-- SCF
      8  -6.46240044E+004  4.62210226E+000   5.04066545E-004    3520.63  <-- SCF
      9  -6.46248187E+004  4.64108821E+000   1.25271663E-002    3887.47  <-- SCF
     10  -6.46252168E+004  4.77373289E+000   6.12480527E-003    4252.31  <-- SCF
     11  -6.46252315E+004  4.77000415E+000   2.26161028E-004    4616.64  <-- SCF
     12  -6.46252370E+004  4.76721536E+000   8.46622149E-005    5000.46  <-- SCF
     13  -6.46252397E+004  4.76416851E+000   4.18176340E-005    5365.38  <-- SCF
     14  -6.46252405E+004  4.76256529E+000   1.11999257E-005    5730.23  <-- SCF
     15  -6.46252408E+004  4.76195828E+000   4.99205520E-006    6099.89  <-- SCF
     16  -6.46252409E+004  4.76117221E+000   2.55568194E-006    6455.92  <-- SCF
     17  -6.46252410E+004  4.76093275E+000   6.65737081E-007    6792.07  <-- SCF
     18  -6.46252410E+004  4.76096164E+000   2.86786530E-007    7103.43  <-- SCF
     19  -6.46252410E+004  4.76102144E+000   9.60149039E-008    7418.04  <-- SCF
     20  -6.46252410E+004  4.76104230E+000   1.06196292E-008    7676.40  <-- SCF
     21  -6.46252410E+004  4.76104821E+000   2.95898208E-009    7928.29  <-- SCF
     22  -6.46252410E+004  4.76105099E+000   2.07317216E-010    8180.96  <-- SCF
------------------------------------------------------------------------ <-- SCF
 
Integrated Spin Density     =   -0.363049E-04 hbar/2
Integrated |Spin Density|   =    0.372377E-03 hbar/2
 
Final energy, E             =  -64625.11300657     eV
Final free energy (E-TS)    =  -64625.24101468     eV
(energies not corrected for finite basis set)
 
NB est. 0K energy (E-0.5TS)      =  -64625.17701062     eV
 

 ************************** Forces **************************
 *                                                          *
 *               Cartesian components (eV/A)                *
 * -------------------------------------------------------- *
 *                         x            y            z      *
 *                                                          *
 * P               1     -0.05267      0.05267     -0.04465 *
 * P               2      0.07131      0.26163      0.26427 *
 * P               3     -0.05364     -0.04305      0.05306 *
 * P               4      0.00715      0.00856      0.00495 *
 * P               5     -0.26219      0.26219     -0.07131 *
 * P               6     -0.01344      0.01399     -0.00246 *
 * P               7     -0.01738      0.04977     -0.03610 *
 * P               8     -0.04570     -0.04131      0.04361 *
 * P               9     -0.01675     -0.03636      0.05187 *
 * P              10     -0.01304     -0.00262      0.01621 *
 * P              11     -0.26163     -0.07131      0.26427 *
 * P              12     -0.04534      0.04533     -0.03820 *
 * P              13     -0.01389     -0.00231      0.01389 *
 * P              14      0.04203     -0.02794     -0.02787 *
 * P              15     -0.01399      0.01345     -0.00246 *
 * P              16      0.06976     -0.06975     -0.06801 *
 * P              17      0.03634      0.01676      0.05187 *
 * P              18      0.04305      0.05364      0.05306 *
 * P              19      0.03576      0.04976      0.01951 *
 * P              20     -0.00159      0.00158     -0.00029 *
 * P              21      0.00231      0.01388      0.01389 *
 * P              22     -0.04977      0.01738     -0.03610 *
 * P              23     -0.00260      0.02471     -0.00089 *
 * P              24     -0.00809      0.00809     -0.00379 *
 * P              25     -0.00266      0.00265      0.02744 *
 * P              26     -0.04975     -0.03577      0.01951 *
 * P              27      0.00262      0.01305      0.01620 *
 * P              28     -0.00855     -0.00715      0.00495 *
 * P              29      0.02882     -0.02882     -0.04241 *
 * P              30     -0.02470      0.00260     -0.00089 *
 * P              31      0.02794     -0.04203     -0.02787 *
 * P              32      0.04131      0.04569      0.04361 *
 * In              1      0.14466      0.10515      0.10489 *
 * In              2     -0.10514      0.10514     -0.14490 *
 * In              3     -0.01729      0.01729      0.01703 *
 * In              4     -0.10514     -0.14465      0.10488 *
 * In              5     -0.04434     -0.02218      0.03574 *
 * In              6      0.02732     -0.02731     -0.04012 *
 * In              7      0.05087     -0.05088     -0.03268 *
 * In              8      0.02217      0.04435      0.03574 *
 * In              9     -0.04435      0.03598     -0.02246 *
 * In             10      0.02219      0.03600      0.04413 *
 * In             11      0.05085     -0.03237     -0.05111 *
 * In             12      0.02734     -0.03972     -0.02770 *
 * In             13      0.10201      0.03677      0.03638 *
 * In             14     -0.04414      0.01592      0.01018 *
 * In             15      0.01651     -0.03586     -0.03623 *
 * In             16     -0.04414      0.01054      0.01561 *
 * In             17      0.03971     -0.02734     -0.02770 *
 * In             18     -0.03600     -0.02220      0.04413 *
 * In             19      0.03238     -0.05085     -0.05111 *
 * In             20     -0.03597      0.04436     -0.02246 *
 * In             21     -0.01054      0.04415      0.01561 *
 * In             22     -0.01592      0.04414      0.01018 *
 * In             23      0.03585     -0.01650     -0.03624 *
 * In             24     -0.03676     -0.10201      0.03638 *
 * In             25     -0.01055      0.01591      0.04390 *
 * In             26     -0.03674      0.03674     -0.10227 *
 * In             27      0.03586     -0.03587     -0.01683 *
 * In             28     -0.01590      0.01055      0.04390 *
 * In             29     -0.02389      0.01532      0.01500 *
 * In             30     -0.01530      0.01530      0.02361 *
 * In             31     -0.03055      0.03055      0.03021 *
 * In             32     -0.01532      0.02390      0.01499 *
 * In             33      0.62927     -0.62928     -0.62955 *
 *                                                          *
 ************************************************************

 Pseudo atomic calculation performed for P 3s2 3p3

 Converged in 23 iterations to a total energy of -208.0292 eV

 Pseudo atomic calculation performed for In 4d10 5s2 5p1

 Converged in 42 iterations to a total energy of -1747.4501 eV
Charge spilling parameter for spin component 1 = 0.26%
Charge spilling parameter for spin component 2 = 0.26%

                   Orbital Populations                  
  ---------------------------------------------------------------
     Ion    Atom   Orbital              Up        Down      Spin
  ---------------------------------------------------------------
      P     1      S                    0.869     0.869    -0.000
      P     1      Px                   0.654     0.654     0.000
      P     1      Py                   0.654     0.654    -0.000
      P     1      Pz                   0.656     0.656     0.000
      P     2      S                    0.887     0.887    -0.000
      P     2      Px                   0.629     0.629     0.000
      P     2      Py                   0.647     0.647    -0.000
      P     2      Pz                   0.647     0.647     0.000
      P     3      S                    0.869     0.869    -0.000
      P     3      Px                   0.654     0.654     0.000
      P     3      Py                   0.656     0.656     0.000
      P     3      Pz                   0.654     0.654     0.000
      P     4      S                    0.867     0.867    -0.000
      P     4      Px                   0.654     0.654     0.000
      P     4      Py                   0.658     0.658    -0.000
      P     4      Pz                   0.658     0.658    -0.000
      P     5      S                    0.887     0.887    -0.000
      P     5      Px                   0.647     0.647    -0.000
      P     5      Py                   0.647     0.648    -0.000
      P     5      Pz                   0.629     0.629     0.000
      P     6      S                    0.868     0.868    -0.000
      P     6      Px                   0.653     0.653     0.000
      P     6      Py                   0.658     0.658     0.000
      P     6      Pz                   0.657     0.657     0.000
      P     7      S                    0.867     0.867     0.000
      P     7      Px                   0.653     0.653     0.000
      P     7      Py                   0.658     0.658     0.000
      P     7      Pz                   0.657     0.657     0.000
      P     8      S                    0.869     0.869     0.000
      P     8      Px                   0.654     0.654    -0.000
      P     8      Py                   0.658     0.658    -0.000
      P     8      Pz                   0.654     0.654    -0.000
      P     9      S                    0.867     0.867     0.000
      P     9      Px                   0.653     0.653     0.000
      P     9      Py                   0.657     0.657    -0.000
      P     9      Pz                   0.658     0.658     0.000
      P    10      S                    0.868     0.868    -0.000
      P    10      Px                   0.653     0.653     0.000
      P    10      Py                   0.657     0.657    -0.000
      P    10      Pz                   0.658     0.658     0.000
      P    11      S                    0.887     0.887    -0.000
      P    11      Px                   0.647     0.647    -0.000
      P    11      Py                   0.629     0.629     0.000
      P    11      Pz                   0.647     0.647    -0.000
      P    12      S                    0.869     0.869     0.000
      P    12      Px                   0.654     0.654    -0.000
      P    12      Py                   0.654     0.654    -0.000
      P    12      Pz                   0.658     0.658     0.000
      P    13      S                    0.868     0.868    -0.000
      P    13      Px                   0.658     0.658     0.000
      P    13      Py                   0.657     0.657     0.000
      P    13      Pz                   0.653     0.653     0.000
      P    14      S                    0.867     0.867    -0.000
      P    14      Px                   0.657     0.657    -0.000
      P    14      Py                   0.656     0.656     0.000
      P    14      Pz                   0.656     0.656     0.000
      P    15      S                    0.868     0.868    -0.000
      P    15      Px                   0.658     0.658     0.000
      P    15      Py                   0.653     0.653     0.000
      P    15      Pz                   0.657     0.657     0.000
      P    16      S                    0.874     0.874     0.000
      P    16      Px                   0.649     0.649    -0.000
      P    16      Py                   0.649     0.649     0.000
      P    16      Pz                   0.649     0.649     0.000
      P    17      S                    0.867     0.867     0.000
      P    17      Px                   0.657     0.657     0.000
      P    17      Py                   0.653     0.653     0.000
      P    17      Pz                   0.658     0.658     0.000
      P    18      S                    0.869     0.869    -0.000
      P    18      Px                   0.656     0.656     0.000
      P    18      Py                   0.654     0.654     0.000
      P    18      Pz                   0.654     0.654     0.000
      P    19      S                    0.867     0.867     0.000
      P    19      Px                   0.657     0.657     0.000
      P    19      Py                   0.658     0.658     0.000
      P    19      Pz                   0.653     0.653     0.000
      P    20      S                    0.868     0.868     0.000
      P    20      Px                   0.656     0.656     0.000
      P    20      Py                   0.656     0.656     0.000
      P    20      Pz                   0.656     0.656     0.000
      P    21      S                    0.868     0.868    -0.000
      P    21      Px                   0.657     0.657    -0.000
      P    21      Py                   0.658     0.658     0.000
      P    21      Pz                   0.653     0.653     0.000
      P    22      S                    0.867     0.867     0.000
      P    22      Px                   0.658     0.658     0.000
      P    22      Py                   0.653     0.653     0.000
      P    22      Pz                   0.657     0.657     0.000
      P    23      S                    0.868     0.868     0.000
      P    23      Px                   0.657     0.657     0.000
      P    23      Py                   0.654     0.654    -0.000
      P    23      Pz                   0.657     0.657     0.000
      P    24      S                    0.867     0.867     0.000
      P    24      Px                   0.658     0.658    -0.000
      P    24      Py                   0.658     0.658    -0.000
      P    24      Pz                   0.654     0.654     0.000
      P    25      S                    0.868     0.868     0.000
      P    25      Px                   0.657     0.657    -0.000
      P    25      Py                   0.657     0.657    -0.000
      P    25      Pz                   0.654     0.654     0.000
      P    26      S                    0.867     0.867     0.000
      P    26      Px                   0.658     0.658     0.000
      P    26      Py                   0.657     0.657     0.000
      P    26      Pz                   0.653     0.653     0.000
      P    27      S                    0.868     0.868    -0.000
      P    27      Px                   0.657     0.657     0.000
      P    27      Py                   0.653     0.653     0.000
      P    27      Pz                   0.658     0.658     0.000
      P    28      S                    0.867     0.867     0.000
      P    28      Px                   0.658     0.658    -0.000
      P    28      Py                   0.654     0.654     0.000
      P    28      Pz                   0.658     0.658     0.000
      P    29      S                    0.867     0.867     0.000
      P    29      Px                   0.656     0.656     0.000
      P    29      Py                   0.656     0.656     0.000
      P    29      Pz                   0.657     0.657    -0.000
      P    30      S                    0.868     0.868     0.000
      P    30      Px                   0.654     0.654     0.000
      P    30      Py                   0.657     0.657     0.000
      P    30      Pz                   0.657     0.657     0.000
      P    31      S                    0.867     0.867    -0.000
      P    31      Px                   0.656     0.656     0.000
      P    31      Py                   0.657     0.657    -0.000
      P    31      Pz                   0.656     0.656     0.000
      P    32      S                    0.869     0.869     0.000
      P    32      Px                   0.658     0.658    -0.000
      P    32      Py                   0.654     0.654    -0.000
      P    32      Pz                   0.654     0.654    -0.000
     In     1      Dzz                  0.999     1.000    -0.000
     In     1      Dzy                  0.998     0.998    -0.000
     In     1      Dzx                  0.999     0.999    -0.000
     In     1      Dxx-yy               0.999     0.999     0.000
     In     1      Dxy                  0.999     0.999    -0.000
     In     1      S                    0.715     0.715     0.000
     In     1      Px                   0.215     0.215    -0.000
     In     1      Py                   0.245     0.245    -0.000
     In     1      Pz                   0.245     0.245    -0.000
     In     1      S                   -0.222    -0.222    -0.000
     In     2      Dzz                  0.999     0.999     0.000
     In     2      Dzy                  0.999     0.999    -0.000
     In     2      Dzx                  0.999     0.999    -0.000
     In     2      Dxx-yy               1.000     1.000     0.000
     In     2      Dxy                  0.998     0.998    -0.000
     In     2      S                    0.715     0.715     0.000
     In     2      Px                   0.245     0.245    -0.000
     In     2      Py                   0.245     0.245    -0.000
     In     2      Pz                   0.215     0.215    -0.000
     In     2      S                   -0.222    -0.222    -0.000
     In     3      Dzz                  1.000     1.000    -0.000
     In     3      Dzy                  0.999     0.999     0.000
     In     3      Dzx                  0.999     0.999    -0.000
     In     3      Dxx-yy               1.000     1.000     0.000
     In     3      Dxy                  0.999     0.999     0.000
     In     3      S                    0.714     0.714    -0.000
     In     3      Px                   0.240     0.240    -0.000
     In     3      Py                   0.240     0.240    -0.000
     In     3      Pz                   0.240     0.240    -0.000
     In     3      S                   -0.279    -0.279    -0.000
     In     4      Dzz                  1.000     1.000    -0.000
     In     4      Dzy                  0.999     0.999    -0.000
     In     4      Dzx                  0.998     0.998     0.000
     In     4      Dxx-yy               0.999     0.999     0.000
     In     4      Dxy                  0.999     0.999    -0.000
     In     4      S                    0.715     0.715    -0.000
     In     4      Px                   0.245     0.245    -0.000
     In     4      Py                   0.215     0.215    -0.000
     In     4      Pz                   0.245     0.245    -0.000
     In     4      S                   -0.222    -0.222     0.000
     In     5      Dzz                  1.000     1.000    -0.000
     In     5      Dzy                  0.998     0.998     0.000
     In     5      Dzx                  0.998     0.998    -0.000
     In     5      Dxx-yy               1.000     1.000    -0.000
     In     5      Dxy                  0.998     0.998     0.000
     In     5      S                    0.712     0.712     0.000
     In     5      Px                   0.241     0.241    -0.000
     In     5      Py                   0.243     0.243     0.000
     In     5      Pz                   0.239     0.239     0.000
     In     5      S                   -0.269    -0.269     0.000
     In     6      Dzz                  1.000     1.000     0.000
     In     6      Dzy                  0.999     0.999     0.000
     In     6      Dzx                  0.999     0.999     0.000
     In     6      Dxx-yy               1.000     1.000    -0.000
     In     6      Dxy                  0.998     0.998     0.000
     In     6      S                    0.709     0.709    -0.000
     In     6      Px                   0.242     0.242     0.000
     In     6      Py                   0.242     0.242     0.000
     In     6      Pz                   0.229     0.229    -0.000
     In     6      S                   -0.249    -0.249    -0.000
     In     7      Dzz                  0.999     0.999    -0.000
     In     7      Dzy                  0.998     0.998     0.000
     In     7      Dzx                  0.998     0.998     0.000
     In     7      Dxx-yy               0.999     0.999     0.000
     In     7      Dxy                  0.998     0.998     0.000
     In     7      S                    0.737     0.737    -0.000
     In     7      Px                   0.248     0.248    -0.000
     In     7      Py                   0.248     0.248     0.000
     In     7      Pz                   0.241     0.241     0.000
     In     7      S                   -0.280    -0.280    -0.000
     In     8      Dzz                  1.000     1.000    -0.000
     In     8      Dzy                  0.998     0.998     0.000
     In     8      Dzx                  0.998     0.998     0.000
     In     8      Dxx-yy               1.000     1.000    -0.000
     In     8      Dxy                  0.998     0.998     0.000
     In     8      S                    0.712     0.712    -0.000
     In     8      Px                   0.243     0.243     0.000
     In     8      Py                   0.241     0.241     0.000
     In     8      Pz                   0.239     0.239     0.000
     In     8      S                   -0.269    -0.269     0.000
     In     9      Dzz                  1.000     1.000    -0.000
     In     9      Dzy                  0.998     0.998     0.000
     In     9      Dzx                  0.998     0.998     0.000
     In     9      Dxx-yy               1.000     1.000    -0.000
     In     9      Dxy                  0.998     0.998    -0.000
     In     9      S                    0.712     0.712     0.000
     In     9      Px                   0.241     0.241    -0.000
     In     9      Py                   0.239     0.239     0.000
     In     9      Pz                   0.243     0.243     0.000
     In     9      S                   -0.269    -0.269     0.000
     In    10      Dzz                  1.000     1.000    -0.000
     In    10      Dzy                  0.998     0.998    -0.000
     In    10      Dzx                  0.998     0.998     0.000
     In    10      Dxx-yy               1.000     1.000    -0.000
     In    10      Dxy                  0.998     0.998     0.000
     In    10      S                    0.712     0.712     0.000
     In    10      Px                   0.243     0.243     0.000
     In    10      Py                   0.239     0.239     0.000
     In    10      Pz                   0.241     0.241    -0.000
     In    10      S                   -0.269    -0.269     0.000
     In    11      Dzz                  0.999     0.999     0.000
     In    11      Dzy                  0.998     0.998     0.000
     In    11      Dzx                  0.998     0.998     0.000
     In    11      Dxx-yy               0.999     0.999    -0.000
     In    11      Dxy                  0.998     0.998    -0.000
     In    11      S                    0.737     0.737    -0.000
     In    11      Px                   0.248     0.248    -0.000
     In    11      Py                   0.241     0.241    -0.000
     In    11      Pz                   0.248     0.248    -0.000
     In    11      S                   -0.280    -0.280    -0.000
     In    12      Dzz                  1.000     1.000    -0.000
     In    12      Dzy                  0.999     0.999     0.000
     In    12      Dzx                  0.999     0.998     0.000
     In    12      Dxx-yy               1.000     1.000     0.000
     In    12      Dxy                  0.999     0.999     0.000
     In    12      S                    0.709     0.709    -0.000
     In    12      Px                   0.242     0.242     0.000
     In    12      Py                   0.229     0.229    -0.000
     In    12      Pz                   0.242     0.242     0.000
     In    12      S                   -0.249    -0.249    -0.000
     In    13      Dzz                  1.000     1.000    -0.000
     In    13      Dzy                  0.998     0.998     0.000
     In    13      Dzx                  0.998     0.998     0.000
     In    13      Dxx-yy               1.000     1.000     0.000
     In    13      Dxy                  0.998     0.998     0.000
     In    13      S                    0.710     0.710     0.000
     In    13      Px                   0.246     0.246     0.000
     In    13      Py                   0.241     0.241     0.000
     In    13      Pz                   0.241     0.241     0.000
     In    13      S                   -0.261    -0.261    -0.000
     In    14      Dzz                  1.000     1.000     0.000
     In    14      Dzy                  0.998     0.998     0.000
     In    14      Dzx                  0.998     0.998     0.000
     In    14      Dxx-yy               1.000     1.000    -0.000
     In    14      Dxy                  0.998     0.998    -0.000
     In    14      S                    0.715     0.715     0.000
     In    14      Px                   0.247     0.247     0.000
     In    14      Py                   0.240     0.240    -0.000
     In    14      Pz                   0.239     0.239     0.000
     In    14      S                   -0.264    -0.264    -0.000
     In    15      Dzz                  1.000     1.000     0.000
     In    15      Dzy                  0.998     0.998     0.000
     In    15      Dzx                  0.998     0.998     0.000
     In    15      Dxx-yy               1.000     1.000    -0.000
     In    15      Dxy                  0.998     0.998    -0.000
     In    15      S                    0.713     0.713     0.000
     In    15      Px                   0.242     0.242    -0.000
     In    15      Py                   0.240     0.240    -0.000
     In    15      Pz                   0.240     0.240    -0.000
     In    15      S                   -0.268    -0.268     0.000
     In    16      Dzz                  1.000     1.000     0.000
     In    16      Dzy                  0.998     0.998     0.000
     In    16      Dzx                  0.998     0.998    -0.000
     In    16      Dxx-yy               1.000     1.000     0.000
     In    16      Dxy                  0.998     0.998     0.000
     In    16      S                    0.715     0.715     0.000
     In    16      Px                   0.247     0.247    -0.000
     In    16      Py                   0.239     0.239     0.000
     In    16      Pz                   0.240     0.240    -0.000
     In    16      S                   -0.264    -0.264     0.000
     In    17      Dzz                  1.000     1.000    -0.000
     In    17      Dzy                  0.998     0.998     0.000
     In    17      Dzx                  0.999     0.999     0.000
     In    17      Dxx-yy               1.000     1.000    -0.000
     In    17      Dxy                  0.999     0.999     0.000
     In    17      S                    0.709     0.709    -0.000
     In    17      Px                   0.229     0.229     0.000
     In    17      Py                   0.242     0.242     0.000
     In    17      Pz                   0.242     0.242     0.000
     In    17      S                   -0.249    -0.249     0.000
     In    18      Dzz                  1.000     1.000    -0.000
     In    18      Dzy                  0.998     0.998     0.000
     In    18      Dzx                  0.998     0.998    -0.000
     In    18      Dxx-yy               1.000     1.000    -0.000
     In    18      Dxy                  0.998     0.998     0.000
     In    18      S                    0.712     0.712     0.000
     In    18      Px                   0.239     0.239     0.000
     In    18      Py                   0.243     0.243    -0.000
     In    18      Pz                   0.241     0.241    -0.000
     In    18      S                   -0.269    -0.269     0.000
     In    19      Dzz                  0.999     0.999     0.000
     In    19      Dzy                  0.998     0.998     0.000
     In    19      Dzx                  0.998     0.998    -0.000
     In    19      Dxx-yy               0.999     0.999    -0.000
     In    19      Dxy                  0.998     0.998     0.000
     In    19      S                    0.737     0.737    -0.000
     In    19      Px                   0.241     0.241    -0.000
     In    19      Py                   0.248     0.248    -0.000
     In    19      Pz                   0.248     0.248    -0.000
     In    19      S                   -0.280    -0.280     0.000
     In    20      Dzz                  1.000     1.000    -0.000
     In    20      Dzy                  0.998     0.998     0.000
     In    20      Dzx                  0.998     0.998    -0.000
     In    20      Dxx-yy               1.000     1.000     0.000
     In    20      Dxy                  0.998     0.998    -0.000
     In    20      S                    0.712     0.712    -0.000
     In    20      Px                   0.239     0.239     0.000
     In    20      Py                   0.241     0.241     0.000
     In    20      Pz                   0.243     0.243     0.000
     In    20      S                   -0.269    -0.269    -0.000
     In    21      Dzz                  1.000     1.000     0.000
     In    21      Dzy                  0.998     0.998    -0.000
     In    21      Dzx                  0.998     0.998    -0.000
     In    21      Dxx-yy               1.000     1.000     0.000
     In    21      Dxy                  0.998     0.998     0.000
     In    21      S                    0.715     0.715     0.000
     In    21      Px                   0.239     0.239     0.000
     In    21      Py                   0.247     0.247    -0.000
     In    21      Pz                   0.240     0.240    -0.000
     In    21      S                   -0.264    -0.264     0.000
     In    22      Dzz                  1.000     1.000     0.000
     In    22      Dzy                  0.998     0.998    -0.000
     In    22      Dzx                  0.998     0.998    -0.000
     In    22      Dxx-yy               1.000     1.000     0.000
     In    22      Dxy                  0.998     0.998     0.000
     In    22      S                    0.715     0.715     0.000
     In    22      Px                   0.240     0.240    -0.000
     In    22      Py                   0.247     0.247    -0.000
     In    22      Pz                   0.239     0.239     0.000
     In    22      S                   -0.264    -0.264     0.000
     In    23      Dzz                  1.000     1.000     0.000
     In    23      Dzy                  0.998     0.998     0.000
     In    23      Dzx                  0.998     0.998     0.000
     In    23      Dxx-yy               1.000     1.000    -0.000
     In    23      Dxy                  0.998     0.998     0.000
     In    23      S                    0.713     0.713     0.000
     In    23      Px                   0.240     0.240    -0.000
     In    23      Py                   0.242     0.242     0.000
     In    23      Pz                   0.240     0.240     0.000
     In    23      S                   -0.268    -0.268    -0.000
     In    24      Dzz                  1.000     1.000    -0.000
     In    24      Dzy                  0.998     0.998     0.000
     In    24      Dzx                  0.998     0.998     0.000
     In    24      Dxx-yy               1.000     1.000     0.000
     In    24      Dxy                  0.998     0.998     0.000
     In    24      S                    0.710     0.710     0.000
     In    24      Px                   0.241     0.241     0.000
     In    24      Py                   0.246     0.246     0.000
     In    24      Pz                   0.241     0.241     0.000
     In    24      S                   -0.261    -0.261    -0.000
     In    25      Dzz                  1.000     1.000    -0.000
     In    25      Dzy                  0.998     0.998    -0.000
     In    25      Dzx                  0.998     0.998     0.000
     In    25      Dxx-yy               1.000     1.000     0.000
     In    25      Dxy                  0.998     0.998     0.000
     In    25      S                    0.715     0.715     0.000
     In    25      Px                   0.239     0.239     0.000
     In    25      Py                   0.240     0.240     0.000
     In    25      Pz                   0.247     0.247    -0.000
     In    25      S                   -0.264    -0.264     0.000
     In    26      Dzz                  1.000     1.000     0.000
     In    26      Dzy                  0.998     0.998     0.000
     In    26      Dzx                  0.998     0.998     0.000
     In    26      Dxx-yy               1.000     1.000    -0.000
     In    26      Dxy                  0.998     0.998     0.000
     In    26      S                    0.710     0.710     0.000
     In    26      Px                   0.241     0.241    -0.000
     In    26      Py                   0.241     0.241    -0.000
     In    26      Pz                   0.246     0.246     0.000
     In    26      S                   -0.261    -0.261    -0.000
     In    27      Dzz                  1.000     1.000     0.000
     In    27      Dzy                  0.998     0.998     0.000
     In    27      Dzx                  0.998     0.998     0.000
     In    27      Dxx-yy               1.000     1.000     0.000
     In    27      Dxy                  0.998     0.998     0.000
     In    27      S                    0.713     0.713     0.000
     In    27      Px                   0.240     0.240    -0.000
     In    27      Py                   0.240     0.240    -0.000
     In    27      Pz                   0.242     0.242     0.000
     In    27      S                   -0.268    -0.268     0.000
     In    28      Dzz                  1.000     1.000     0.000
     In    28      Dzy                  0.998     0.998     0.000
     In    28      Dzx                  0.998     0.998    -0.000
     In    28      Dxx-yy               1.000     1.000     0.000
     In    28      Dxy                  0.998     0.998     0.000
     In    28      S                    0.715     0.715    -0.000
     In    28      Px                   0.240     0.240    -0.000
     In    28      Py                   0.239     0.239     0.000
     In    28      Pz                   0.247     0.247    -0.000
     In    28      S                   -0.264    -0.264     0.000
     In    29      Dzz                  1.000     1.000    -0.000
     In    29      Dzy                  0.998     0.998     0.000
     In    29      Dzx                  0.998     0.998     0.000
     In    29      Dxx-yy               1.000     1.000    -0.000
     In    29      Dxy                  0.998     0.998     0.000
     In    29      S                    0.711     0.711    -0.000
     In    29      Px                   0.244     0.244    -0.000
     In    29      Py                   0.241     0.241     0.000
     In    29      Pz                   0.241     0.241    -0.000
     In    29      S                   -0.265    -0.265    -0.000
     In    30      Dzz                  1.000     1.000    -0.000
     In    30      Dzy                  0.998     0.998     0.000
     In    30      Dzx                  0.998     0.998     0.000
     In    30      Dxx-yy               1.000     1.000    -0.000
     In    30      Dxy                  0.998     0.998     0.000
     In    30      S                    0.711     0.711    -0.000
     In    30      Px                   0.241     0.241    -0.000
     In    30      Py                   0.241     0.241     0.000
     In    30      Pz                   0.244     0.244    -0.000
     In    30      S                   -0.265    -0.265    -0.000
     In    31      Dzz                  1.000     1.000     0.000
     In    31      Dzy                  0.998     0.998     0.000
     In    31      Dzx                  0.998     0.998     0.000
     In    31      Dxx-yy               1.000     1.000     0.000
     In    31      Dxy                  0.998     0.998     0.000
     In    31      S                    0.745     0.745    -0.000
     In    31      Px                   0.241     0.241    -0.000
     In    31      Py                   0.241     0.241    -0.000
     In    31      Pz                   0.241     0.241    -0.000
     In    31      S                   -0.271    -0.271    -0.000
     In    32      Dzz                  1.000     1.000    -0.000
     In    32      Dzy                  0.998     0.998     0.000
     In    32      Dzx                  0.998     0.998     0.000
     In    32      Dxx-yy               1.000     1.000    -0.000
     In    32      Dxy                  0.998     0.998     0.000
     In    32      S                    0.711     0.711    -0.000
     In    32      Px                   0.241     0.241     0.000
     In    32      Py                   0.244     0.244    -0.000
     In    32      Pz                   0.241     0.241    -0.000
     In    32      S                   -0.265    -0.265     0.000
     In    33      Dzz                  0.998     0.998     0.000
     In    33      Dzy                  0.998     0.998    -0.000
     In    33      Dzx                  0.998     0.998     0.000
     In    33      Dxx-yy               0.998     0.998    -0.000
     In    33      Dxy                  0.998     0.998     0.000
     In    33      S                    0.659     0.659    -0.000
     In    33      Px                   0.231     0.231    -0.000
     In    33      Py                   0.231     0.231    -0.000
     In    33      Pz                   0.231     0.231    -0.000
     In    33      S                    0.032     0.032    -0.000
  ---------------------------------------------------------------
                           Total:     294.500   294.500    -0.000
  ---------------------------------------------------------------

     Atomic Populations (Mulliken)
     -----------------------------
Species          Ion Spin      s       p       d       f      Total   Charge(e)   Spin(hbar/2)
==============================================================================================
  P               1   up:     0.869   1.963   0.000   0.000   2.832    -0.665        0.000
                  1   dn:     0.869   1.963   0.000   0.000   2.832
  P               2   up:     0.887   1.924   0.000   0.000   2.812    -0.624        0.000
                  2   dn:     0.887   1.924   0.000   0.000   2.812
  P               3   up:     0.869   1.963   0.000   0.000   2.832    -0.665       -0.000
                  3   dn:     0.869   1.963   0.000   0.000   2.832
  P               4   up:     0.867   1.969   0.000   0.000   2.836    -0.672       -0.000
                  4   dn:     0.867   1.969   0.000   0.000   2.836
  P               5   up:     0.887   1.924   0.000   0.000   2.812    -0.623       -0.000
                  5   dn:     0.887   1.924   0.000   0.000   2.812
  P               6   up:     0.868   1.968   0.000   0.000   2.836    -0.672        0.000
                  6   dn:     0.868   1.968   0.000   0.000   2.836
  P               7   up:     0.867   1.969   0.000   0.000   2.835    -0.671        0.000
                  7   dn:     0.867   1.968   0.000   0.000   2.835
  P               8   up:     0.869   1.966   0.000   0.000   2.835    -0.671       -0.000
                  8   dn:     0.869   1.966   0.000   0.000   2.835
  P               9   up:     0.867   1.968   0.000   0.000   2.835    -0.671        0.000
                  9   dn:     0.867   1.968   0.000   0.000   2.835
  P              10   up:     0.868   1.968   0.000   0.000   2.836    -0.672        0.000
                 10   dn:     0.868   1.968   0.000   0.000   2.836
  P              11   up:     0.887   1.924   0.000   0.000   2.812    -0.624       -0.000
                 11   dn:     0.887   1.924   0.000   0.000   2.812
  P              12   up:     0.869   1.966   0.000   0.000   2.835    -0.671        0.000
                 12   dn:     0.869   1.966   0.000   0.000   2.835
  P              13   up:     0.868   1.968   0.000   0.000   2.836    -0.672        0.000
                 13   dn:     0.868   1.968   0.000   0.000   2.836
  P              14   up:     0.867   1.969   0.000   0.000   2.836    -0.672        0.000
                 14   dn:     0.867   1.969   0.000   0.000   2.836
  P              15   up:     0.868   1.968   0.000   0.000   2.836    -0.672        0.000
                 15   dn:     0.868   1.968   0.000   0.000   2.836
  P              16   up:     0.874   1.947   0.000   0.000   2.821    -0.643        0.000
                 16   dn:     0.874   1.947   0.000   0.000   2.821
  P              17   up:     0.867   1.968   0.000   0.000   2.835    -0.671        0.000
                 17   dn:     0.867   1.968   0.000   0.000   2.835
  P              18   up:     0.869   1.963   0.000   0.000   2.832    -0.665        0.000
                 18   dn:     0.869   1.963   0.000   0.000   2.832
  P              19   up:     0.867   1.968   0.000   0.000   2.835    -0.671        0.000
                 19   dn:     0.867   1.968   0.000   0.000   2.835
  P              20   up:     0.868   1.967   0.000   0.000   2.835    -0.670        0.000
                 20   dn:     0.868   1.967   0.000   0.000   2.835
  P              21   up:     0.868   1.968   0.000   0.000   2.836    -0.672        0.000
                 21   dn:     0.868   1.968   0.000   0.000   2.836
  P              22   up:     0.867   1.968   0.000   0.000   2.835    -0.671        0.000
                 22   dn:     0.867   1.968   0.000   0.000   2.835
  P              23   up:     0.868   1.968   0.000   0.000   2.836    -0.672        0.000
                 23   dn:     0.868   1.968   0.000   0.000   2.836
  P              24   up:     0.867   1.969   0.000   0.000   2.836    -0.672        0.000
                 24   dn:     0.867   1.969   0.000   0.000   2.836
  P              25   up:     0.868   1.968   0.000   0.000   2.836    -0.672        0.000
                 25   dn:     0.868   1.968   0.000   0.000   2.836
  P              26   up:     0.867   1.968   0.000   0.000   2.835    -0.671        0.000
                 26   dn:     0.867   1.968   0.000   0.000   2.835
  P              27   up:     0.868   1.968   0.000   0.000   2.836    -0.672        0.000
                 27   dn:     0.868   1.968   0.000   0.000   2.836
  P              28   up:     0.867   1.969   0.000   0.000   2.836    -0.672        0.000
                 28   dn:     0.867   1.969   0.000   0.000   2.836
  P              29   up:     0.867   1.969   0.000   0.000   2.836    -0.672        0.000
                 29   dn:     0.867   1.969   0.000   0.000   2.836
  P              30   up:     0.868   1.968   0.000   0.000   2.836    -0.672        0.000
                 30   dn:     0.868   1.968   0.000   0.000   2.836
  P              31   up:     0.867   1.969   0.000   0.000   2.836    -0.672        0.000
                 31   dn:     0.867   1.969   0.000   0.000   2.836
  P              32   up:     0.869   1.966   0.000   0.000   2.835    -0.671       -0.000
                 32   dn:     0.869   1.966   0.000   0.000   2.835
  In              1   up:     0.493   0.705   4.994   0.000   6.192     0.617        0.000
                  1   dn:     0.492   0.705   4.994   0.000   6.192
  In              2   up:     0.492   0.705   4.994   0.000   6.192     0.617       -0.000
                  2   dn:     0.492   0.705   4.994   0.000   6.192
  In              3   up:     0.435   0.720   4.995   0.000   6.149     0.702       -0.000
                  3   dn:     0.435   0.720   4.995   0.000   6.149
  In              4   up:     0.492   0.705   4.994   0.000   6.192     0.617       -0.000
                  4   dn:     0.492   0.705   4.994   0.000   6.192
  In              5   up:     0.444   0.723   4.994   0.000   6.162     0.677        0.000
                  5   dn:     0.444   0.723   4.994   0.000   6.161
  In              6   up:     0.460   0.714   4.995   0.000   6.169     0.663       -0.000
                  6   dn:     0.460   0.714   4.995   0.000   6.169
  In              7   up:     0.457   0.737   4.994   0.000   6.187     0.625       -0.000
                  7   dn:     0.457   0.737   4.994   0.000   6.187
  In              8   up:     0.444   0.723   4.994   0.000   6.161     0.677        0.000
                  8   dn:     0.444   0.723   4.994   0.000   6.161
  In              9   up:     0.444   0.723   4.994   0.000   6.162     0.677        0.000
                  9   dn:     0.444   0.723   4.994   0.000   6.161
  In             10   up:     0.444   0.723   4.994   0.000   6.161     0.677        0.000
                 10   dn:     0.444   0.723   4.994   0.000   6.161
  In             11   up:     0.457   0.737   4.994   0.000   6.187     0.625       -0.000
                 11   dn:     0.457   0.737   4.994   0.000   6.187
  In             12   up:     0.460   0.714   4.995   0.000   6.169     0.663       -0.000
                 12   dn:     0.460   0.714   4.995   0.000   6.169
  In             13   up:     0.449   0.728   4.994   0.000   6.172     0.657        0.000
                 13   dn:     0.449   0.728   4.994   0.000   6.172
  In             14   up:     0.452   0.725   4.994   0.000   6.171     0.658        0.000
                 14   dn:     0.452   0.725   4.994   0.000   6.171
  In             15   up:     0.445   0.721   4.994   0.000   6.161     0.679        0.000
                 15   dn:     0.445   0.721   4.994   0.000   6.161
  In             16   up:     0.452   0.725   4.994   0.000   6.171     0.658        0.000
                 16   dn:     0.452   0.725   4.994   0.000   6.171
  In             17   up:     0.460   0.714   4.995   0.000   6.169     0.663        0.000
                 17   dn:     0.460   0.714   4.995   0.000   6.169
  In             18   up:     0.444   0.723   4.994   0.000   6.161     0.677       -0.000
                 18   dn:     0.444   0.723   4.994   0.000   6.161
  In             19   up:     0.457   0.737   4.994   0.000   6.187     0.625       -0.000
                 19   dn:     0.457   0.737   4.994   0.000   6.187
  In             20   up:     0.444   0.723   4.994   0.000   6.161     0.677       -0.000
                 20   dn:     0.444   0.723   4.994   0.000   6.161
  In             21   up:     0.452   0.725   4.994   0.000   6.171     0.658        0.000
                 21   dn:     0.452   0.725   4.994   0.000   6.171
  In             22   up:     0.452   0.725   4.994   0.000   6.171     0.658        0.000
                 22   dn:     0.452   0.725   4.994   0.000   6.171
  In             23   up:     0.445   0.721   4.994   0.000   6.161     0.679        0.000
                 23   dn:     0.445   0.721   4.994   0.000   6.161
  In             24   up:     0.449   0.728   4.994   0.000   6.172     0.657        0.000
                 24   dn:     0.449   0.728   4.994   0.000   6.172
  In             25   up:     0.452   0.725   4.994   0.000   6.171     0.658        0.000
                 25   dn:     0.452   0.725   4.994   0.000   6.171
  In             26   up:     0.449   0.728   4.994   0.000   6.172     0.657        0.000
                 26   dn:     0.449   0.728   4.994   0.000   6.172
  In             27   up:     0.445   0.721   4.994   0.000   6.161     0.679        0.000
                 27   dn:     0.445   0.721   4.994   0.000   6.161
  In             28   up:     0.452   0.725   4.994   0.000   6.171     0.658        0.000
                 28   dn:     0.452   0.725   4.994   0.000   6.171
  In             29   up:     0.446   0.726   4.994   0.000   6.167     0.665       -0.000
                 29   dn:     0.447   0.726   4.994   0.000   6.168
  In             30   up:     0.446   0.726   4.994   0.000   6.167     0.665       -0.000
                 30   dn:     0.446   0.726   4.994   0.000   6.167
  In             31   up:     0.474   0.722   4.994   0.000   6.190     0.620       -0.000
                 31   dn:     0.474   0.722   4.994   0.000   6.190
  In             32   up:     0.446   0.726   4.994   0.000   6.167     0.665       -0.000
                 32   dn:     0.447   0.727   4.994   0.000   6.167
  In             33   up:     0.691   0.693   4.992   0.000   6.376     0.247       -0.000
                 33   dn:     0.692   0.693   4.992   0.000   6.377
==============================================================================================

                 Bond                   Population        Spin       Length (A)
================================================================================
              P 32 -- In 1                   0.78         0.00          2.48199
              P 12 -- In 2                   0.78         0.00          2.48199
              P 8  -- In 4                   0.78         0.00          2.48199
              P 31 -- In 21                  0.67         0.00          2.52544
              P 29 -- In 28                  0.67         0.00          2.52544
              P 29 -- In 25                  0.67         0.00          2.52544
              P 14 -- In 16                  0.67         0.00          2.52544
              P 31 -- In 22                  0.67         0.00          2.52544
              P 14 -- In 14                  0.67         0.00          2.52544
              P 18 -- In 1                   0.69         0.00          2.52576
              P 3  -- In 4                   0.69         0.00          2.52576
              P 1  -- In 2                   0.69         0.00          2.52576
              P 9  -- In 11                  0.61        -0.00          2.53529
              P 7  -- In 7                   0.61        -0.00          2.53529
              P 26 -- In 11                  0.61        -0.00          2.53530
              P 22 -- In 7                   0.61         0.00          2.53530
              P 17 -- In 19                  0.61        -0.00          2.53530
              P 19 -- In 19                  0.61        -0.00          2.53530
              P 4  -- In 19                  0.64        -0.00          2.53596
              P 24 -- In 7                   0.64        -0.00          2.53596
              P 28 -- In 11                  0.64        -0.00          2.53596
              P 2  -- In 19                  0.52         0.00          2.54066
              P 5  -- In 7                   0.52         0.00          2.54067
              P 11 -- In 11                  0.52         0.00          2.54067
              P 19 -- In 26                  0.65         0.00          2.54158
              P 17 -- In 24                  0.65         0.00          2.54158
              P 26 -- In 26                  0.65         0.00          2.54158
              P 22 -- In 24                  0.65        -0.00          2.54158
              P 9  -- In 13                  0.65         0.00          2.54158
              P 7  -- In 13                  0.65         0.00          2.54158
              P 26 -- In 28                  0.67        -0.00          2.54220
              P 7  -- In 14                  0.67        -0.00          2.54220
              P 22 -- In 22                  0.67         0.00          2.54220
              P 9  -- In 16                  0.67        -0.00          2.54220
              P 19 -- In 25                  0.67         0.00          2.54220
              P 17 -- In 21                  0.67         0.00          2.54220
              P 20 -- In 13                  0.66        -0.00          2.54325
              P 20 -- In 26                  0.66        -0.00          2.54325
              P 20 -- In 24                  0.66        -0.00          2.54325
              P 17 -- In 18                  0.67        -0.00          2.54491
              P 19 -- In 20                  0.67        -0.00          2.54491
              P 26 -- In 9                   0.67         0.00          2.54491
              P 22 -- In 5                   0.67        -0.00          2.54491
              P 9  -- In 10                  0.67        -0.00          2.54491
              P 7  -- In 8                   0.67        -0.00          2.54491
              P 30 -- In 15                  0.67        -0.00          2.54650
              P 23 -- In 23                  0.67        -0.00          2.54650
              P 25 -- In 27                  0.67        -0.00          2.54650
              P 27 -- In 17                  0.66         0.00          2.54652
              P 13 -- In 12                  0.66        -0.00          2.54652
              P 10 -- In 12                  0.66        -0.00          2.54652
              P 21 -- In 17                  0.66         0.00          2.54652
              P 15 -- In 6                   0.66        -0.00          2.54652
              P 6  -- In 6                   0.66         0.00          2.54652
              P 27 -- In 27                  0.66         0.00          2.54656
              P 15 -- In 15                  0.66         0.00          2.54656
              P 6  -- In 23                  0.66         0.00          2.54656
              P 21 -- In 23                  0.66         0.00          2.54656
              P 10 -- In 27                  0.66         0.00          2.54656
              P 13 -- In 15                  0.66         0.00          2.54656
              P 32 -- In 15                  0.65         0.00          2.54663
              P 8  -- In 23                  0.65         0.00          2.54663
              P 12 -- In 27                  0.65         0.00          2.54663
              P 24 -- In 30                  0.65         0.00          2.54784
              P 4  -- In 29                  0.65         0.00          2.54784
              P 28 -- In 32                  0.65        -0.00          2.54784
              P 15 -- In 16                  0.64        -0.00          2.54928
              P 27 -- In 28                  0.64        -0.00          2.54928
              P 13 -- In 14                  0.64         0.00          2.54928
              P 10 -- In 25                  0.64        -0.00          2.54928
              P 6  -- In 21                  0.64        -0.00          2.54928
              P 21 -- In 22                  0.64        -0.00          2.54928
              P 32 -- In 22                  0.60        -0.00          2.54962
              P 12 -- In 21                  0.60         0.00          2.54962
              P 8  -- In 14                  0.60         0.00          2.54962
              P 8  -- In 25                  0.60        -0.00          2.54962
              P 32 -- In 28                  0.60         0.00          2.54962
              P 12 -- In 16                  0.60         0.00          2.54962
              P 1  -- In 5                   0.64        -0.00          2.54985
              P 18 -- In 20                  0.64         0.00          2.54985
              P 18 -- In 18                  0.64        -0.00          2.54985
              P 3  -- In 9                   0.64        -0.00          2.54985
              P 1  -- In 8                   0.64        -0.00          2.54986
              P 3  -- In 10                  0.64        -0.00          2.54986
              P 30 -- In 32                  0.65        -0.00          2.54993
              P 30 -- In 30                  0.65        -0.00          2.54993
              P 25 -- In 32                  0.65        -0.00          2.54993
              P 23 -- In 30                  0.65        -0.00          2.54993
              P 23 -- In 29                  0.65         0.00          2.54993
              P 25 -- In 29                  0.65         0.00          2.54993
              P 6  -- In 8                   0.65         0.00          2.55017
              P 21 -- In 20                  0.65         0.00          2.55017
              P 10 -- In 10                  0.65        -0.00          2.55017
              P 27 -- In 18                  0.65         0.00          2.55017
              P 15 -- In 5                   0.65         0.00          2.55017
              P 13 -- In 9                   0.65         0.00          2.55017
              P 28 -- In 18                  0.66         0.00          2.55029
              P 28 -- In 5                   0.66        -0.00          2.55029
              P 4  -- In 10                  0.66         0.00          2.55029
              P 4  -- In 8                   0.66         0.00          2.55029
              P 24 -- In 9                   0.66         0.00          2.55029
              P 24 -- In 20                  0.66        -0.00          2.55029
              P 23 -- In 24                  0.65         0.00          2.55116
              P 25 -- In 26                  0.65         0.00          2.55116
              P 30 -- In 13                  0.65         0.00          2.55116
              P 14 -- In 29                  0.67         0.00          2.55227
              P 31 -- In 32                  0.67        -0.00          2.55228
              P 29 -- In 30                  0.67        -0.00          2.55228
              P 14 -- In 31                  0.60        -0.00          2.55566
              P 31 -- In 31                  0.60        -0.00          2.55566
              P 29 -- In 31                  0.60        -0.00          2.55566
              P 18 -- In 3                   0.66         0.00          2.56020
              P 1  -- In 3                   0.66         0.00          2.56020
              P 3  -- In 3                   0.66         0.00          2.56020
              P 20 -- In 3                   0.63        -0.00          2.57130
              P 11 -- In 12                  0.59        -0.00          2.57798
              P 5  -- In 6                   0.59         0.00          2.57798
              P 2  -- In 17                  0.59         0.00          2.57798
              P 16 -- In 6                   0.60         0.00          2.58686
              P 16 -- In 12                  0.60         0.00          2.58686
              P 16 -- In 17                  0.60         0.00          2.58686
              P 11 -- In 33                  0.39        -0.00          2.59368
              P 5  -- In 33                  0.39        -0.00          2.59368
              P 2  -- In 33                  0.39        -0.00          2.59368
              P 16 -- In 31                  0.51         0.00          2.59774
              P 11 -- In 2                   0.33        -0.00          2.78672
              P 5  -- In 4                   0.33        -0.00          2.78672
              P 2  -- In 4                   0.33        -0.00          2.78672
              P 2  -- In 2                   0.33         0.00          2.78672
              P 11 -- In 1                   0.33         0.00          2.78672
              P 5  -- In 1                   0.33         0.00          2.78672
             In 4  -- In 33                 -0.64        -0.00          2.92000
             In 2  -- In 33                 -0.64        -0.00          2.92000
             In 1  -- In 33                 -0.64        -0.00          2.92000
================================================================================

 Hirshfeld supercell size:           2           2           2
Standard grid dimensions: 240 240 240
Fine grid dimensions:     240 240 240


     Hirshfeld Analysis
     ------------------
Species   Ion     Hirshfeld Charge (e)  Spin (hbar/2)
===================================================
  P        1                -0.23        0.00
  P        2                -0.24       -0.00
  P        3                -0.23        0.00
  P        4                -0.24        0.00
  P        5                -0.24       -0.00
  P        6                -0.24        0.00
  P        7                -0.24        0.00
  P        8                -0.23       -0.00
  P        9                -0.24        0.00
  P       10                -0.24        0.00
  P       11                -0.24       -0.00
  P       12                -0.23       -0.00
  P       13                -0.24        0.00
  P       14                -0.24       -0.00
  P       15                -0.24        0.00
  P       16                -0.24       -0.00
  P       17                -0.24        0.00
  P       18                -0.23        0.00
  P       19                -0.24        0.00
  P       20                -0.24        0.00
  P       21                -0.24        0.00
  P       22                -0.24        0.00
  P       23                -0.24       -0.00
  P       24                -0.24        0.00
  P       25                -0.24       -0.00
  P       26                -0.24        0.00
  P       27                -0.24        0.00
  P       28                -0.24        0.00
  P       29                -0.24       -0.00
  P       30                -0.24       -0.00
  P       31                -0.24       -0.00
  P       32                -0.23       -0.00
  In       1                 0.24       -0.00
  In       2                 0.24       -0.00
  In       3                 0.25        0.00
  In       4                 0.24       -0.00
  In       5                 0.24        0.00
  In       6                 0.23        0.00
  In       7                 0.21        0.00
  In       8                 0.24        0.00
  In       9                 0.24        0.00
  In      10                 0.24        0.00
  In      11                 0.21        0.00
  In      12                 0.23        0.00
  In      13                 0.23       -0.00
  In      14                 0.24        0.00
  In      15                 0.24       -0.00
  In      16                 0.24        0.00
  In      17                 0.23        0.00
  In      18                 0.24        0.00
  In      19                 0.21        0.00
  In      20                 0.24        0.00
  In      21                 0.24        0.00
  In      22                 0.24        0.00
  In      23                 0.24       -0.00
  In      24                 0.23       -0.00
  In      25                 0.24        0.00
  In      26                 0.23       -0.00
  In      27                 0.24       -0.00
  In      28                 0.24        0.00
  In      29                 0.24       -0.00
  In      30                 0.24       -0.00
  In      31                 0.23       -0.00
  In      32                 0.24       -0.00
  In      33                 0.09       -0.00
===================================================

 
 A BibTeX formatted list of references used in this run has been written to 
 In_Interstitial_Migration_Tetra_Octa_Singlepoints_5.bib
 
Initialisation time =     30.11 s
Calculation time    =   8435.70 s
Finalisation time   =    158.70 s
Total time          =   8624.51 s
Peak Memory Use     = 9634660 kB
 
Overall parallel efficiency rating: Terrible (34%)
 
Data was distributed by:-
G-vector (3-way); efficiency rating: Poor (37%)
k-point (36-way); efficiency rating: Very good (84%)
