 +-------------------------------------------------+
 |                                                 |
 |      CCC   AA    SSS  TTTTT  EEEEE  PPPP        |
 |     C     A  A  S       T    E      P   P       |
 |     C     AAAA   SS     T    EEE    PPPP        |
 |     C     A  A     S    T    E      P           |
 |      CCC  A  A  SSS     T    EEEEE  P           |
 |                                                 |
 +-------------------------------------------------+
 |                                                 |
 | Welcome to Academic Release CASTEP version 20.11|          
 | Ab Initio Total Energy Program                  |
 |                                                 |
 | Authors:                                        |
 | M. Segall, M. Probert, C. Pickard, P. Hasnip,   |
 | S. Clark, K. Refson, J. R. Yates, M. Payne      |
 |                                                 |
 | Contributors:                                   |
 | P. Lindan, P. Haynes, J. White, V. Milman,      |
 | N. Govind, M. Gibson, P. Tulip, V. Cocula,      |
 | B. Montanari, D. Quigley, M. Glover,            |
 | L. Bernasconi, A. Perlov, M. Plummer,           |
 | E. McNellis, J. Meyer, J. Gale, D. Jochym       |
 | J. Aarons, B. Walker, R. Gillen, D. Jones       |
 | T. Green, I. J. Bush, C. J. Armstrong,          |
 | E. J. Higgins, E. L. Brown, M. S. McFly,        |
 | J. Wilkins, B-C. Shih, P. J. P. Byrne,          |
 | R. J. Maurer, J. C. Womack, J. Dziedzic,        |
 | J. R. Kermode, A. Bartok-Partay                 |
 |                                                 |
 | Copyright (c) 2000 - 2020                       |
 |                                                 |
 |     Distributed under license from Cambridge    |
 |     Enterprise for academic use only.           |
 |                                                 |
 | Please cite                                     |
 |                                                 |
 |     "First principles methods using CASTEP"     |
 |                                                 |
 |         Zeitschrift fuer Kristallographie       |
 |           220(5-6) pp. 567-570 (2005)           |
 |                                                 |
 | S. J. Clark, M. D. Segall, C. J. Pickard,       |
 | P. J. Hasnip, M. J. Probert, K. Refson,         |
 | M. C. Payne                                     |
 |                                                 |
 |       in all publications arising from          |
 |              your use of CASTEP                 |
 |                                                 |
 +-------------------------------------------------+
 |                                                 |
 |              http://www.castep.org              |
 |                                                 |
 +-------------------------------------------------+
 
 
 
 Compiled for linux_x86_64_ifort on Wed, 25 Aug 2021 18:50:38 +0100
 from code version e772bf432+  HEAD  Sat Apr 3 17:41:32 2021 +0100
 Compiler: Intel Fortran 19.0.5.281; Optimisation: fast
 MATHLIBS: Intel MKL(2019.0.5) (LAPACK version 3.7.0)
 FFT Lib : mkl
 Fundamental constants values: CODATA 2014
 
 Run started: Thu, 15 Dec 2022 14:00:01 +0000
 
 Atomic calculation performed for P: 1s2 2s2 2p6 3s2 3p3
 
 Exceeded max iterations: converged to -0.000003405 eV
 The ae energy is -9309.074 eV
 
   ============================================================                
   | Pseudopotential Report - Date of generation 15-12-2022   |                
   ------------------------------------------------------------                
   | Element: P Ionic charge:  5.00 Level of theory: RSCAN    |                
   | Atomic Solver: Koelling-Harmon                           |                
   |                                                          |                
   |               Reference Electronic Structure             |                
   |         Orbital         Occupation         Energy        |                
   |            3s              2.000           -0.535        |                
   |            3p              3.000           -0.209        |                
   |                                                          |                
   |                 Pseudopotential Definition               |                
   |        Beta     l      e      Rc     scheme   norm       |                
   |          1      0   -0.535   1.807     qc      0         |                
   |          2      0    0.250   1.807     qc      0         |                
   |          3      1   -0.209   1.807     qc      0         |                
   |          4      1    0.250   1.807     qc      0         |                
   |          5      2    0.000   1.807     qc      0         |                
   |          6      2    0.250   1.807     qc      0         |                
   |         loc     3    0.000   1.807     pn      0         |                
   |                                                          |                
   | Augmentation charge Rinner = 1.263                       |                
   | Partial core correction Rc = 1.263                       |                
   ------------------------------------------------------------                
   | "3|1.8|4|4|5|30:31:32"                                   |                
   ------------------------------------------------------------                
   |      Author: Chris J. Pickard, Cambridge University      |                
   ============================================================                
 Warning: ion_atom_output_psp cannot write out meta-GGA pseudopotentials present
 ly.
 
 Atomic calculation performed for In:
 1s2 2s2 2p6 3s2 3p6 3d10 4s2 4p6 4d10 5s2 5p1
 
 Exceeded max iterations: converged to -0.000725459 eV
 The ae energy is -160093.321 eV
 
   ============================================================                
   | Pseudopotential Report - Date of generation 15-12-2022   |                
   ------------------------------------------------------------                
   | Element: In Ionic charge: 13.00 Level of theory: RSCAN   |                
   | Atomic Solver: Koelling-Harmon                           |                
   |                                                          |                
   |               Reference Electronic Structure             |                
   |         Orbital         Occupation         Energy        |                
   |            4d             10.000           -0.711        |                
   |            5s              2.000           -0.313        |                
   |            5p              1.000           -0.095        |                
   |                                                          |                
   |                 Pseudopotential Definition               |                
   |        Beta     l      e      Rc     scheme   norm       |                
   |          1      0   -0.313   2.501     qc      0         |                
   |          2      0    0.250   2.501     qc      0         |                
   |          3      1   -0.095   2.501     qc      0         |                
   |          4      1    0.250   2.501     qc      0         |                
   |          5      2   -0.711   2.207     qc      0         |                
   |          6      2    0.250   2.207     qc      0         |                
   |         loc     3    0.000   2.501     pn      0         |                
   |                                                          |                
   | Augmentation charge Rinner = 1.504                       |                
   | Partial core correction Rc = 1.504                       |                
   ------------------------------------------------------------                
   | "3|2.5|2.5|1.5|7|8|9|50:51:42U2.2U2.2"                   |                
   ------------------------------------------------------------                
   |      Author: Chris J. Pickard, Cambridge University      |                
   ============================================================                
 Warning: ion_atom_output_psp cannot write out meta-GGA pseudopotentials present
 ly.
 
 Pseudo atomic calculation performed for P 3s2 3p3
 
 Converged in 23 iterations to a total energy of -208.0292 eV
 
 Pseudo atomic calculation performed for In 4d10 5s2 5p1
 
 Converged in 42 iterations to a total energy of -1747.4504 eV
 Calculation parallelised over 32 processes.
 Data is distributed by k-point(32-way)

 ************************************ Title ************************************
 

 ***************************** General Parameters ******************************
  
 output verbosity                               : normal  (1)
 write checkpoint data to                       : ZB_EOS_0.7045.check
 type of calculation                            : single point energy
 stress calculation                             : on
 density difference calculation                 : off
 electron localisation func (ELF) calculation   : off
 Hirshfeld analysis                             : off
 molecular orbital projected DOS                : off
 deltaSCF calculation                           : off
 unlimited duration calculation
 timing information                             : on
 memory usage estimate                          : on
 write extra output files                       : on
 write final potential to formatted file        : off
 write final density to formatted file          : off
 write BibTeX reference list                    : on
 write OTFG pseudopotential files               : on
 write electrostatic potential file             : on
 write bands file                               : on
 checkpoint writing                             : off
  
 output         length unit                     : A
 output           mass unit                     : amu
 output           time unit                     : ps
 output         charge unit                     : e
 output           spin unit                     : hbar/2
 output         energy unit                     : eV
 output          force unit                     : eV/A
 output       velocity unit                     : A/ps
 output       pressure unit                     : GPa
 output     inv_length unit                     : 1/A
 output      frequency unit                     : cm-1
 output force constant unit                     : eV/A**2
 output         volume unit                     : A**3
 output   IR intensity unit                     : (D/A)**2/amu
 output         dipole unit                     : D
 output         efield unit                     : eV/A/e
 output        entropy unit                     : J/mol/K
 output    efield chi2 unit                     : pm/V
  
 wavefunctions paging                           : none
 random number generator seed                   : randomised (140001473)
 data distribution                              : optimal for this architecture
 optimization strategy                          : balance speed and memory

 *********************** Exchange-Correlation Parameters ***********************
  
 using functional                               : RSCAN
 relativistic treatment                         : Koelling-Harmon
 DFT+D: Semi-empirical dispersion correction    : off

 ************************* Pseudopotential Parameters **************************
  
 pseudopotential representation                 : reciprocal space
 <beta|phi> representation                      : reciprocal space
 spin-orbit coupling                            : off

 **************************** Basis Set Parameters *****************************
  
 plane wave basis set cut-off                   :   900.0000   eV
 size of standard grid                          :     1.7500
 size of   fine   gmax                          :    26.8966   1/A
 finite basis set correction                    : automatic
 number of sample energies                      :          3
           sample  spacing                      :     5.0000   eV

 **************************** Electronic Parameters ****************************
  
 number of  electrons                           :  72.00    
 net charge of system                           :  0.000    
 treating system as non-spin-polarized
 number of bands                                :         43

 ********************* Electronic Minimization Parameters **********************
  
 Method: Treating system as metallic with density mixing treatment of electrons,
         and number of  SD  steps               :          1
         and number of  CG  steps               :          4
  
 total energy / atom convergence tol.           : 0.1000E-07   eV
 eigen-energy convergence tolerance             : 0.2222E-08   eV
 max force / atom convergence tol.              : ignored
 convergence tolerance window                   :          3   cycles
 max. number of SCF cycles                      :         30
 number of fixed-spin iterations                :         10
 smearing scheme                                : Gaussian
 smearing width                                 : 0.2000       eV
 Fermi energy convergence tolerance             : 0.2721E-13   eV
 periodic dipole correction                     : NONE

 ************************** Density Mixing Parameters **************************
  
 density-mixing scheme                          : Broyden
 max. length of mixing history                  :         20
 charge density mixing amplitude                : 0.8000    
 cut-off energy for mixing                      :  900.0       eV

 *********************** Population Analysis Parameters ************************
  
 Population analysis with cutoff                :  3.000       A
 Population analysis output                     : summary and pdos components

 *******************************************************************************
  
 
                           -------------------------------
                                      Unit Cell
                           -------------------------------
        Real Lattice(A)                      Reciprocal Lattice(1/A)
     4.1572620     0.0000000     0.0000000        1.511375830   0.000000000   0.000000000
     0.0000000     4.1572620     0.0000000        0.000000000   1.511375830   0.000000000
     0.0000000     0.0000000     4.1572620        0.000000000   0.000000000   1.511375830
 
                       Lattice parameters(A)       Cell Angles
                    a =      4.157262          alpha =   90.000000
                    b =      4.157262          beta  =   90.000000
                    c =      4.157262          gamma =   90.000000
 
                       Current cell volume =            71.849241       A**3
                                   density =             8.116537   AMU/A**3
                                           =            13.477827     g/cm^3
 
                           -------------------------------
                                     Cell Contents
                           -------------------------------
                         Total number of ions in cell =    8
                      Total number of species in cell =    2
                        Max number of any one species =    4
 
            xxxxxxxxxxxxxxxxxxxxxxxxxxxxxxxxxxxxxxxxxxxxxxxxxxxxxxxxxxxx
            x  Element    Atom        Fractional coordinates of atoms  x
            x            Number           u          v          w      x
            x----------------------------------------------------------x
            x  P            1         0.250000   0.250000   0.750000   x 
            x  P            2         0.750000   0.250000   0.250000   x 
            x  P            3         0.250000   0.750000   0.250000   x 
            x  P            4         0.750000   0.750000   0.750000   x 
            x  In           1         0.000000   0.000000   0.000000   x 
            x  In           2         0.500000   0.000000   0.500000   x 
            x  In           3         0.000000   0.500000   0.500000   x 
            x  In           4         0.500000   0.500000   0.000000   x 
            xxxxxxxxxxxxxxxxxxxxxxxxxxxxxxxxxxxxxxxxxxxxxxxxxxxxxxxxxxxx
 
 
                         No user defined ionic velocities
 
                           -------------------------------
                                   Details of Species
                           -------------------------------
 
                               Mass of species in AMU
                                    P   30.9737600
                                    In  114.8180000
 
                          Electric Quadrupole Moment (Barn)
                                    P    1.0000000 No Isotope Defined
                                    In    0.7700000 Isotope115
 
                          Files used for pseudopotentials:
                                    P 3|1.8|4|4|5|30:31:32
                                    In 3|2.5|2.5|1.5|7|8|9|50:51:42U2.2U2.2
 
                           -------------------------------
                              k-Points For BZ Sampling
                           -------------------------------
                       MP grid size for SCF calculation is  9  9  9
                            with an offset of   0.056  0.056  0.056
                       Number of kpoints used =           365
 
                           -------------------------------
                               Symmetry and Constraints
                           -------------------------------
 
                      Cell is a supercell containing 4 primitive cells
                      Maximum deviation from symmetry =  0.00000         ANG
 
                      Number of symmetry operations   =           1
                      Number of ionic constraints     =           3
                      Point group of crystal =     1: C1, 1, 1
                      Space group of crystal =   216: F-43m, F -4 2 3
 
             Set iprint > 1 for details on symmetry rotations/translations
 
                         Centre of mass is constrained
             Set iprint > 1 for details of linear ionic constraints
 
                         Number of cell constraints= 0
                         Cell constraints are:  1 2 3 4 5 6
 
                         External pressure/stress (GPa)
                          0.00000   0.00000   0.00000
                                    0.00000   0.00000
                                              0.00000
  
+---------------- MEMORY AND SCRATCH DISK ESTIMATES PER PROCESS --------------+
|                                                     Memory          Disk    |
| Baseline code, static data and system overhead      391.0 MB         0.0 MB |
| BLAS internal memory storage                          0.0 MB         0.0 MB |
| Model and support data                              237.7 MB       250.6 MB |
| Electronic energy minimisation requirements          99.3 MB         0.0 MB |
| Force calculation requirements                        6.8 MB         0.0 MB |
| Stress calculation requirements                       7.5 MB         0.0 MB |
|                                               ----------------------------- |
| Approx. total storage required per process          728.1 MB       250.6 MB |
|                                                                             |
| Requirements will fluctuate during execution and may exceed these estimates |
+-----------------------------------------------------------------------------+
Calculating finite basis set correction with  3 cut-off energies.
Calculating total energy with cut-off of  890.000 eV.
------------------------------------------------------------------------ <-- SCF
SCF loop      Energy           Fermi           Energy gain       Timer   <-- SCF
                               energy          per atom          (sec)   <-- SCF
------------------------------------------------------------------------ <-- SCF
Initial  -6.27438234E+003  0.00000000E+000                        19.86  <-- SCF
      1  -7.59055610E+003  1.90602285E+001   1.64521719E+002      40.95  <-- SCF
      2  -7.72511071E+003  1.92420468E+001   1.68193264E+001      56.99  <-- SCF
      3  -7.72708928E+003  1.90718249E+001   2.47321331E-001      73.78  <-- SCF
      4  -7.75122908E+003  1.94726770E+001   3.01747545E+000      90.86  <-- SCF
      5  -7.75124296E+003  1.94720443E+001   1.73433035E-003     107.70  <-- SCF
      6  -7.75026617E+003  1.95865580E+001  -1.22099024E-001     124.97  <-- SCF
      7  -7.74838481E+003  1.97542248E+001  -2.35169060E-001     142.20  <-- SCF
      8  -7.74842862E+003  1.97755458E+001   5.47547395E-003     161.77  <-- SCF
      9  -7.74843030E+003  1.97822313E+001   2.10848777E-004     180.38  <-- SCF
     10  -7.74843052E+003  1.97853022E+001   2.68149430E-005     200.00  <-- SCF
     11  -7.74843052E+003  1.97858716E+001   7.54673909E-007     220.78  <-- SCF
     12  -7.74843052E+003  1.97857778E+001   2.06679908E-008     234.37  <-- SCF
     13  -7.74843052E+003  1.97858010E+001   2.58855008E-009     246.56  <-- SCF
     14  -7.74843052E+003  1.97858040E+001   1.94508618E-010     259.25  <-- SCF
------------------------------------------------------------------------ <-- SCF
 
Final energy, E             =  -7748.402674527     eV
Final free energy (E-TS)    =  -7748.430524439     eV
(energies not corrected for finite basis set)
 
NB est. 0K energy (E-0.5TS)      =  -7748.416599483     eV
 
Calculating total energy with cut-off of  895.000 eV.
------------------------------------------------------------------------ <-- SCF
SCF loop      Energy           Fermi           Energy gain       Timer   <-- SCF
                               energy          per atom          (sec)   <-- SCF
------------------------------------------------------------------------ <-- SCF
Initial  -7.74840267E+003  0.00000000E+000                       262.88  <-- SCF
      1  -7.74843055E+003  1.97858071E+001   3.48459860E-003     280.85  <-- SCF
      2  -7.74843055E+003  1.97858071E+001   1.58545792E-011     292.84  <-- SCF
      3  -7.74843055E+003  1.97858065E+001   9.23432563E-010     304.57  <-- SCF
      4  -7.74843055E+003  1.97858065E+001   4.23433273E-011     316.77  <-- SCF
------------------------------------------------------------------------ <-- SCF
 
Final energy, E             =  -7748.402701417     eV
Final free energy (E-TS)    =  -7748.430551313     eV
(energies not corrected for finite basis set)
 
NB est. 0K energy (E-0.5TS)      =  -7748.416626365     eV
 
Calculating total energy with cut-off of  900.000 eV.
------------------------------------------------------------------------ <-- SCF
SCF loop      Energy           Fermi           Energy gain       Timer   <-- SCF
                               energy          per atom          (sec)   <-- SCF
------------------------------------------------------------------------ <-- SCF
Initial  -7.74840270E+003  0.00000000E+000                       320.61  <-- SCF
      1  -7.74843058E+003  1.97858061E+001   3.48421885E-003     337.84  <-- SCF
      2  -7.74843058E+003  1.97858061E+001   9.47407781E-012     350.42  <-- SCF
      3  -7.74843058E+003  1.97858059E+001   8.17284222E-010     362.46  <-- SCF
      4  -7.74843058E+003  1.97858058E+001   3.19025069E-011     374.62  <-- SCF
------------------------------------------------------------------------ <-- SCF
 
Final energy, E             =  -7748.402725274     eV
Final free energy (E-TS)    =  -7748.430575163     eV
(energies not corrected for finite basis set)
 
NB est. 0K energy (E-0.5TS)      =  -7748.416650219     eV
 
 For future reference: finite basis dEtot/dlog(Ecut) =      -0.004677eV
 Total energy corrected for finite basis set =   -7748.430576 eV
 
 ************************** Forces **************************
 *                                                          *
 *               Cartesian components (eV/A)                *
 * -------------------------------------------------------- *
 *                         x            y            z      *
 *                                                          *
 * P               1      0.00004      0.00004      0.00004 *
 * P               2      0.00004      0.00004      0.00004 *
 * P               3      0.00004      0.00004      0.00004 *
 * P               4      0.00004      0.00004      0.00004 *
 * In              1     -0.00004     -0.00004     -0.00004 *
 * In              2     -0.00004     -0.00004     -0.00004 *
 * In              3     -0.00004     -0.00004     -0.00004 *
 * In              4     -0.00004     -0.00004     -0.00004 *
 *                                                          *
 ************************************************************
 
 ***************** Stress Tensor *****************
 *                                               *
 *          Cartesian components (GPa)           *
 * --------------------------------------------- *
 *             x             y             z     *
 *                                               *
 *  x   -660.566335      0.000649      0.000649  *
 *  y      0.000649   -660.566332      0.000649  *
 *  z      0.000649      0.000649   -660.566330  *
 *                                               *
 *  Pressure:  660.5663                          *
 *                                               *
 *************************************************
 
 Pseudo atomic calculation performed for P 3s2 3p3
 
 Converged in 23 iterations to a total energy of -208.0292 eV
 
 Pseudo atomic calculation performed for In 4d10 5s2 5p1
 
 Converged in 42 iterations to a total energy of -1747.4504 eV
Charge spilling parameter for spin component 1 = 1.08%
 
            Orbital Populations       
     Ion    Atom   Orbital             Charge
  -------------------------------------------
      P     1      S                    1.409
      P     1      Px                   1.402
      P     1      Py                   1.402
      P     1      Pz                   1.402
      P     2      S                    1.409
      P     2      Px                   1.402
      P     2      Py                   1.402
      P     2      Pz                   1.402
      P     3      S                    1.409
      P     3      Px                   1.402
      P     3      Py                   1.402
      P     3      Pz                   1.402
      P     4      S                    1.409
      P     4      Px                   1.402
      P     4      Py                   1.403
      P     4      Pz                   1.402
     In     1      Dzz                  1.983
     In     1      Dzy                  1.951
     In     1      Dzx                  1.951
     In     1      Dxx-yy               1.983
     In     1      Dxy                  1.951
     In     1      S                    1.606
     In     1      Px                   0.717
     In     1      Py                   0.717
     In     1      Pz                   0.717
     In     1      S                   -1.192
     In     2      Dzz                  1.983
     In     2      Dzy                  1.951
     In     2      Dzx                  1.951
     In     2      Dxx-yy               1.983
     In     2      Dxy                  1.951
     In     2      S                    1.606
     In     2      Px                   0.717
     In     2      Py                   0.717
     In     2      Pz                   0.717
     In     2      S                   -1.192
     In     3      Dzz                  1.983
     In     3      Dzy                  1.951
     In     3      Dzx                  1.951
     In     3      Dxx-yy               1.983
     In     3      Dxy                  1.951
     In     3      S                    1.605
     In     3      Px                   0.717
     In     3      Py                   0.717
     In     3      Pz                   0.717
     In     3      S                   -1.192
     In     4      Dzz                  1.983
     In     4      Dzy                  1.951
     In     4      Dzx                  1.951
     In     4      Dxx-yy               1.983
     In     4      Dxy                  1.951
     In     4      S                    1.605
     In     4      Px                   0.717
     In     4      Py                   0.717
     In     4      Pz                   0.717
     In     4      S                   -1.192
  -------------------------------------------
                           Total:      71.999
  -------------------------------------------
 
     Atomic Populations (Mulliken)
     -----------------------------
Species          Ion     s      p      d      f     Total  Charge (e)
=====================================================================
  P               1     1.41   4.21   0.00   0.00   5.62    -0.62
  P               2     1.41   4.21   0.00   0.00   5.62    -0.62
  P               3     1.41   4.21   0.00   0.00   5.62    -0.62
  P               4     1.41   4.21   0.00   0.00   5.62    -0.62
  In              1     0.41   2.15   9.82   0.00  12.38     0.62
  In              2     0.41   2.15   9.82   0.00  12.38     0.62
  In              3     0.41   2.15   9.82   0.00  12.38     0.62
  In              4     0.41   2.15   9.82   0.00  12.38     0.62
=====================================================================
 
                 Bond                   Population      Length (A)
======================================================================
               P 4 -- In 4                   0.46        1.80015
               P 4 -- In 3                   0.46        1.80015
               P 4 -- In 2                   0.45        1.80015
               P 3 -- In 4                   0.45        1.80015
               P 3 -- In 3                   0.46        1.80015
               P 2 -- In 4                   0.46        1.80015
               P 2 -- In 2                   0.46        1.80015
               P 1 -- In 3                   0.46        1.80015
               P 1 -- In 2                   0.46        1.80015
               P 3 -- In 1                   0.45        1.80015
               P 2 -- In 1                   0.46        1.80015
               P 1 -- In 1                   0.46        1.80015
               P 3 -- In 2                   0.47        1.80015
               P 2 -- In 3                   0.46        1.80015
               P 1 -- In 4                   0.47        1.80015
               P 4 -- In 1                   0.47        1.80015
               P 3 -- P 4                   -0.76        2.93963
               P 2 -- P 4                   -0.76        2.93963
               P 2 -- P 3                   -0.76        2.93963
               P 1 -- P 4                   -0.76        2.93963
               P 1 -- P 3                   -0.76        2.93963
               P 1 -- P 2                   -0.76        2.93963
              In 3 -- In 4                 -67.96        2.93963
              In 2 -- In 4                 -69.11        2.93963
              In 2 -- In 3                 -68.41        2.93963
              In 1 -- In 4                 -67.81        2.93963
              In 1 -- In 3                 -68.82        2.93963
              In 1 -- In 2                 -67.97        2.93963
======================================================================
 
 
 A BibTeX formatted list of references used in this run has been written to 
 ZB_EOS_0.7045.bib
 
Initialisation time =     17.36 s
Calculation time    =    390.01 s
Finalisation time   =      0.35 s
Total time          =    407.72 s
Peak Memory Use     = 1348048 kB
  
Overall parallel efficiency rating: Excellent (92%)                             
  
Data was distributed by:-
k-point (32-way); efficiency rating: Excellent (93%)                            
  
Parallel notes:
1) Calculation only took 407.4 s, so efficiency estimates may be inaccurate.    
