 +-------------------------------------------------+
 |                                                 |
 |      CCC   AA    SSS  TTTTT  EEEEE  PPPP        |
 |     C     A  A  S       T    E      P   P       |
 |     C     AAAA   SS     T    EEE    PPPP        |
 |     C     A  A     S    T    E      P           |
 |      CCC  A  A  SSS     T    EEEEE  P           |
 |                                                 |
 +-------------------------------------------------+
 |                                                 |
 | Welcome to Academic Release CASTEP version 24.1 |
 | Ab Initio Total Energy Program                  |
 |                                                 |
 | Authors:                                        |
 | M. Segall, M. Probert, C. Pickard, P. Hasnip,   |
 | S. Clark, K. Refson, J. R. Yates,               |
 | A. Bartok-Partay, M. Payne                      |
 |                                                 |
 | Contributors:                                   |
 | P. Lindan, P. Haynes, J. White, V. Milman,      |
 | N. Govind, M. Gibson, P. Tulip, V. Cocula,      |
 | B. Montanari, D. Quigley, M. Glover,            |
 | L. Bernasconi, A. Perlov, M. Plummer,           |
 | E. McNellis, J. Meyer, J. Gale, D. Jochym       |
 | J. Aarons, B. Walker, R. Gillen, D. Jones       |
 | T. Green, I. J. Bush, C. J. Armstrong,          |
 | E. J. Higgins, E. L. Brown, M. S. McFly,        |
 | J. Wilkins, B-C. Shih, P. J. P. Byrne,          |
 | R. J. Maurer, J. C. Womack, J. Dziedzic,        |
 | L. LeBlanc, T. K. Stenczel, J. Kermode,         |
 | S. Sturniolo, B. Shi, B. Durham, M. Evans,      |
 | M. J. Smith, A. Tamerus, Z. Hawkhead,           |
 | V. Ravindran, T. Hollins, S. A. Joyce,          |
 | R. T. Strong, A. M. Reilly, S. J. Donaldson     |
 |                                                 |
 | Copyright (c) 2000 - 2023                       |
 |                                                 |
 |     Distributed under license from Cambridge    |
 |     Enterprise for academic use only.           |
 |                                                 |
 | Please cite                                     |
 |                                                 |
 |     "First principles methods using CASTEP"     |
 |                                                 |
 |         Zeitschrift fuer Kristallographie       |
 |           220(5-6) pp. 567-570 (2005)           |
 |                                                 |
 | S. J. Clark, M. D. Segall, C. J. Pickard,       |
 | P. J. Hasnip, M. J. Probert, K. Refson,         |
 | M. C. Payne                                     |
 |                                                 |
 |       in all publications arising from          |
 |              your use of CASTEP                 |
 |                                                 |
 +-------------------------------------------------+
 |                                                 |
 |              http://www.castep.org              |
 |                                                 |
 +-------------------------------------------------+



 Compiled for  GNU 11.2.0 on 04-04-2024 18:39:17
 from code version 6355fd106 Castep241_branch Thu Mar 7 17:56:19 2024 +0000
 Compiler: GNU Fortran 11.2.0; Optimisation: FAST
 Comms   : MPI VERSION : CRAY MPICH version 8.1.23.14 (ANL base 3.4a2)
 MATHLIBS: default (LAPACK version 3.10.1)
 FFT Lib : fftw3 version commercial-fftw-3.3.10-sse2-avx-avx2-avx2_128
 Fundamental constants values: CODATA 2018

 Run started: Sun, 19 Jan 2025 01:03:42 +0000

 Atomic calculation performed for P: 1s2 2s2 2p6 3s2 3p3

 Converged in 47 iterations to an ae energy of -9309.074 eV

   ============================================================                
   | Pseudopotential Report - Date of generation 19-01-2025   |                
   ------------------------------------------------------------                
   | Element: P Ionic charge:  5.00 Level of theory: RSCAN    |                
   | Atomic Solver: Koelling-Harmon                           |                
   |                                                          |                
   |               Reference Electronic Structure             |                
   |         Orbital         Occupation         Energy        |                
   |            3s              2.000           -0.535        |                
   |            3p              3.000           -0.209        |                
   |                                                          |                
   |                 Pseudopotential Definition               |                
   |        Beta     l      e      Rc     scheme   norm       |                
   |          1      0   -0.535   1.807     qc      0         |                
   |          2      0    0.250   1.807     qc      0         |                
   |          3      1   -0.209   1.807     qc      0         |                
   |          4      1    0.250   1.807     qc      0         |                
   |          5      2    0.000   1.807     qc      0         |                
   |          6      2    0.250   1.807     qc      0         |                
   |         loc     3    0.000   1.807     pn      0         |                
   |                                                          |                
   | Augmentation charge Rinner = 1.263                       |                
   | Partial core correction Rc = 1.263                       |                
   ------------------------------------------------------------                
   | "3|1.8|4|4|5|30:31:32"                                   |                
   ------------------------------------------------------------                
   |      Author: Chris J. Pickard, Cambridge University      |                
   ============================================================                
 Warning: otfg_output_psp cannot write out meta-GGA pseudopotentials presently.

 Atomic calculation performed for In:
 1s2 2s2 2p6 3s2 3p6 3d10 4s2 4p6 4d10 5s2 5p1

 Converged in 84 iterations to an ae energy of -160093.328 eV

   ============================================================                
   | Pseudopotential Report - Date of generation 19-01-2025   |                
   ------------------------------------------------------------                
   | Element: In Ionic charge: 13.00 Level of theory: RSCAN   |                
   | Atomic Solver: Koelling-Harmon                           |                
   |                                                          |                
   |               Reference Electronic Structure             |                
   |         Orbital         Occupation         Energy        |                
   |            4d             10.000           -0.711        |                
   |            5s              2.000           -0.313        |                
   |            5p              1.000           -0.095        |                
   |                                                          |                
   |                 Pseudopotential Definition               |                
   |        Beta     l      e      Rc     scheme   norm       |                
   |          1      0   -0.313   2.501     qc      0         |                
   |          2      0    0.250   2.501     qc      0         |                
   |          3      1   -0.095   2.501     qc      0         |                
   |          4      1    0.250   2.501     qc      0         |                
   |          5      2   -0.711   2.207     qc      0         |                
   |          6      2    0.250   2.207     qc      0         |                
   |         loc     3    0.000   2.501     pn      0         |                
   |                                                          |                
   | Augmentation charge Rinner = 1.504                       |                
   | Partial core correction Rc = 1.504                       |                
   ------------------------------------------------------------                
   | "3|2.5|2.5|1.5|7|8|9|50:51:42U2.2U2.2"                   |                
   ------------------------------------------------------------                
   |      Author: Chris J. Pickard, Cambridge University      |                
   ============================================================                
 Warning: otfg_output_psp cannot write out meta-GGA pseudopotentials presently.

 Pseudo atomic calculation performed for P 3s2 3p3

 Converged in 23 iterations to a total energy of -208.0292 eV

 Pseudo atomic calculation performed for In 4d10 5s2 5p1

 Converged in 42 iterations to a total energy of -1747.4501 eV
 Calculation parallelised over 80 processes.
 Data is distributed by G-vector(2-way) and k-point(40-way)
 Each process may use up to 16 threads.

 ************************************ Title ************************************
 

 ***************************** General Parameters ******************************
  
 output verbosity                               : normal  (1)
 write checkpoint data to                       : StackingFaultStructs_001_100_2.check
 type of calculation                            : geometry optimization
 stress calculation                             : off
 density difference calculation                 : off
 electron localisation func (ELF) calculation   : off
 Hirshfeld analysis                             : on
 polarisation (Berry phase) analysis            : off
 molecular orbital projected DOS                : off
 deltaSCF calculation                           : off
 unlimited duration calculation
 timing information                             : on
 memory usage estimate                          : on
 write extra output files                       : on
 write final potential to formatted file        : off
 write final density to formatted file          : off
 write BibTeX reference list                    : on
 write OTFG pseudopotential files               : on
 write electrostatic potential file             : on
 write bands file                               : on
 checkpoint writing                             : off
  
 output         length unit                     : A
 output           mass unit                     : amu
 output           time unit                     : ps
 output         charge unit                     : e
 output           spin unit                     : hbar/2
 output         energy unit                     : eV
 output          force unit                     : eV/A
 output       velocity unit                     : A/ps
 output       pressure unit                     : GPa
 output     inv_length unit                     : 1/A
 output      frequency unit                     : cm-1
 output force constant unit                     : eV/A**2
 output         volume unit                     : A**3
 output   IR intensity unit                     : (D/A)**2/amu
 output         dipole unit                     : D
 output         efield unit                     : eV/A/e
 output        entropy unit                     : J/mol/K
 output    efield chi2 unit                     : pm/V
  
 wavefunctions paging                           : none
 random number generator seed                   :   10342444
 data distribution                              : optimal for this architecture
 optimization strategy                          : balance speed and memory

 *********************** Exchange-Correlation Parameters ***********************
  
 using functional                               : RSCAN
 relativistic treatment                         : Koelling-Harmon
 DFT+D: Semi-empirical dispersion correction    : off

 ************************* Pseudopotential Parameters **************************
  
 pseudopotential representation                 : reciprocal space
 <beta|phi> representation                      : reciprocal space
 spin-orbit coupling                            : off

 **************************** Basis Set Parameters *****************************
  
 plane wave basis set cut-off                   :   900.0000   eV
 size of standard grid                          :     2.0000
 size of   fine   gmax                          :    30.7390   1/A
 finite basis set correction                    : none

 **************************** Electronic Parameters ****************************
  
 number of  electrons                           :  216.0    
 net charge of system                           :  0.000    
 treating system as non-spin-polarized
 number of bands                                :        130

 ********************* Electronic Minimization Parameters **********************
  
 Method: Treating system as metallic with density mixing treatment of electrons,
         and number of  SD  steps               :          1
         and number of  CG  steps               :          4
  
 total energy / atom convergence tol.           : 0.1000E-07   eV
 eigen-energy convergence tolerance             : 0.2222E-08   eV
 max force / atom convergence tol.              : ignored
 convergence tolerance window                   :          3   cycles
 max. number of SCF cycles                      :         50
 number of fixed-spin iterations                :         10
 smearing scheme                                : Gaussian
 smearing width                                 : 0.2000       eV
 Fermi energy convergence tolerance             : 0.2721E-13   eV
 periodic dipole correction                     : NONE

 ************************** Density Mixing Parameters **************************
  
 density-mixing scheme                          : Pulay
 max. length of mixing history                  :         15
 charge density mixing amplitude                : 0.5000    
 cut-off energy for mixing                      :  900.0       eV

 *********************** Population Analysis Parameters ************************
  
 Population analysis with cutoff                :  3.000       A
 Population analysis output                     : summary and pdos components

 ********************** Geometry Optimization Parameters ***********************
  
 optimization method                            : LBFGS
 max. no. of LBFGS updates                      : unbounded
 preconditioned LBFGS is activated
 preconditioner type                            : EXP
     stabilization constant                     :     0.1000
     parameter A                                :     3.0000
     nearest neighbor distance                  : automatic
     cut-off distance                           : automatic
     parameter mu                               : automatic
 variable cell method                           : fixed basis quality
 max. number of steps                           :         30
 estimated bulk modulus                         :  500.0       GPa
 estimated <frequency>                          :  1668.       cm-1
 geom line minimiser                            : on
 with line minimiser tolerance                  :     0.4000
 total energy convergence tolerance             : 0.2000E-04   eV/atom
        max ionic |force| tolerance             : 0.1000E-02   eV/A
 max ionic |displacement| tolerance             : 0.1000E-02   A
   max |stress component| tolerance             : 0.1000       GPa
 convergence tolerance window                   :          2   steps
 backup results every                           :          5   steps
 write geom trajectory file                     : on

 *******************************************************************************
  

                           -------------------------------
                                      Unit Cell
                           -------------------------------
        Real Lattice(A)                      Reciprocal Lattice(1/A)
     5.9012740     0.0000000     0.0000000        1.064716756   0.000000000   0.000000000
     0.0000000     5.9012740     0.0000000        0.000000000   1.064716756  -0.088726371
     0.0000000     1.4753180    17.7038210        0.000000000   0.000000000   0.354905605

                       Lattice parameters(A)       Cell Angles
                    a =      5.901274          alpha =   85.236360
                    b =      5.901274          beta  =   90.000000
                    c =     17.765186          gamma =   90.000000

                       Current cell volume =           616.536183       A**3
                                   density =             2.837629   AMU/A**3
                                           =             4.711994     g/cm^3

                           -------------------------------
                                     Cell Contents
                           -------------------------------
                         Total number of ions in cell =   24
                      Total number of species in cell =    2
                        Max number of any one species =   12

            xxxxxxxxxxxxxxxxxxxxxxxxxxxxxxxxxxxxxxxxxxxxxxxxxxxxxxxxxxxx
            x  Element    Atom        Fractional coordinates of atoms  x
            x            Number           u          v          w      x
            x----------------------------------------------------------x
            x  P            1         0.250000   0.524045   0.903818   x 
            x  P            2         0.250000   0.064656   0.741378   x 
            x  P            3         0.750000   0.564656   0.741378   x 
            x  P            4         0.750000   0.024045   0.903818   x 
            x  P            5         0.750000   0.185918   0.256327   x 
            x  P            6         0.750000   0.645527   0.417891   x 
            x  P            7         0.750000   0.105116   0.579537   x 
            x  P            8         0.250000   0.685918   0.256327   x 
            x  P            9         0.250000   0.226611   0.093557   x 
            x  P           10         0.750000   0.726611   0.093557   x 
            x  P           11         0.250000   0.145527   0.417891   x 
            x  P           12         0.250000   0.605116   0.579537   x 
            x  In           1         0.000000   0.294181   0.823278   x 
            x  In           2         0.500000   0.334679   0.661283   x 
            x  In           3         0.500000  -0.205819   0.823278   x 
            x  In           4         0.500000  -0.043997   0.175987   x 
            x  In           5         0.500000   0.497409   0.010365   x 
            x  In           6         0.000000  -0.002591   0.010365   x 
            x  In           7         0.000000   0.456003   0.175987   x 
            x  In           8         0.000000  -0.165321   0.661283   x 
            x  In           9         0.500000  -0.124788   0.499153   x 
            x  In          10         0.500000   0.415643   0.337427   x 
            x  In          11         0.000000  -0.084357   0.337427   x 
            x  In          12         0.000000   0.375212   0.499153   x 
            xxxxxxxxxxxxxxxxxxxxxxxxxxxxxxxxxxxxxxxxxxxxxxxxxxxxxxxxxxxx


                         No user defined ionic velocities

                           -------------------------------
                                   Details of Species
                           -------------------------------

                               Mass of species in AMU
                                    P   30.9737600
                                    In  114.8180000

                          Electric Quadrupole Moment (Barn)
                                    P    1.0000000 No Isotope Defined
                                    In    0.7700000 Isotope115

                          Files used for pseudopotentials:
                                    P 3|1.8|4|4|5|30:31:32
                                    In 3|2.5|2.5|1.5|7|8|9|50:51:42U2.2U2.2

                           -------------------------------
                              k-Points For BZ Sampling
                           -------------------------------
                       MP grid size for SCF calculation is  6  6  2
                            with an offset of   0.083  0.083  0.250
                       Number of kpoints used =            40

                           -------------------------------
                               Symmetry and Constraints
                           -------------------------------

                      Cell is a supercell containing 2 primitive cells
                      Maximum deviation from symmetry =  0.00000         ANG

                      Number of symmetry operations   =           1
                      Number of ionic constraints     =          48
                      Point group of crystal =     1: C1, 1, 1
                      Space group of crystal =     1: P1, P 1

             Set iprint > 1 for details on symmetry rotations/translations

                         Centre of mass is NOT constrained
             Set iprint > 1 for details of linear ionic constraints

                         Number of cell constraints= 6
                         Cell constraints are:  0 0 0 0 0 0

                         External pressure/stress (GPa)
                          0.00000   0.00000   0.00000
                                    0.00000   0.00000
                                              0.00000
 
+---------------- MEMORY AND SCRATCH DISK ESTIMATES PER PROCESS --------------+
|                                                     Memory          Disk    |
| Baseline code, static data and system overhead      386.0 MB         0.0 MB |
| BLAS internal memory storage                          0.0 MB         0.0 MB |
| Model and support data                             2120.0 MB         0.0 MB |
| Electronic energy minimisation requirements         259.3 MB         0.0 MB |
| Force calculation requirements                       47.0 MB         0.0 MB |
|                                               ----------------------------- |
| Approx. total storage required per process         2765.3 MB         0.0 MB |
|                                                                             |
| Requirements will fluctuate during execution and may exceed these estimates |
+-----------------------------------------------------------------------------+
Calculating approximate eigenstates for fixed initial Hamiltonian
Cut-off for approx. calculation is   89.988 eV
Improving approx. states at cut-off of  450.000 eV
Resetting cut-off to  900.000 eV
Calculating total energy with cut-off of  900.000 eV.
------------------------------------------------------------------------ <-- SCF
SCF loop      Energy           Fermi           Energy gain       Timer   <-- SCF
                               energy          per atom          (sec)   <-- SCF
------------------------------------------------------------------------ <-- SCF
Initial  -2.36382881E+004  0.00000000E+000                        68.33  <-- SCF
      1  -2.35492284E+004  2.76199545E+000  -3.71081921E+000     105.25  <-- SCF
      2  -2.35492959E+004  2.76156006E+000   2.81318394E-003     135.79  <-- SCF
      3  -2.35736064E+004  3.23038201E+000   1.01293827E+000     174.96  <-- SCF
      4  -2.35780000E+004  3.31697574E+000   1.83066911E-001     220.57  <-- SCF
      5  -2.35753964E+004  3.61522036E+000  -1.08486400E-001     261.01  <-- SCF
      6  -2.35760398E+004  3.66310415E+000   2.68117738E-002     297.79  <-- SCF
      7  -2.35758241E+004  3.73368030E+000  -8.98746604E-003     335.28  <-- SCF
      8  -2.35764026E+004  3.75439093E+000   2.41032169E-002     371.78  <-- SCF
      9  -2.35764179E+004  3.72857662E+000   6.36688553E-004     406.37  <-- SCF
     10  -2.35764413E+004  3.71720478E+000   9.75531416E-004     444.89  <-- SCF
     11  -2.35764453E+004  3.72583932E+000   1.65102611E-004     481.33  <-- SCF
     12  -2.35764482E+004  3.71849393E+000   1.22250368E-004     515.65  <-- SCF
     13  -2.35764483E+004  3.72592434E+000   3.97362200E-006     551.38  <-- SCF
     14  -2.35764483E+004  3.72581998E+000   1.06958318E-006     584.96  <-- SCF
     15  -2.35764483E+004  3.72517199E+000  -7.06996939E-008     616.91  <-- SCF
     16  -2.35764483E+004  3.72506551E+000   6.58523174E-008     642.99  <-- SCF
     17  -2.35764483E+004  3.72505795E+000  -1.06547929E-009     667.92  <-- SCF
     18  -2.35764483E+004  3.72510300E+000   8.40357152E-009     694.49  <-- SCF
------------------------------------------------------------------------ <-- SCF
 
Final energy, E             =  -23576.44067956     eV
Final free energy (E-TS)    =  -23576.44833054     eV
(energies not corrected for finite basis set)
 
NB est. 0K energy (E-0.5TS)      =  -23576.44450505     eV
 
 
+---------------- MEMORY AND SCRATCH DISK ESTIMATES PER PROCESS --------------+
|                                                     Memory          Disk    |
| Model and support data                             1265.4 MB         0.0 MB |
| Electronic energy minimisation requirements         259.3 MB         0.0 MB |
| Geometry minimisation requirements                  302.4 MB         0.0 MB |
|                                               ----------------------------- |
| Approx. total storage required per process         1827.1 MB         0.0 MB |
|                                                                             |
| Requirements will fluctuate during execution and may exceed these estimates |
+-----------------------------------------------------------------------------+
 

 ******************************** Constrained Forces ********************************
 *                                                                                  *
 *                           Cartesian components (eV/A)                            *
 * -------------------------------------------------------------------------------- *
 *                         x                    y                    z              *
 *                                                                                  *
 * P               1     -0.00000(cons'd)     -0.00000(cons'd)      0.02317         *
 * P               2      0.00000(cons'd)     -0.00000(cons'd)     -0.00263         *
 * P               3      0.00000(cons'd)     -0.00000(cons'd)     -0.00263         *
 * P               4     -0.00000(cons'd)     -0.00000(cons'd)      0.02317         *
 * P               5     -0.00000(cons'd)      0.00000(cons'd)     -0.07572         *
 * P               6      0.00000(cons'd)      0.00000(cons'd)     -0.05668         *
 * P               7      0.00000(cons'd)      0.00000(cons'd)     -0.00712         *
 * P               8     -0.00000(cons'd)      0.00000(cons'd)     -0.07571         *
 * P               9      0.00000(cons'd)      0.00000(cons'd)     -0.06761         *
 * P              10      0.00000(cons'd)      0.00000(cons'd)     -0.06761         *
 * P              11      0.00000(cons'd)      0.00000(cons'd)     -0.05668         *
 * P              12      0.00000(cons'd)      0.00000(cons'd)     -0.00712         *
 * In              1      0.00000(cons'd)      0.00000(cons'd)      0.02193         *
 * In              2      0.00000(cons'd)      0.00000(cons'd)     -0.02665         *
 * In              3      0.00000(cons'd)      0.00000(cons'd)      0.02193         *
 * In              4      0.00000(cons'd)      0.00000(cons'd)      0.01283         *
 * In              5      0.00000(cons'd)     -0.00000(cons'd)      0.04042         *
 * In              6      0.00000(cons'd)      0.00000(cons'd)      0.04042         *
 * In              7      0.00000(cons'd)      0.00000(cons'd)      0.01283         *
 * In              8      0.00000(cons'd)      0.00000(cons'd)     -0.02665         *
 * In              9      0.00000(cons'd)      0.00000(cons'd)      0.05971         *
 * In             10      0.00000(cons'd)      0.00000(cons'd)      0.07835         *
 * In             11      0.00000(cons'd)      0.00000(cons'd)      0.07835         *
 * In             12      0.00000(cons'd)      0.00000(cons'd)      0.05971         *
 *                                                                                  *
 ************************************************************************************
 EXP precond LBFGS => estimated nearest neighbor distance :  2.546       A
 EXP precond LBFGS => estimated cutoff distance :  5.092       A

 ************************************** Forces **************************************
 *                                                                                  *
 *                           Cartesian components (eV/A)                            *
 * -------------------------------------------------------------------------------- *
 *                         x                    y                    z              *
 *                                                                                  *
 * P               1      0.03380(cons'd)      1.23709(cons'd)      0.02317         *
 * P               2      0.23130(cons'd)      0.15431(cons'd)     -0.00263         *
 * P               3      0.23130(cons'd)      0.15431(cons'd)     -0.00263         *
 * P               4      0.03380(cons'd)      1.23709(cons'd)      0.02317         *
 * P               5      0.00136(cons'd)     -0.06427(cons'd)     -0.07572         *
 * P               6      0.00675(cons'd)     -0.01128(cons'd)     -0.05668         *
 * P               7      0.03348(cons'd)      0.02537(cons'd)     -0.00712         *
 * P               8      0.00136(cons'd)     -0.06427(cons'd)     -0.07571         *
 * P               9     -0.00933(cons'd)     -0.46896(cons'd)     -0.06761         *
 * P              10     -0.00933(cons'd)     -0.46896(cons'd)     -0.06761         *
 * P              11      0.00675(cons'd)     -0.01128(cons'd)     -0.05668         *
 * P              12      0.03348(cons'd)      0.02537(cons'd)     -0.00712         *
 * In              1     -0.26184(cons'd)     -0.37268(cons'd)      0.02193         *
 * In              2     -0.03432(cons'd)     -0.05698(cons'd)     -0.02665         *
 * In              3     -0.26184(cons'd)     -0.37268(cons'd)      0.02193         *
 * In              4     -0.15390(cons'd)     -0.03508(cons'd)      0.01283         *
 * In              5      0.18812(cons'd)     -0.39212(cons'd)      0.04042         *
 * In              6      0.18812(cons'd)     -0.39212(cons'd)      0.04042         *
 * In              7     -0.15390(cons'd)     -0.03508(cons'd)      0.01283         *
 * In              8     -0.03432(cons'd)     -0.05698(cons'd)     -0.02665         *
 * In              9     -0.00981(cons'd)     -0.00906(cons'd)      0.05971         *
 * In             10     -0.02561(cons'd)     -0.00632(cons'd)      0.07835         *
 * In             11     -0.02561(cons'd)     -0.00632(cons'd)      0.07835         *
 * In             12     -0.00981(cons'd)     -0.00906(cons'd)      0.05971         *
 *                                                                                  *
 ************************************************************************************
 doing test perturbation to get energy scale for EXP preconditioner

                           -------------------------------
                                     Cell Contents
                           -------------------------------

            xxxxxxxxxxxxxxxxxxxxxxxxxxxxxxxxxxxxxxxxxxxxxxxxxxxxxxxxxxxxxxxxx
            x  Element         Atom        Fractional coordinates of atoms  x
            x                 Number           u          v          w      x
            x---------------------------------------------------------------x
            x  P                 1         0.251412   0.527371   0.905038   x
            x  P                 2         0.251412   0.065802   0.742439   x
            x  P                 3         0.753630   0.568021   0.742439   x
            x  P                 4         0.753630   0.025152   0.905038   x
            x  P                 5         0.753630   0.187228   0.256734   x
            x  P                 6         0.753630   0.648996   0.418539   x
            x  P                 7         0.753630   0.106310   0.580406   x
            x  P                 8         0.251412   0.689447   0.256734   x
            x  P                 9         0.251412   0.227985   0.093707   x
            x  P                10         0.753630   0.730204   0.093707   x
            x  P                11         0.251412   0.146777   0.418539   x
            x  P                12         0.251412   0.608529   0.580406   x
            x  In                1         0.000000   0.296562   0.824424   x
            x  In                2         0.502668   0.337105   0.662253   x
            x  In                3         0.502668   0.798088   0.824424   x
            x  In                4         0.502668   0.960126   0.176268   x
            x  In                5         0.502668   0.500073   0.010382   x
            x  In                6         0.000000   1.001598   0.010382   x
            x  In                7         0.000000   0.458601   0.176268   x
            x  In                8         0.000000   0.838630   0.662253   x
            x  In                9         0.502668   0.879215   0.499915   x
            x  In               10         0.502668   0.418179   0.337958   x
            x  In               11         0.000000   0.919704   0.337958   x
            x  In               12         0.000000   0.377689   0.499915   x
            xxxxxxxxxxxxxxxxxxxxxxxxxxxxxxxxxxxxxxxxxxxxxxxxxxxxxxxxxxxxxxxxx


------------------------------------------------------------------------ <-- SCF
SCF loop      Energy           Fermi           Energy gain       Timer   <-- SCF
                               energy          per atom          (sec)   <-- SCF
------------------------------------------------------------------------ <-- SCF
Initial  -2.35751504E+004  0.00000000E+000                       741.36  <-- SCF
      1  -2.35762663E+004  3.71213755E+000   4.64961843E-002     775.07  <-- SCF
      2  -2.35764219E+004  3.71203597E+000   6.48093873E-003     814.04  <-- SCF
      3  -2.35764227E+004  3.71028736E+000   3.38889854E-005     847.05  <-- SCF
      4  -2.35764236E+004  3.71093535E+000   3.92535233E-005     885.46  <-- SCF
      5  -2.35764238E+004  3.71138169E+000   5.97683443E-006     924.57  <-- SCF
      6  -2.35764238E+004  3.71141004E+000   9.77181012E-007     962.88  <-- SCF
      7  -2.35764238E+004  3.71136897E+000   3.65396493E-008     996.55  <-- SCF
      8  -2.35764238E+004  3.71137513E+000  -4.95434979E-008    1027.26  <-- SCF
      9  -2.35764238E+004  3.71137055E+000  -7.93785937E-009    1054.78  <-- SCF
     10  -2.35764238E+004  3.71136741E+000  -3.11768057E-009    1083.55  <-- SCF
     11  -2.35764238E+004  3.71136427E+000   4.72157106E-010    1109.50  <-- SCF
------------------------------------------------------------------------ <-- SCF
 
Final energy, E             =  -23576.41713429     eV
Final free energy (E-TS)    =  -23576.42379480     eV
(energies not corrected for finite basis set)
 
NB est. 0K energy (E-0.5TS)      =  -23576.42046454     eV
 

 ************************************** Forces **************************************
 *                                                                                  *
 *                           Cartesian components (eV/A)                            *
 * -------------------------------------------------------------------------------- *
 *                         x                    y                    z              *
 *                                                                                  *
 * P               1     -0.03168(cons'd)      1.22565(cons'd)     -0.13369         *
 * P               2      0.25652(cons'd)      0.28516(cons'd)     -0.00917         *
 * P               3      0.09397(cons'd)      0.12351(cons'd)      0.00087         *
 * P               4     -0.15964(cons'd)      1.23832(cons'd)     -0.21707         *
 * P               5     -0.14120(cons'd)      0.06824(cons'd)     -0.07169         *
 * P               6     -0.13343(cons'd)     -0.05084(cons'd)     -0.05054         *
 * P               7     -0.10379(cons'd)      0.15173(cons'd)     -0.00838         *
 * P               8      0.02976(cons'd)     -0.10503(cons'd)     -0.07216         *
 * P               9      0.00347(cons'd)     -0.36820(cons'd)     -0.06136         *
 * P              10     -0.12978(cons'd)     -0.52091(cons'd)     -0.04159         *
 * P              11      0.03453(cons'd)      0.11712(cons'd)     -0.05405         *
 * P              12      0.05877(cons'd)     -0.01717(cons'd)     -0.00842         *
 * In              1     -0.11422(cons'd)     -0.35188(cons'd)     -0.00754         *
 * In              2     -0.09169(cons'd)     -0.04037(cons'd)     -0.02695         *
 * In              3     -0.31999(cons'd)     -0.46230(cons'd)      0.00273         *
 * In              4     -0.21049(cons'd)     -0.14312(cons'd)      0.01145         *
 * In              5      0.23818(cons'd)     -0.39506(cons'd)      0.21020         *
 * In              6      0.42633(cons'd)     -0.37652(cons'd)      0.29594         *
 * In              7      0.00232(cons'd)     -0.00912(cons'd)      0.01004         *
 * In              8      0.13486(cons'd)     -0.16039(cons'd)     -0.03089         *
 * In              9     -0.06676(cons'd)     -0.11832(cons'd)      0.05527         *
 * In             10     -0.08019(cons'd)      0.01240(cons'd)      0.07515         *
 * In             11      0.14498(cons'd)     -0.11559(cons'd)      0.07627         *
 * In             12      0.15917(cons'd)      0.01270(cons'd)      0.05560         *
 *                                                                                  *
 ************************************************************************************
 EXP precond LBFGS => estimated parameter mu :  2.253       eV/A**2
 LBFGS: finished iteration     0 with enthalpy= -2.35764483E+004 eV
  
 +-----------+-----------------+-----------------+------------+-----+ <-- LBFGS
 | Parameter |      value      |    tolerance    |    units   | OK? | <-- LBFGS
 +-----------+-----------------+-----------------+------------+-----+ <-- LBFGS
 |  dE/ion   |   0.000000E+000 |   2.000000E-005 |         eV | No  | <-- LBFGS
 |  |F|max   |   1.267295E+000 |   1.000000E-003 |       eV/A | No  | <-- LBFGS
 |  |dR|max  |   9.400076E-016 |   1.000000E-003 |          A | No  | <-- LBFGS
 +-----------+-----------------+-----------------+------------+-----+ <-- LBFGS
  

================================================================================
 Starting LBFGS iteration          1 ...
================================================================================
  
 +------------+-------------+-------------+-----------------+ <-- min LBFGS
 |    Step    |   lambda    |   F.delta'  |    enthalpy     | <-- min LBFGS
 +------------+-------------+-------------+-----------------+ <-- min LBFGS
 |  previous  |    0.000000 |    0.114498 |   -23576.448331 | <-- min LBFGS
 +------------+-------------+-------------+-----------------+ <-- min LBFGS
  

--------------------------------------------------------------------------------
 LBFGS: starting iteration         1 with trial guess (lambda=  1.000000)
--------------------------------------------------------------------------------

                           -------------------------------
                                     Cell Contents
                           -------------------------------

            xxxxxxxxxxxxxxxxxxxxxxxxxxxxxxxxxxxxxxxxxxxxxxxxxxxxxxxxxxxxxxxxx
            x  Element         Atom        Fractional coordinates of atoms  x
            x                 Number           u          v          w      x
            x---------------------------------------------------------------x
            x  P                 1         0.250000   0.523976   0.904095   x
            x  P                 2         0.250000   0.064625   0.741501   x
            x  P                 3         0.750000   0.564625   0.741501   x
            x  P                 4         0.750000   0.023976   0.904095   x
            x  P                 5         0.750000   0.186030   0.255878   x
            x  P                 6         0.750000   0.645565   0.417740   x
            x  P                 7         0.750000   0.105097   0.579611   x
            x  P                 8         0.250000   0.686030   0.255878   x
            x  P                 9         0.250000   0.226711   0.093156   x
            x  P                10         0.750000   0.726711   0.093156   x
            x  P                11         0.250000   0.145565   0.417740   x
            x  P                12         0.250000   0.605097   0.579611   x
            x  In                1         0.000000   0.294111   0.823555   x
            x  In                2         0.500000   0.334683   0.661267   x
            x  In                3         0.500000  -0.205889   0.823555   x
            x  In                4         0.500000  -0.043930   0.175720   x
            x  In                5         0.500000   0.497375   0.010498   x
            x  In                6         0.000000  -0.002625   0.010498   x
            x  In                7         0.000000   0.456070   0.175720   x
            x  In                8         0.000000  -0.165317   0.661267   x
            x  In                9         0.500000  -0.124854   0.499414   x
            x  In               10         0.500000   0.415609   0.337564   x
            x  In               11         0.000000  -0.084391   0.337564   x
            x  In               12         0.000000   0.375146   0.499414   x
            xxxxxxxxxxxxxxxxxxxxxxxxxxxxxxxxxxxxxxxxxxxxxxxxxxxxxxxxxxxxxxxxx


------------------------------------------------------------------------ <-- SCF
SCF loop      Energy           Fermi           Energy gain       Timer   <-- SCF
                               energy          per atom          (sec)   <-- SCF
------------------------------------------------------------------------ <-- SCF
Initial  -2.35750056E+004  0.00000000E+000                      1134.37  <-- SCF
      1  -2.35763017E+004  3.72152894E+000   5.40018957E-002    1167.53  <-- SCF
      2  -2.35764485E+004  3.72143930E+000   6.11871496E-003    1206.51  <-- SCF
      3  -2.35764493E+004  3.72477055E+000   3.45606155E-005    1242.31  <-- SCF
      4  -2.35764503E+004  3.72565082E+000   3.94659970E-005    1280.85  <-- SCF
      5  -2.35764504E+004  3.72571614E+000   6.10412143E-006    1323.38  <-- SCF
      6  -2.35764505E+004  3.72613267E+000   1.14154930E-006    1360.95  <-- SCF
      7  -2.35764505E+004  3.72651000E+000   4.38644650E-008    1392.34  <-- SCF
      8  -2.35764505E+004  3.72686553E+000  -3.12355836E-008    1421.99  <-- SCF
      9  -2.35764505E+004  3.72704956E+000  -1.13632219E-008    1449.72  <-- SCF
     10  -2.35764505E+004  3.72720851E+000  -3.14139798E-009    1476.91  <-- SCF
     11  -2.35764505E+004  3.72725498E+000   2.16679250E-010    1502.57  <-- SCF
------------------------------------------------------------------------ <-- SCF
 
Final energy, E             =  -23576.44283822     eV
Final free energy (E-TS)    =  -23576.45045015     eV
(energies not corrected for finite basis set)
 
NB est. 0K energy (E-0.5TS)      =  -23576.44664418     eV
 

 ******************************** Constrained Forces ********************************
 *                                                                                  *
 *                           Cartesian components (eV/A)                            *
 * -------------------------------------------------------------------------------- *
 *                         x                    y                    z              *
 *                                                                                  *
 * P               1     -0.00000(cons'd)     -0.00000(cons'd)     -0.00861         *
 * P               2      0.00000(cons'd)     -0.00000(cons'd)     -0.00849         *
 * P               3     -0.00000(cons'd)     -0.00000(cons'd)     -0.00849         *
 * P               4      0.00000(cons'd)      0.00000(cons'd)     -0.00862         *
 * P               5      0.00000(cons'd)      0.00000(cons'd)     -0.01112         *
 * P               6      0.00000(cons'd)      0.00000(cons'd)      0.00166         *
 * P               7     -0.00000(cons'd)     -0.00000(cons'd)     -0.00593         *
 * P               8     -0.00000(cons'd)      0.00000(cons'd)     -0.01112         *
 * P               9      0.00000(cons'd)      0.00000(cons'd)     -0.01042         *
 * P              10      0.00000(cons'd)      0.00000(cons'd)     -0.01041         *
 * P              11      0.00000(cons'd)      0.00000(cons'd)      0.00166         *
 * P              12      0.00000(cons'd)     -0.00000(cons'd)     -0.00593         *
 * In              1      0.00000(cons'd)      0.00000(cons'd)      0.00756         *
 * In              2      0.00000(cons'd)      0.00000(cons'd)      0.01041         *
 * In              3      0.00000(cons'd)      0.00000(cons'd)      0.00755         *
 * In              4      0.00000(cons'd)      0.00000(cons'd)      0.00285         *
 * In              5      0.00000(cons'd)      0.00000(cons'd)      0.01535         *
 * In              6      0.00000(cons'd)     -0.00000(cons'd)      0.01538         *
 * In              7      0.00000(cons'd)      0.00000(cons'd)      0.00285         *
 * In              8      0.00000(cons'd)      0.00000(cons'd)      0.01040         *
 * In              9      0.00000(cons'd)      0.00000(cons'd)      0.00604         *
 * In             10      0.00000(cons'd)      0.00000(cons'd)      0.00071         *
 * In             11      0.00000(cons'd)      0.00000(cons'd)      0.00071         *
 * In             12      0.00000(cons'd)      0.00000(cons'd)      0.00603         *
 *                                                                                  *
 ************************************************************************************
  
 +------------+-------------+-------------+-----------------+ <-- min LBFGS
 |    Step    |   lambda    |   F.delta'  |    enthalpy     | <-- min LBFGS
 +------------+-------------+-------------+-----------------+ <-- min LBFGS
 |  previous  |    0.000000 |    0.114498 |   -23576.448331 | <-- min LBFGS
 | trial step |    1.000000 |    0.010354 |   -23576.450450 | <-- min LBFGS
 +------------+-------------+-------------+-----------------+ <-- min LBFGS
  
 LBFGS: finished iteration     1 with enthalpy= -2.35764505E+004 eV
  
 +-----------+-----------------+-----------------+------------+-----+ <-- LBFGS
 | Parameter |      value      |    tolerance    |    units   | OK? | <-- LBFGS
 +-----------+-----------------+-----------------+------------+-----+ <-- LBFGS
 |  dE/ion   |   8.831695E-005 |   2.000000E-005 |         eV | No  | <-- LBFGS
 |  |F|max   |   1.538071E-002 |   1.000000E-003 |       eV/A | No  | <-- LBFGS
 |  |dR|max  |   7.945148E-003 |   1.000000E-003 |          A | No  | <-- LBFGS
 +-----------+-----------------+-----------------+------------+-----+ <-- LBFGS
  

================================================================================
 Starting LBFGS iteration          2 ...
================================================================================
  
 +------------+-------------+-------------+-----------------+ <-- min LBFGS
 |    Step    |   lambda    |   F.delta'  |    enthalpy     | <-- min LBFGS
 +------------+-------------+-------------+-----------------+ <-- min LBFGS
 |  previous  |    0.000000 |    0.020293 |   -23576.450450 | <-- min LBFGS
 +------------+-------------+-------------+-----------------+ <-- min LBFGS
  

--------------------------------------------------------------------------------
 LBFGS: starting iteration         2 with trial guess (lambda=  1.000000)
--------------------------------------------------------------------------------

                           -------------------------------
                                     Cell Contents
                           -------------------------------

            xxxxxxxxxxxxxxxxxxxxxxxxxxxxxxxxxxxxxxxxxxxxxxxxxxxxxxxxxxxxxxxxx
            x  Element         Atom        Fractional coordinates of atoms  x
            x                 Number           u          v          w      x
            x---------------------------------------------------------------x
            x  P                 1         0.250000   0.523978   0.904086   x
            x  P                 2         0.250000   0.064624   0.741503   x
            x  P                 3         0.750000   0.564624   0.741503   x
            x  P                 4         0.750000   0.023978   0.904086   x
            x  P                 5         0.750000   0.186056   0.255778   x
            x  P                 6         0.750000   0.645564   0.417744   x
            x  P                 7         0.750000   0.105094   0.579624   x
            x  P                 8         0.250000   0.686056   0.255778   x
            x  P                 9         0.250000   0.226728   0.093089   x
            x  P                10         0.750000   0.726728   0.093089   x
            x  P                11         0.250000   0.145564   0.417744   x
            x  P                12         0.250000   0.605094   0.579624   x
            x  In                1         0.000000   0.294099   0.823606   x
            x  In                2         0.500000   0.334667   0.661332   x
            x  In                3         0.500000  -0.205901   0.823606   x
            x  In                4         0.500000  -0.043918   0.175672   x
            x  In                5         0.500000   0.497359   0.010566   x
            x  In                6         0.000000  -0.002642   0.010566   x
            x  In                7         0.000000   0.456082   0.175672   x
            x  In                8         0.000000  -0.165333   0.661332   x
            x  In                9         0.500000  -0.124865   0.499462   x
            x  In               10         0.500000   0.415615   0.337538   x
            x  In               11         0.000000  -0.084385   0.337538   x
            x  In               12         0.000000   0.375135   0.499462   x
            xxxxxxxxxxxxxxxxxxxxxxxxxxxxxxxxxxxxxxxxxxxxxxxxxxxxxxxxxxxxxxxxx


------------------------------------------------------------------------ <-- SCF
SCF loop      Energy           Fermi           Energy gain       Timer   <-- SCF
                               energy          per atom          (sec)   <-- SCF
------------------------------------------------------------------------ <-- SCF
Initial  -2.35764430E+004  0.00000000E+000                      1527.43  <-- SCF
      1  -2.35764503E+004  3.72739167E+000   3.04218167E-004    1563.40  <-- SCF
      2  -2.35764505E+004  3.72739162E+000   7.72548702E-006    1603.63  <-- SCF
      3  -2.35764505E+004  3.72753681E+000   6.99563332E-008    1642.14  <-- SCF
      4  -2.35764505E+004  3.72759833E+000   3.54510971E-008    1674.03  <-- SCF
      5  -2.35764505E+004  3.72758823E+000  -1.80845323E-010    1700.93  <-- SCF
      6  -2.35764505E+004  3.72758273E+000  -2.58133175E-009    1727.08  <-- SCF
------------------------------------------------------------------------ <-- SCF
 
Final energy, E             =  -23576.44283778     eV
Final free energy (E-TS)    =  -23576.45051609     eV
(energies not corrected for finite basis set)
 
NB est. 0K energy (E-0.5TS)      =  -23576.44667694     eV
 

 ******************************** Constrained Forces ********************************
 *                                                                                  *
 *                           Cartesian components (eV/A)                            *
 * -------------------------------------------------------------------------------- *
 *                         x                    y                    z              *
 *                                                                                  *
 * P               1      0.00000(cons'd)     -0.00000(cons'd)      0.00315         *
 * P               2      0.00000(cons'd)     -0.00000(cons'd)     -0.00059         *
 * P               3      0.00000(cons'd)      0.00000(cons'd)     -0.00059         *
 * P               4      0.00000(cons'd)     -0.00000(cons'd)      0.00317         *
 * P               5     -0.00000(cons'd)      0.00000(cons'd)      0.00047         *
 * P               6     -0.00000(cons'd)      0.00000(cons'd)      0.00007         *
 * P               7      0.00000(cons'd)      0.00000(cons'd)     -0.00021         *
 * P               8     -0.00000(cons'd)      0.00000(cons'd)      0.00047         *
 * P               9      0.00000(cons'd)      0.00000(cons'd)      0.00202         *
 * P              10      0.00000(cons'd)      0.00000(cons'd)      0.00201         *
 * P              11      0.00000(cons'd)      0.00000(cons'd)      0.00007         *
 * P              12     -0.00000(cons'd)      0.00000(cons'd)     -0.00021         *
 * In              1      0.00000(cons'd)      0.00000(cons'd)      0.00001         *
 * In              2      0.00000(cons'd)      0.00000(cons'd)      0.00077         *
 * In              3      0.00000(cons'd)      0.00000(cons'd)      0.00002         *
 * In              4      0.00000(cons'd)      0.00000(cons'd)      0.00088         *
 * In              5      0.00000(cons'd)      0.00000(cons'd)     -0.00616         *
 * In              6      0.00000(cons'd)     -0.00000(cons'd)     -0.00620         *
 * In              7      0.00000(cons'd)      0.00000(cons'd)      0.00088         *
 * In              8      0.00000(cons'd)      0.00000(cons'd)      0.00077         *
 * In              9      0.00000(cons'd)      0.00000(cons'd)     -0.00025         *
 * In             10      0.00000(cons'd)      0.00000(cons'd)     -0.00016         *
 * In             11      0.00000(cons'd)      0.00000(cons'd)     -0.00016         *
 * In             12      0.00000(cons'd)      0.00000(cons'd)     -0.00025         *
 *                                                                                  *
 ************************************************************************************
  
 +------------+-------------+-------------+-----------------+ <-- min LBFGS
 |    Step    |   lambda    |   F.delta'  |    enthalpy     | <-- min LBFGS
 +------------+-------------+-------------+-----------------+ <-- min LBFGS
 |  previous  |    0.000000 |    0.020293 |   -23576.450450 | <-- min LBFGS
 | trial step |    1.000000 |   -0.003179 |   -23576.450516 | <-- min LBFGS
 +------------+-------------+-------------+-----------------+ <-- min LBFGS
  
 LBFGS: finished iteration     2 with enthalpy= -2.35764505E+004 eV
  
 +-----------+-----------------+-----------------+------------+-----+ <-- LBFGS
 | Parameter |      value      |    tolerance    |    units   | OK? | <-- LBFGS
 +-----------+-----------------+-----------------+------------+-----+ <-- LBFGS
 |  dE/ion   |   2.747540E-006 |   2.000000E-005 |         eV | Yes | <-- LBFGS
 |  |F|max   |   6.196439E-003 |   1.000000E-003 |       eV/A | No  | <-- LBFGS
 |  |dR|max  |   1.784413E-003 |   1.000000E-003 |          A | No  | <-- LBFGS
 +-----------+-----------------+-----------------+------------+-----+ <-- LBFGS
  

================================================================================
 Starting LBFGS iteration          3 ...
================================================================================
  
 +------------+-------------+-------------+-----------------+ <-- min LBFGS
 |    Step    |   lambda    |   F.delta'  |    enthalpy     | <-- min LBFGS
 +------------+-------------+-------------+-----------------+ <-- min LBFGS
 |  previous  |    0.000000 |    0.006073 |   -23576.450516 | <-- min LBFGS
 +------------+-------------+-------------+-----------------+ <-- min LBFGS
  

--------------------------------------------------------------------------------
 LBFGS: starting iteration         3 with trial guess (lambda=  1.000000)
--------------------------------------------------------------------------------

                           -------------------------------
                                     Cell Contents
                           -------------------------------

            xxxxxxxxxxxxxxxxxxxxxxxxxxxxxxxxxxxxxxxxxxxxxxxxxxxxxxxxxxxxxxxxx
            x  Element         Atom        Fractional coordinates of atoms  x
            x                 Number           u          v          w      x
            x---------------------------------------------------------------x
            x  P                 1         0.250000   0.523977   0.904092   x
            x  P                 2         0.250000   0.064624   0.741503   x
            x  P                 3         0.750000   0.564624   0.741503   x
            x  P                 4         0.750000   0.023977   0.904093   x
            x  P                 5         0.750000   0.186055   0.255781   x
            x  P                 6         0.750000   0.645563   0.417747   x
            x  P                 7         0.750000   0.105094   0.579625   x
            x  P                 8         0.250000   0.686055   0.255781   x
            x  P                 9         0.250000   0.226727   0.093090   x
            x  P                10         0.750000   0.726727   0.093090   x
            x  P                11         0.250000   0.145563   0.417747   x
            x  P                12         0.250000   0.605094   0.579625   x
            x  In                1         0.000000   0.294098   0.823607   x
            x  In                2         0.500000   0.334666   0.661337   x
            x  In                3         0.500000  -0.205902   0.823607   x
            x  In                4         0.500000  -0.043919   0.175676   x
            x  In                5         0.500000   0.497365   0.010539   x
            x  In                6         0.000000  -0.002635   0.010539   x
            x  In                7         0.000000   0.456081   0.175676   x
            x  In                8         0.000000  -0.165334   0.661337   x
            x  In                9         0.500000  -0.124866   0.499462   x
            x  In               10         0.500000   0.415615   0.337540   x
            x  In               11         0.000000  -0.084385   0.337540   x
            x  In               12         0.000000   0.375134   0.499462   x
            xxxxxxxxxxxxxxxxxxxxxxxxxxxxxxxxxxxxxxxxxxxxxxxxxxxxxxxxxxxxxxxxx


------------------------------------------------------------------------ <-- SCF
SCF loop      Energy           Fermi           Energy gain       Timer   <-- SCF
                               energy          per atom          (sec)   <-- SCF
------------------------------------------------------------------------ <-- SCF
Initial  -2.35764419E+004  0.00000000E+000                      1751.59  <-- SCF
      1  -2.35764505E+004  3.72727484E+000   3.60597924E-004    1785.21  <-- SCF
      2  -2.35764505E+004  3.72727483E+000   3.49977464E-007    1819.74  <-- SCF
      3  -2.35764505E+004  3.72720538E+000   1.56006482E-009    1845.46  <-- SCF
      4  -2.35764505E+004  3.72715075E+000   8.53311504E-011    1869.96  <-- SCF
------------------------------------------------------------------------ <-- SCF
 
Final energy, E             =  -23576.44286932     eV
Final free energy (E-TS)    =  -23576.45051797     eV
(energies not corrected for finite basis set)
 
NB est. 0K energy (E-0.5TS)      =  -23576.44669365     eV
 

 ******************************** Constrained Forces ********************************
 *                                                                                  *
 *                           Cartesian components (eV/A)                            *
 * -------------------------------------------------------------------------------- *
 *                         x                    y                    z              *
 *                                                                                  *
 * P               1      0.00000(cons'd)      0.00000(cons'd)     -0.00093         *
 * P               2     -0.00000(cons'd)     -0.00000(cons'd)      0.00043         *
 * P               3      0.00000(cons'd)      0.00000(cons'd)      0.00043         *
 * P               4      0.00000(cons'd)     -0.00000(cons'd)     -0.00094         *
 * P               5      0.00000(cons'd)      0.00000(cons'd)     -0.00069         *
 * P               6     -0.00000(cons'd)      0.00000(cons'd)     -0.00044         *
 * P               7     -0.00000(cons'd)      0.00000(cons'd)      0.00015         *
 * P               8     -0.00000(cons'd)      0.00000(cons'd)     -0.00069         *
 * P               9      0.00000(cons'd)      0.00000(cons'd)     -0.00013         *
 * P              10      0.00000(cons'd)      0.00000(cons'd)     -0.00013         *
 * P              11     -0.00000(cons'd)      0.00000(cons'd)     -0.00044         *
 * P              12      0.00000(cons'd)      0.00000(cons'd)      0.00015         *
 * In              1      0.00000(cons'd)      0.00000(cons'd)     -0.00001         *
 * In              2      0.00000(cons'd)      0.00000(cons'd)     -0.00007         *
 * In              3      0.00000(cons'd)      0.00000(cons'd)     -0.00001         *
 * In              4      0.00000(cons'd)      0.00000(cons'd)     -0.00104         *
 * In              5      0.00000(cons'd)     -0.00000(cons'd)      0.00282         *
 * In              6      0.00000(cons'd)     -0.00000(cons'd)      0.00283         *
 * In              7      0.00000(cons'd)      0.00000(cons'd)     -0.00104         *
 * In              8      0.00000(cons'd)      0.00000(cons'd)     -0.00007         *
 * In              9      0.00000(cons'd)      0.00000(cons'd)      0.00035         *
 * In             10      0.00000(cons'd)      0.00000(cons'd)     -0.00044         *
 * In             11      0.00000(cons'd)      0.00000(cons'd)     -0.00044         *
 * In             12      0.00000(cons'd)      0.00000(cons'd)      0.00035         *
 *                                                                                  *
 ************************************************************************************
  
 +------------+-------------+-------------+-----------------+ <-- min LBFGS
 |    Step    |   lambda    |   F.delta'  |    enthalpy     | <-- min LBFGS
 +------------+-------------+-------------+-----------------+ <-- min LBFGS
 |  previous  |    0.000000 |    0.006073 |   -23576.450516 | <-- min LBFGS
 | trial step |    1.000000 |   -0.002805 |   -23576.450518 | <-- min LBFGS
 +------------+-------------+-------------+-----------------+ <-- min LBFGS
  
 LBFGS: finished iteration     3 with enthalpy= -2.35764505E+004 eV
  
 +-----------+-----------------+-----------------+------------+-----+ <-- LBFGS
 | Parameter |      value      |    tolerance    |    units   | OK? | <-- LBFGS
 +-----------+-----------------+-----------------+------------+-----+ <-- LBFGS
 |  dE/ion   |   7.841385E-008 |   2.000000E-005 |         eV | Yes | <-- LBFGS
 |  |F|max   |   2.827783E-003 |   1.000000E-003 |       eV/A | No  | <-- LBFGS
 |  |dR|max  |   4.774671E-004 |   1.000000E-003 |          A | Yes | <-- LBFGS
 +-----------+-----------------+-----------------+------------+-----+ <-- LBFGS
  

================================================================================
 Starting LBFGS iteration          4 ...
================================================================================
  
 +------------+-------------+-------------+-----------------+ <-- min LBFGS
 |    Step    |   lambda    |   F.delta'  |    enthalpy     | <-- min LBFGS
 +------------+-------------+-------------+-----------------+ <-- min LBFGS
 |  previous  |    0.000000 |    0.002102 |   -23576.450518 | <-- min LBFGS
 +------------+-------------+-------------+-----------------+ <-- min LBFGS
  

--------------------------------------------------------------------------------
 LBFGS: starting iteration         4 with trial guess (lambda=  1.000000)
--------------------------------------------------------------------------------

                           -------------------------------
                                     Cell Contents
                           -------------------------------

            xxxxxxxxxxxxxxxxxxxxxxxxxxxxxxxxxxxxxxxxxxxxxxxxxxxxxxxxxxxxxxxxx
            x  Element         Atom        Fractional coordinates of atoms  x
            x                 Number           u          v          w      x
            x---------------------------------------------------------------x
            x  P                 1         0.250000   0.523976   0.904096   x
            x  P                 2         0.250000   0.064623   0.741507   x
            x  P                 3         0.750000   0.564623   0.741507   x
            x  P                 4         0.750000   0.023976   0.904096   x
            x  P                 5         0.750000   0.186056   0.255774   x
            x  P                 6         0.750000   0.645564   0.417742   x
            x  P                 7         0.750000   0.105093   0.579626   x
            x  P                 8         0.250000   0.686056   0.255774   x
            x  P                 9         0.250000   0.226727   0.093091   x
            x  P                10         0.750000   0.726727   0.093091   x
            x  P                11         0.250000   0.145564   0.417742   x
            x  P                12         0.250000   0.605093   0.579626   x
            x  In                1         0.000000   0.294097   0.823611   x
            x  In                2         0.500000   0.334665   0.661339   x
            x  In                3         0.500000  -0.205903   0.823611   x
            x  In                4         0.500000  -0.043918   0.175671   x
            x  In                5         0.500000   0.497363   0.010548   x
            x  In                6         0.000000  -0.002637   0.010548   x
            x  In                7         0.000000   0.456082   0.175671   x
            x  In                8         0.000000  -0.165335   0.661339   x
            x  In                9         0.500000  -0.124865   0.499462   x
            x  In               10         0.500000   0.415617   0.337533   x
            x  In               11         0.000000  -0.084383   0.337533   x
            x  In               12         0.000000   0.375135   0.499462   x
            xxxxxxxxxxxxxxxxxxxxxxxxxxxxxxxxxxxxxxxxxxxxxxxxxxxxxxxxxxxxxxxxx


------------------------------------------------------------------------ <-- SCF
SCF loop      Energy           Fermi           Energy gain       Timer   <-- SCF
                               energy          per atom          (sec)   <-- SCF
------------------------------------------------------------------------ <-- SCF
Initial  -2.35764428E+004  0.00000000E+000                      1895.29  <-- SCF
      1  -2.35764505E+004  3.72717238E+000   3.22674782E-004    1930.14  <-- SCF
      2  -2.35764505E+004  3.72717238E+000   8.02017428E-008    1961.35  <-- SCF
      3  -2.35764505E+004  3.72716913E+000   1.73137162E-009    1985.71  <-- SCF
      4  -2.35764505E+004  3.72716203E+000   7.91311076E-010    2015.03  <-- SCF
------------------------------------------------------------------------ <-- SCF
 
Final energy, E             =  -23576.44286507     eV
Final free energy (E-TS)    =  -23576.45051858     eV
(energies not corrected for finite basis set)
 
NB est. 0K energy (E-0.5TS)      =  -23576.44669182     eV
 

 ******************************** Constrained Forces ********************************
 *                                                                                  *
 *                           Cartesian components (eV/A)                            *
 * -------------------------------------------------------------------------------- *
 *                         x                    y                    z              *
 *                                                                                  *
 * P               1      0.00000(cons'd)     -0.00000(cons'd)     -0.00041         *
 * P               2      0.00000(cons'd)      0.00000(cons'd)      0.00041         *
 * P               3     -0.00000(cons'd)      0.00000(cons'd)      0.00041         *
 * P               4      0.00000(cons'd)     -0.00000(cons'd)     -0.00041         *
 * P               5     -0.00000(cons'd)      0.00000(cons'd)     -0.00058         *
 * P               6      0.00000(cons'd)      0.00000(cons'd)     -0.00029         *
 * P               7      0.00000(cons'd)     -0.00000(cons'd)      0.00020         *
 * P               8      0.00000(cons'd)      0.00000(cons'd)     -0.00058         *
 * P               9      0.00000(cons'd)      0.00000(cons'd)     -0.00011         *
 * P              10      0.00000(cons'd)      0.00000(cons'd)     -0.00011         *
 * P              11     -0.00000(cons'd)      0.00000(cons'd)     -0.00029         *
 * P              12     -0.00000(cons'd)      0.00000(cons'd)      0.00020         *
 * In              1      0.00000(cons'd)     -0.00000(cons'd)      0.00000         *
 * In              2      0.00000(cons'd)      0.00000(cons'd)      0.00004         *
 * In              3      0.00000(cons'd)      0.00000(cons'd)      0.00001         *
 * In              4      0.00000(cons'd)      0.00000(cons'd)      0.00031         *
 * In              5      0.00000(cons'd)      0.00000(cons'd)     -0.00035         *
 * In              6      0.00000(cons'd)     -0.00000(cons'd)     -0.00035         *
 * In              7      0.00000(cons'd)      0.00000(cons'd)      0.00031         *
 * In              8      0.00000(cons'd)      0.00000(cons'd)      0.00004         *
 * In              9      0.00000(cons'd)      0.00000(cons'd)      0.00042         *
 * In             10      0.00000(cons'd)      0.00000(cons'd)      0.00036         *
 * In             11      0.00000(cons'd)     -0.00000(cons'd)      0.00036         *
 * In             12      0.00000(cons'd)      0.00000(cons'd)      0.00043         *
 *                                                                                  *
 ************************************************************************************
  
 +------------+-------------+-------------+-----------------+ <-- min LBFGS
 |    Step    |   lambda    |   F.delta'  |    enthalpy     | <-- min LBFGS
 +------------+-------------+-------------+-----------------+ <-- min LBFGS
 |  previous  |    0.000000 |    0.002102 |   -23576.450518 | <-- min LBFGS
 | trial step |    1.000000 |   -0.000089 |   -23576.450519 | <-- min LBFGS
 +------------+-------------+-------------+-----------------+ <-- min LBFGS
  
 LBFGS: finished iteration     4 with enthalpy= -2.35764505E+004 eV
  
 +-----------+-----------------+-----------------+------------+-----+ <-- LBFGS
 | Parameter |      value      |    tolerance    |    units   | OK? | <-- LBFGS
 +-----------+-----------------+-----------------+------------+-----+ <-- LBFGS
 |  dE/ion   |   2.523005E-008 |   2.000000E-005 |         eV | Yes | <-- LBFGS
 |  |F|max   |   5.841258E-004 |   1.000000E-003 |       eV/A | Yes | <-- LBFGS
 |  |dR|max  |   1.645110E-004 |   1.000000E-003 |          A | Yes | <-- LBFGS
 +-----------+-----------------+-----------------+------------+-----+ <-- LBFGS
  
 Hirshfeld supercell size:           3           3           1
Standard grid dimensions: 180 180 180
Fine grid dimensions:     180 180 180

 LBFGS: Geometry optimization completed successfully.

================================================================================
 LBFGS: Final Configuration:
================================================================================

                           -------------------------------
                                     Cell Contents
                           -------------------------------

            xxxxxxxxxxxxxxxxxxxxxxxxxxxxxxxxxxxxxxxxxxxxxxxxxxxxxxxxxxxxxxxxx
            x  Element         Atom        Fractional coordinates of atoms  x
            x                 Number           u          v          w      x
            x---------------------------------------------------------------x
            x  P                 1         0.250000   0.523976   0.904096   x
            x  P                 2         0.250000   0.064623   0.741507   x
            x  P                 3         0.750000   0.564623   0.741507   x
            x  P                 4         0.750000   0.023976   0.904096   x
            x  P                 5         0.750000   0.186056   0.255774   x
            x  P                 6         0.750000   0.645564   0.417742   x
            x  P                 7         0.750000   0.105093   0.579626   x
            x  P                 8         0.250000   0.686056   0.255774   x
            x  P                 9         0.250000   0.226727   0.093091   x
            x  P                10         0.750000   0.726727   0.093091   x
            x  P                11         0.250000   0.145564   0.417742   x
            x  P                12         0.250000   0.605093   0.579626   x
            x  In                1         0.000000   0.294097   0.823611   x
            x  In                2         0.500000   0.334665   0.661339   x
            x  In                3         0.500000  -0.205903   0.823611   x
            x  In                4         0.500000  -0.043918   0.175671   x
            x  In                5         0.500000   0.497363   0.010548   x
            x  In                6         0.000000  -0.002637   0.010548   x
            x  In                7         0.000000   0.456082   0.175671   x
            x  In                8         0.000000  -0.165335   0.661339   x
            x  In                9         0.500000  -0.124865   0.499462   x
            x  In               10         0.500000   0.415617   0.337533   x
            x  In               11         0.000000  -0.084383   0.337533   x
            x  In               12         0.000000   0.375135   0.499462   x
            xxxxxxxxxxxxxxxxxxxxxxxxxxxxxxxxxxxxxxxxxxxxxxxxxxxxxxxxxxxxxxxxx


 LBFGS: Final Enthalpy     = -2.35764505E+004 eV
 LBFGS: Final <frequency>  =     235.29616 cm-1

 ******************* Unconstrained Forces *******************
 *                                                          *
 *               Cartesian components (eV/A)                *
 * -------------------------------------------------------- *
 *                         x            y            z      *
 *                                                          *
 * P               1      0.02887      1.24277     -0.00041 *
 * P               2      0.23088      0.15496      0.00041 *
 * P               3      0.23088      0.15496      0.00041 *
 * P               4      0.02887      1.24276     -0.00041 *
 * P               5      0.00153     -0.06458     -0.00058 *
 * P               6      0.00691     -0.01148     -0.00029 *
 * P               7      0.03351      0.02528      0.00020 *
 * P               8      0.00153     -0.06458     -0.00058 *
 * P               9     -0.01122     -0.47896     -0.00011 *
 * P              10     -0.01123     -0.47897     -0.00011 *
 * P              11      0.00691     -0.01148     -0.00029 *
 * P              12      0.03351      0.02528      0.00020 *
 * In              1     -0.26333     -0.37145      0.00000 *
 * In              2     -0.03449     -0.05682      0.00004 *
 * In              3     -0.26333     -0.37145      0.00001 *
 * In              4     -0.15493     -0.03454      0.00031 *
 * In              5      0.19792     -0.39000     -0.00035 *
 * In              6      0.19792     -0.38999     -0.00035 *
 * In              7     -0.15493     -0.03454      0.00031 *
 * In              8     -0.03449     -0.05682      0.00004 *
 * In              9     -0.00978     -0.00897      0.00042 *
 * In             10     -0.02587     -0.00619      0.00036 *
 * In             11     -0.02587     -0.00619      0.00036 *
 * In             12     -0.00978     -0.00897      0.00043 *
 *                                                          *
 ************************************************************

 ******************************** Constrained Forces ********************************
 *                                                                                  *
 *                           Cartesian components (eV/A)                            *
 * -------------------------------------------------------------------------------- *
 *                         x                    y                    z              *
 *                                                                                  *
 * P               1      0.00000(cons'd)     -0.00000(cons'd)     -0.00041         *
 * P               2     -0.00000(cons'd)     -0.00000(cons'd)      0.00041         *
 * P               3      0.00000(cons'd)     -0.00000(cons'd)      0.00041         *
 * P               4      0.00000(cons'd)     -0.00000(cons'd)     -0.00041         *
 * P               5      0.00000(cons'd)      0.00000(cons'd)     -0.00058         *
 * P               6     -0.00000(cons'd)      0.00000(cons'd)     -0.00029         *
 * P               7     -0.00000(cons'd)     -0.00000(cons'd)      0.00020         *
 * P               8      0.00000(cons'd)      0.00000(cons'd)     -0.00058         *
 * P               9      0.00000(cons'd)      0.00000(cons'd)     -0.00011         *
 * P              10      0.00000(cons'd)      0.00000(cons'd)     -0.00011         *
 * P              11      0.00000(cons'd)      0.00000(cons'd)     -0.00029         *
 * P              12      0.00000(cons'd)      0.00000(cons'd)      0.00020         *
 * In              1      0.00000(cons'd)      0.00000(cons'd)      0.00000         *
 * In              2      0.00000(cons'd)      0.00000(cons'd)      0.00004         *
 * In              3      0.00000(cons'd)      0.00000(cons'd)      0.00001         *
 * In              4      0.00000(cons'd)      0.00000(cons'd)      0.00031         *
 * In              5      0.00000(cons'd)     -0.00000(cons'd)     -0.00035         *
 * In              6     -0.00000(cons'd)      0.00000(cons'd)     -0.00035         *
 * In              7      0.00000(cons'd)      0.00000(cons'd)      0.00031         *
 * In              8      0.00000(cons'd)      0.00000(cons'd)      0.00004         *
 * In              9      0.00000(cons'd)      0.00000(cons'd)      0.00042         *
 * In             10      0.00000(cons'd)      0.00000(cons'd)      0.00036         *
 * In             11      0.00000(cons'd)      0.00000(cons'd)      0.00036         *
 * In             12      0.00000(cons'd)      0.00000(cons'd)      0.00043         *
 *                                                                                  *
 ************************************************************************************

 Pseudo atomic calculation performed for P 3s2 3p3

 Converged in 23 iterations to a total energy of -208.0292 eV

 Pseudo atomic calculation performed for In 4d10 5s2 5p1

 Converged in 42 iterations to a total energy of -1747.4501 eV
Charge spilling parameter for spin component 1 = 0.18%

            Orbital Populations       
     Ion    Atom   Orbital             Charge
  -------------------------------------------
      P     1      S                    1.738
      P     1      Px                   1.302
      P     1      Py                   1.373
      P     1      Pz                   1.265
      P     2      S                    1.732
      P     2      Px                   1.310
      P     2      Py                   1.312
      P     2      Pz                   1.319
      P     3      S                    1.732
      P     3      Px                   1.310
      P     3      Py                   1.312
      P     3      Pz                   1.319
      P     4      S                    1.738
      P     4      Px                   1.302
      P     4      Py                   1.373
      P     4      Pz                   1.265
      P     5      S                    1.728
      P     5      Px                   1.316
      P     5      Py                   1.316
      P     5      Pz                   1.321
      P     6      S                    1.727
      P     6      Px                   1.316
      P     6      Py                   1.316
      P     6      Pz                   1.322
      P     7      S                    1.727
      P     7      Px                   1.316
      P     7      Py                   1.316
      P     7      Pz                   1.322
      P     8      S                    1.728
      P     8      Px                   1.316
      P     8      Py                   1.316
      P     8      Pz                   1.321
      P     9      S                    1.744
      P     9      Px                   1.298
      P     9      Py                   1.294
      P     9      Pz                   1.314
      P    10      S                    1.744
      P    10      Px                   1.298
      P    10      Py                   1.294
      P    10      Pz                   1.314
      P    11      S                    1.727
      P    11      Px                   1.316
      P    11      Py                   1.316
      P    11      Pz                   1.322
      P    12      S                    1.727
      P    12      Px                   1.316
      P    12      Py                   1.316
      P    12      Pz                   1.322
     In     1      Dzz                  1.999
     In     1      Dzy                  1.997
     In     1      Dzx                  1.997
     In     1      Dxx-yy               1.999
     In     1      Dxy                  1.996
     In     1      S                    1.428
     In     1      Px                   0.496
     In     1      Py                   0.480
     In     1      Pz                   0.474
     In     1      S                   -0.519
     In     2      Dzz                  1.999
     In     2      Dzy                  1.997
     In     2      Dzx                  1.997
     In     2      Dxx-yy               1.999
     In     2      Dxy                  1.997
     In     2      S                    1.439
     In     2      Px                   0.493
     In     2      Py                   0.491
     In     2      Pz                   0.474
     In     2      S                   -0.570
     In     3      Dzz                  1.999
     In     3      Dzy                  1.997
     In     3      Dzx                  1.997
     In     3      Dxx-yy               1.999
     In     3      Dxy                  1.996
     In     3      S                    1.428
     In     3      Px                   0.496
     In     3      Py                   0.480
     In     3      Pz                   0.474
     In     3      S                   -0.519
     In     4      Dzz                  1.999
     In     4      Dzy                  1.997
     In     4      Dzx                  1.997
     In     4      Dxx-yy               1.999
     In     4      Dxy                  1.997
     In     4      S                    1.437
     In     4      Px                   0.494
     In     4      Py                   0.491
     In     4      Pz                   0.469
     In     4      S                   -0.521
     In     5      Dzz                  1.998
     In     5      Dzy                  1.998
     In     5      Dzx                  1.995
     In     5      Dxx-yy               1.999
     In     5      Dxy                  1.997
     In     5      S                    1.466
     In     5      Px                   0.459
     In     5      Py                   0.433
     In     5      Pz                   0.498
     In     5      S                   -0.508
     In     6      Dzz                  1.998
     In     6      Dzy                  1.998
     In     6      Dzx                  1.995
     In     6      Dxx-yy               1.999
     In     6      Dxy                  1.997
     In     6      S                    1.466
     In     6      Px                   0.459
     In     6      Py                   0.433
     In     6      Pz                   0.498
     In     6      S                   -0.508
     In     7      Dzz                  1.999
     In     7      Dzy                  1.997
     In     7      Dzx                  1.997
     In     7      Dxx-yy               1.999
     In     7      Dxy                  1.997
     In     7      S                    1.437
     In     7      Px                   0.494
     In     7      Py                   0.491
     In     7      Pz                   0.469
     In     7      S                   -0.521
     In     8      Dzz                  1.999
     In     8      Dzy                  1.997
     In     8      Dzx                  1.997
     In     8      Dxx-yy               1.999
     In     8      Dxy                  1.997
     In     8      S                    1.439
     In     8      Px                   0.493
     In     8      Py                   0.491
     In     8      Pz                   0.474
     In     8      S                   -0.570
     In     9      Dzz                  1.999
     In     9      Dzy                  1.997
     In     9      Dzx                  1.997
     In     9      Dxx-yy               1.999
     In     9      Dxy                  1.997
     In     9      S                    1.436
     In     9      Px                   0.490
     In     9      Py                   0.490
     In     9      Pz                   0.476
     In     9      S                   -0.578
     In    10      Dzz                  1.999
     In    10      Dzy                  1.997
     In    10      Dzx                  1.997
     In    10      Dxx-yy               1.999
     In    10      Dxy                  1.997
     In    10      S                    1.439
     In    10      Px                   0.490
     In    10      Py                   0.490
     In    10      Pz                   0.475
     In    10      S                   -0.586
     In    11      Dzz                  1.999
     In    11      Dzy                  1.997
     In    11      Dzx                  1.997
     In    11      Dxx-yy               1.999
     In    11      Dxy                  1.997
     In    11      S                    1.439
     In    11      Px                   0.490
     In    11      Py                   0.490
     In    11      Pz                   0.475
     In    11      S                   -0.586
     In    12      Dzz                  1.999
     In    12      Dzy                  1.997
     In    12      Dzx                  1.997
     In    12      Dxx-yy               1.999
     In    12      Dxy                  1.997
     In    12      S                    1.436
     In    12      Px                   0.490
     In    12      Py                   0.490
     In    12      Pz                   0.476
     In    12      S                   -0.578
  -------------------------------------------
                           Total:     216.000
  -------------------------------------------

     Atomic Populations (Mulliken)
     -----------------------------
Species          Ion     s       p       d       f      Total   Charge (e)
==========================================================================
  P               1     1.738   3.940   0.000   0.000   5.679    -0.679
  P               2     1.732   3.942   0.000   0.000   5.673    -0.673
  P               3     1.732   3.942   0.000   0.000   5.673    -0.673
  P               4     1.738   3.940   0.000   0.000   5.679    -0.679
  P               5     1.728   3.952   0.000   0.000   5.680    -0.680
  P               6     1.727   3.954   0.000   0.000   5.682    -0.682
  P               7     1.727   3.954   0.000   0.000   5.681    -0.681
  P               8     1.728   3.952   0.000   0.000   5.680    -0.680
  P               9     1.744   3.906   0.000   0.000   5.650    -0.650
  P              10     1.744   3.906   0.000   0.000   5.650    -0.650
  P              11     1.727   3.954   0.000   0.000   5.682    -0.682
  P              12     1.727   3.954   0.000   0.000   5.681    -0.681
  In              1     0.909   1.450   9.988   0.000  12.348     0.652
  In              2     0.869   1.459   9.988   0.000  12.316     0.684
  In              3     0.909   1.450   9.988   0.000  12.348     0.652
  In              4     0.916   1.455   9.988   0.000  12.359     0.641
  In              5     0.957   1.390   9.987   0.000  12.334     0.666
  In              6     0.957   1.390   9.987   0.000  12.334     0.666
  In              7     0.916   1.455   9.988   0.000  12.359     0.641
  In              8     0.869   1.459   9.988   0.000  12.316     0.684
  In              9     0.858   1.456   9.988   0.000  12.302     0.698
  In             10     0.854   1.454   9.988   0.000  12.296     0.704
  In             11     0.854   1.454   9.988   0.000  12.296     0.704
  In             12     0.858   1.456   9.988   0.000  12.302     0.698
==========================================================================

                 Bond                   Population      Length (A)
======================================================================
              P 4  -- In 6                   1.00        2.39339
              P 1  -- In 5                   1.00        2.39339
              P 8  -- In 7                   0.62        2.52275
              P 5  -- In 4                   0.62        2.52275
              P 5  -- In 7                   0.58        2.52275
              P 8  -- In 4                   0.58        2.52275
              P 7  -- In 9                   0.62        2.52335
              P 12 -- In 12                  0.62        2.52335
              P 12 -- In 9                   0.62        2.52335
              P 7  -- In 12                  0.62        2.52335
              P 3  -- In 2                   0.58        2.52338
              P 2  -- In 8                   0.58        2.52338
              P 2  -- In 2                   0.61        2.52338
              P 3  -- In 8                   0.61        2.52338
              P 6  -- In 10                  0.60        2.52379
              P 11 -- In 11                  0.60        2.52379
              P 11 -- In 10                  0.60        2.52379
              P 6  -- In 11                  0.60        2.52379
              P 1  -- In 1                   0.65        2.52655
              P 4  -- In 3                   0.65        2.52655
              P 1  -- In 3                   0.64        2.52655
              P 4  -- In 1                   0.64        2.52655
              P 7  -- In 8                   0.56        2.53888
              P 12 -- In 8                   0.56        2.53888
              P 7  -- In 2                   0.56        2.53888
              P 12 -- In 2                   0.56        2.53888
              P 6  -- In 12                  0.57        2.53894
              P 11 -- In 12                  0.57        2.53894
              P 6  -- In 9                   0.57        2.53894
              P 11 -- In 9                   0.57        2.53894
              P 8  -- In 11                  0.57        2.53933
              P 5  -- In 11                  0.57        2.53933
              P 8  -- In 10                  0.57        2.53933
              P 5  -- In 10                  0.57        2.53933
              P 3  -- In 3                   0.55        2.54282
              P 2  -- In 3                   0.59        2.54282
              P 3  -- In 1                   0.59        2.54282
              P 2  -- In 1                   0.55        2.54282
              P 9  -- In 6                   0.64        2.54727
              P 10 -- In 5                   0.64        2.54727
              P 10 -- In 6                   0.47        2.54727
              P 9  -- In 5                   0.47        2.54728
              P 10 -- In 4                   0.55        2.54764
              P 9  -- In 4                   0.54        2.54764
              P 10 -- In 7                   0.54        2.54764
              P 9  -- In 7                   0.55        2.54764
======================================================================

 Hirshfeld supercell size:           3           3           1
Standard grid dimensions: 180 180 180
Fine grid dimensions:     180 180 180


     Hirshfeld Analysis
     ------------------
Species   Ion     Hirshfeld Charge (e)
======================================
  P        1                -0.28
  P        2                -0.23
  P        3                -0.23
  P        4                -0.28
  P        5                -0.24
  P        6                -0.24
  P        7                -0.24
  P        8                -0.24
  P        9                -0.23
  P       10                -0.23
  P       11                -0.24
  P       12                -0.24
  In       1                 0.24
  In       2                 0.24
  In       3                 0.24
  In       4                 0.23
  In       5                 0.28
  In       6                 0.28
  In       7                 0.23
  In       8                 0.24
  In       9                 0.24
  In      10                 0.24
  In      11                 0.24
  In      12                 0.24
======================================

 
 A BibTeX formatted list of references used in this run has been written to 
 StackingFaultStructs_001_100_2.bib
 
Initialisation time =     22.10 s
Calculation time    =   2084.27 s
Finalisation time   =     54.98 s
Total time          =   2161.36 s
Peak Memory Use     = 5810036 kB
 
Overall parallel efficiency rating: Poor (37%)
 
Data was distributed by:-
G-vector (2-way); efficiency rating: Poor (46%)
k-point (40-way); efficiency rating: Satisfactory (66%)
