 +-------------------------------------------------+
 |                                                 |
 |      CCC   AA    SSS  TTTTT  EEEEE  PPPP        |
 |     C     A  A  S       T    E      P   P       |
 |     C     AAAA   SS     T    EEE    PPPP        |
 |     C     A  A     S    T    E      P           |
 |      CCC  A  A  SSS     T    EEEEE  P           |
 |                                                 |
 +-------------------------------------------------+
 |                                                 |
 | Welcome to Academic Release CASTEP version 24.1 |
 | Ab Initio Total Energy Program                  |
 |                                                 |
 | Authors:                                        |
 | M. Segall, M. Probert, C. Pickard, P. Hasnip,   |
 | S. Clark, K. Refson, J. R. Yates,               |
 | A. Bartok-Partay, M. Payne                      |
 |                                                 |
 | Contributors:                                   |
 | P. Lindan, P. Haynes, J. White, V. Milman,      |
 | N. Govind, M. Gibson, P. Tulip, V. Cocula,      |
 | B. Montanari, D. Quigley, M. Glover,            |
 | L. Bernasconi, A. Perlov, M. Plummer,           |
 | E. McNellis, J. Meyer, J. Gale, D. Jochym       |
 | J. Aarons, B. Walker, R. Gillen, D. Jones       |
 | T. Green, I. J. Bush, C. J. Armstrong,          |
 | E. J. Higgins, E. L. Brown, M. S. McFly,        |
 | J. Wilkins, B-C. Shih, P. J. P. Byrne,          |
 | R. J. Maurer, J. C. Womack, J. Dziedzic,        |
 | L. LeBlanc, T. K. Stenczel, J. Kermode,         |
 | S. Sturniolo, B. Shi, B. Durham, M. Evans,      |
 | M. J. Smith, A. Tamerus, Z. Hawkhead,           |
 | V. Ravindran, T. Hollins, S. A. Joyce,          |
 | R. T. Strong, A. M. Reilly, S. J. Donaldson     |
 |                                                 |
 | Copyright (c) 2000 - 2023                       |
 |                                                 |
 |     Distributed under license from Cambridge    |
 |     Enterprise for academic use only.           |
 |                                                 |
 | Please cite                                     |
 |                                                 |
 |     "First principles methods using CASTEP"     |
 |                                                 |
 |         Zeitschrift fuer Kristallographie       |
 |           220(5-6) pp. 567-570 (2005)           |
 |                                                 |
 | S. J. Clark, M. D. Segall, C. J. Pickard,       |
 | P. J. Hasnip, M. J. Probert, K. Refson,         |
 | M. C. Payne                                     |
 |                                                 |
 |       in all publications arising from          |
 |              your use of CASTEP                 |
 |                                                 |
 +-------------------------------------------------+
 |                                                 |
 |              http://www.castep.org              |
 |                                                 |
 +-------------------------------------------------+



 Compiled for  GNU 11.2.0 on 04-04-2024 18:39:17
 from code version 6355fd106 Castep241_branch Thu Mar 7 17:56:19 2024 +0000
 Compiler: GNU Fortran 11.2.0; Optimisation: FAST
 Comms   : MPI VERSION : CRAY MPICH version 8.1.23.14 (ANL base 3.4a2)
 MATHLIBS: default (LAPACK version 3.10.1)
 FFT Lib : fftw3 version commercial-fftw-3.3.10-sse2-avx-avx2-avx2_128
 Fundamental constants values: CODATA 2018

 Run started: Tue, 29 Jul 2025 23:10:38 +0100

 Atomic calculation performed for P: 1s2 2s2 2p6 3s2 3p3

 Converged in 47 iterations to an ae energy of -9309.074 eV

   ============================================================                
   | Pseudopotential Report - Date of generation 29-07-2025   |                
   ------------------------------------------------------------                
   | Element: P Ionic charge:  5.00 Level of theory: RSCAN    |                
   | Atomic Solver: Koelling-Harmon                           |                
   |                                                          |                
   |               Reference Electronic Structure             |                
   |         Orbital         Occupation         Energy        |                
   |            3s              2.000           -0.535        |                
   |            3p              3.000           -0.209        |                
   |                                                          |                
   |                 Pseudopotential Definition               |                
   |        Beta     l      e      Rc     scheme   norm       |                
   |          1      0   -0.535   1.807     qc      0         |                
   |          2      0    0.250   1.807     qc      0         |                
   |          3      1   -0.209   1.807     qc      0         |                
   |          4      1    0.250   1.807     qc      0         |                
   |          5      2    0.000   1.807     qc      0         |                
   |          6      2    0.250   1.807     qc      0         |                
   |         loc     3    0.000   1.807     pn      0         |                
   |                                                          |                
   | Augmentation charge Rinner = 1.263                       |                
   | Partial core correction Rc = 1.263                       |                
   ------------------------------------------------------------                
   | "3|1.8|4|4|5|30:31:32"                                   |                
   ------------------------------------------------------------                
   |      Author: Chris J. Pickard, Cambridge University      |                
   ============================================================                
 Warning: otfg_output_psp cannot write out meta-GGA pseudopotentials presently.

 Atomic calculation performed for In:
 1s2 2s2 2p6 3s2 3p6 3d10 4s2 4p6 4d10 5s2 5p1

 Converged in 84 iterations to an ae energy of -160093.328 eV

   ============================================================                
   | Pseudopotential Report - Date of generation 29-07-2025   |                
   ------------------------------------------------------------                
   | Element: In Ionic charge: 13.00 Level of theory: RSCAN   |                
   | Atomic Solver: Koelling-Harmon                           |                
   |                                                          |                
   |               Reference Electronic Structure             |                
   |         Orbital         Occupation         Energy        |                
   |            4d             10.000           -0.711        |                
   |            5s              2.000           -0.313        |                
   |            5p              1.000           -0.095        |                
   |                                                          |                
   |                 Pseudopotential Definition               |                
   |        Beta     l      e      Rc     scheme   norm       |                
   |          1      0   -0.313   2.501     qc      0         |                
   |          2      0    0.250   2.501     qc      0         |                
   |          3      1   -0.095   2.501     qc      0         |                
   |          4      1    0.250   2.501     qc      0         |                
   |          5      2   -0.711   2.207     qc      0         |                
   |          6      2    0.250   2.207     qc      0         |                
   |         loc     3    0.000   2.501     pn      0         |                
   |                                                          |                
   | Augmentation charge Rinner = 1.504                       |                
   | Partial core correction Rc = 1.504                       |                
   ------------------------------------------------------------                
   | "3|2.5|2.5|1.5|7|8|9|50:51:42U2.2U2.2"                   |                
   ------------------------------------------------------------                
   |      Author: Chris J. Pickard, Cambridge University      |                
   ============================================================                
 Warning: otfg_output_psp cannot write out meta-GGA pseudopotentials presently.

 Pseudo atomic calculation performed for P 3s2 3p3

 Converged in 23 iterations to a total energy of -208.0292 eV

 Pseudo atomic calculation performed for In 4d10 5s2 5p1

 Converged in 42 iterations to a total energy of -1747.4501 eV
 Calculation parallelised over 108 processes.
 Data is distributed by G-vector(3-way) and k-point(36-way)
 Each process may use up to 16 threads.

 ************************************ Title ************************************
 

 ***************************** General Parameters ******************************
  
 output verbosity                               : normal  (1)
 write checkpoint data to                       : In_Vacancy_Migration_15->60_Singlepoints_4.check
 type of calculation                            : single point energy
 stress calculation                             : off
 density difference calculation                 : off
 electron localisation func (ELF) calculation   : off
 Hirshfeld analysis                             : on
 polarisation (Berry phase) analysis            : off
 molecular orbital projected DOS                : off
 deltaSCF calculation                           : off
 unlimited duration calculation
 timing information                             : on
 memory usage estimate                          : on
 write extra output files                       : on
 write final potential to formatted file        : off
 write final density to formatted file          : off
 write BibTeX reference list                    : on
 write OTFG pseudopotential files               : on
 write electrostatic potential file             : on
 write bands file                               : on
 checkpoint writing                             : off
  
 output         length unit                     : A
 output           mass unit                     : amu
 output           time unit                     : ps
 output         charge unit                     : e
 output           spin unit                     : hbar/2
 output         energy unit                     : eV
 output          force unit                     : eV/A
 output       velocity unit                     : A/ps
 output       pressure unit                     : GPa
 output     inv_length unit                     : 1/A
 output      frequency unit                     : cm-1
 output force constant unit                     : eV/A**2
 output         volume unit                     : A**3
 output   IR intensity unit                     : (D/A)**2/amu
 output         dipole unit                     : D
 output         efield unit                     : eV/A/e
 output        entropy unit                     : J/mol/K
 output    efield chi2 unit                     : pm/V
  
 wavefunctions paging                           : none
 random number generator seed                   :  231038216
 data distribution                              : optimal for this architecture
 optimization strategy                          : balance speed and memory

 *********************** Exchange-Correlation Parameters ***********************
  
 using functional                               : RSCAN
 relativistic treatment                         : Koelling-Harmon
 DFT+D: Semi-empirical dispersion correction    : off

 ************************* Pseudopotential Parameters **************************
  
 pseudopotential representation                 : reciprocal space
 <beta|phi> representation                      : reciprocal space
 spin-orbit coupling                            : off

 **************************** Basis Set Parameters *****************************
  
 plane wave basis set cut-off                   :   900.0000   eV
 size of standard grid                          :     2.0000
 size of   fine   gmax                          :    30.7390   1/A
 finite basis set correction                    : none

 **************************** Electronic Parameters ****************************
  
 number of  electrons                           :  563.0    
 net charge of system                           :  0.000    
 net spin   of system                           :  1.000    
 number of  up  spins                           :  282.0    
 number of down spins                           :  281.0    
 treating system as spin-polarized
 number of bands                                :        338

 ********************* Electronic Minimization Parameters **********************
  
 Method: Treating system as metallic with density mixing treatment of electrons,
         and number of  SD  steps               :          1
         and number of  CG  steps               :          4
  
 total energy / atom convergence tol.           : 0.1000E-07   eV
 eigen-energy convergence tolerance             : 0.2234E-08   eV
 max force / atom convergence tol.              : ignored
 convergence tolerance window                   :          3   cycles
 max. number of SCF cycles                      :        100
 number of fixed-spin iterations                :         10
 smearing scheme                                : Gaussian
 smearing width                                 : 0.2000       eV
 Fermi energy convergence tolerance             : 0.2721E-13   eV
 periodic dipole correction                     : NONE

 ************************** Density Mixing Parameters **************************
  
 density-mixing scheme                          : Pulay
 max. length of mixing history                  :         20
 charge density mixing amplitude                : 0.5000    
   spin density mixing amplitude                :  2.000    
 cut-off energy for mixing                      :  900.0       eV

 *********************** Population Analysis Parameters ************************
  
 Population analysis with cutoff                :  3.000       A
 Population analysis output                     : summary and pdos components

 *******************************************************************************
  

                           -------------------------------
                                      Unit Cell
                           -------------------------------
        Real Lattice(A)                      Reciprocal Lattice(1/A)
    11.8016820    -0.0000080    -0.0000080        0.532397442   0.000000361   0.000000361
    -0.0000080    11.8016820    -0.0000080        0.000000361   0.532397442   0.000000361
    -0.0000080    -0.0000080    11.8016820        0.000000361   0.000000361   0.532397442

                       Lattice parameters(A)       Cell Angles
                    a =     11.801682          alpha =   90.000078
                    b =     11.801682          beta  =   90.000078
                    c =     11.801682          gamma =   90.000078

                       Current cell volume =          1643.734705       A**3
                                   density =             2.768402   AMU/A**3
                                           =             4.597040     g/cm^3

                           -------------------------------
                                     Cell Contents
                           -------------------------------
                         Total number of ions in cell =   63
                      Total number of species in cell =    2
                        Max number of any one species =   32

            xxxxxxxxxxxxxxxxxxxxxxxxxxxxxxxxxxxxxxxxxxxxxxxxxxxxxxxxxxxx
            x  Element    Atom        Fractional coordinates of atoms  x
            x            Number           u          v          w      x
            x----------------------------------------------------------x
            x  P            1         0.127488   0.127488   0.392239   x 
            x  P            2         0.373439   0.126946   0.135356   x 
            x  P            3         0.126946   0.373439   0.135356   x 
            x  P            4         0.442077   0.442077   0.343713   x 
            x  P            5         0.127599   0.127599   0.873625   x 
            x  P            6         0.375277   0.148508   0.614775   x 
            x  P            7         0.148508   0.375277   0.614775   x 
            x  P            8         0.372838   0.372838   0.875470   x 
            x  P            9         0.124785   0.625964   0.373506   x 
            x  P           10         0.373235   0.633593   0.111185   x 
            x  P           11         0.125224   0.877373   0.124500   x 
            x  P           12         0.372920   0.874183   0.377840   x 
            x  P           13         0.111532   0.629422   0.885455   x 
            x  P           14         0.366606   0.613387   0.629458   x 
            x  P           15         0.122625   0.874645   0.625534   x 
            x  P           16         0.374579   0.882471   0.864012   x 
            x  P           17         0.625964   0.124785   0.373506   x 
            x  P           18         0.877373   0.125224   0.124500   x 
            x  P           19         0.633593   0.373235   0.111185   x 
            x  P           20         0.874183   0.372920   0.377840   x 
            x  P           21         0.629422   0.111532   0.885455   x 
            x  P           22         0.874645   0.122625   0.625534   x 
            x  P           23         0.613387   0.366606   0.629458   x 
            x  P           24         0.882471   0.374579   0.864012   x 
            x  P           25         0.585435   0.585435   0.373290   x 
            x  P           26         0.869132   0.621893   0.129876   x 
            x  P           27         0.621893   0.869132   0.129876   x 
            x  P           28         0.866611   0.866611   0.372856   x 
            x  P           29         0.624172   0.624172   0.871212   x 
            x  P           30         0.872776   0.620884   0.619149   x 
            x  P           31         0.620884   0.872776   0.619149   x 
            x  P           32         0.872802   0.872802   0.876791   x 
            x  In           1         0.001077   0.001077  -0.003170   x 
            x  In           2         0.242177   0.002401   0.260413   x 
            x  In           3         0.002401   0.242177   0.260413   x 
            x  In           4         0.250787   0.250787   0.005459   x 
            x  In           5        -0.006154  -0.006154   0.496025   x 
            x  In           6         0.250780   0.012468   0.736407   x 
            x  In           7         0.012469   0.250780   0.736407   x 
            x  In           8         0.403233   0.403233   0.549820   x 
            x  In           9        -0.005240   0.493179   0.008904   x 
            x  In          10         0.255033   0.512823   0.244039   x 
            x  In          11        -0.000629   0.749699   0.247345   x 
            x  In          12         0.249087   0.759913  -0.010002   x 
            x  In          13         0.007452   0.493860   0.500548   x 
            x  In          14         0.235537   0.505818   0.764104   x 
            x  In          15        -0.006179   0.749388   0.747722   x 
            x  In          16         0.249975   0.746386   0.503813   x 
            x  In          17         0.493179  -0.005240   0.008904   x 
            x  In          18         0.749699  -0.000629   0.247345   x 
            x  In          19         0.512823   0.255033   0.244039   x 
            x  In          20         0.759913   0.249087  -0.010002   x 
            x  In          21         0.493860   0.007452   0.500548   x 
            x  In          22         0.749388  -0.006179   0.747722   x 
            x  In          23         0.505818   0.235537   0.764104   x 
            x  In          24         0.746386   0.249975   0.503813   x 
            x  In          25         0.499169   0.499169  -0.003679   x 
            x  In          26         0.743729   0.494653   0.253285   x 
            x  In          27         0.494653   0.743729   0.253285   x 
            x  In          28         0.746776   0.746776   0.001140   x 
            x  In          29         0.745335   0.496824   0.743553   x 
            x  In          30         0.496824   0.745335   0.743553   x 
            x  In          31         0.735056   0.735056   0.493652   x 
            xxxxxxxxxxxxxxxxxxxxxxxxxxxxxxxxxxxxxxxxxxxxxxxxxxxxxxxxxxxx


                         No user defined ionic velocities

                           -------------------------------
                                   Details of Species
                           -------------------------------

                               Mass of species in AMU
                                    P   30.9737600
                                    In  114.8180000

                          Electric Quadrupole Moment (Barn)
                                    P    1.0000000 No Isotope Defined
                                    In    0.7700000 Isotope115

                          Files used for pseudopotentials:
                                    P 3|1.8|4|4|5|30:31:32
                                    In 3|2.5|2.5|1.5|7|8|9|50:51:42U2.2U2.2

                           -------------------------------
                              k-Points For BZ Sampling
                           -------------------------------
                       MP grid size for SCF calculation is  4  4  4
                            with an offset of   0.125  0.125  0.125
                       Number of kpoints used =            36

                           -------------------------------
                               Symmetry and Constraints
                           -------------------------------

                      Maximum deviation from symmetry =  0.00000         ANG

                      Number of symmetry operations   =           1
                      Number of ionic constraints     =           3
                      Point group of crystal =     1: C1, 1, 1
                      Space group of crystal =     8: Cm, C -2y

             Set iprint > 1 for details on symmetry rotations/translations

                         Centre of mass is constrained
             Set iprint > 1 for details of linear ionic constraints

                         Number of cell constraints= 0
                         Cell constraints are:  1 2 3 4 5 6

                         External pressure/stress (GPa)
                          0.00000   0.00000   0.00000
                                    0.00000   0.00000
                                              0.00000
 
+---------------- MEMORY AND SCRATCH DISK ESTIMATES PER PROCESS --------------+
|                                                     Memory          Disk    |
| Baseline code, static data and system overhead      368.0 MB         0.0 MB |
| BLAS internal memory storage                          0.0 MB         0.0 MB |
| Model and support data                             4296.9 MB         0.0 MB |
| Electronic energy minimisation requirements        1299.4 MB         0.0 MB |
| Force calculation requirements                      127.4 MB         0.0 MB |
|                                               ----------------------------- |
| Approx. total storage required per process         5964.3 MB         0.0 MB |
|                                                                             |
| Requirements will fluctuate during execution and may exceed these estimates |
+-----------------------------------------------------------------------------+
Calculating approximate eigenstates for fixed initial Hamiltonian
Cut-off for approx. calculation is   89.988 eV
Improving approx. states at cut-off of  450.000 eV
Resetting cut-off to  900.000 eV
Calculating total energy with cut-off of  900.000 eV.
------------------------------------------------------------------------ <-- SCF
SCF loop      Energy           Fermi           Energy gain       Timer   <-- SCF
                               energy          per atom          (sec)   <-- SCF
------------------------------------------------------------------------ <-- SCF
Initial  -6.12908849E+004  0.00000000E+000                       434.63  <-- SCF
      1  -6.10538398E+004  2.13846662E+000  -3.76262176E+000     875.79  <-- SCF
      2  -6.10542122E+004  2.13838517E+000   5.91160436E-003    1173.17  <-- SCF
      3  -6.11172809E+004  2.46437783E+000   1.00109028E+000    1504.44  <-- SCF
      4  -6.11285592E+004  2.53000609E+000   1.79021326E-001    1973.72  <-- SCF
      5  -6.11343656E+004  2.63581842E+000   9.21640001E-002    2307.84  <-- SCF
      6  -6.11232233E+004  2.76383671E+000  -1.76861242E-001    2646.41  <-- SCF
      7  -6.11218337E+004  2.80569723E+000  -2.20566260E-002    2984.81  <-- SCF
      8  -6.11220200E+004  2.84629713E+000   2.95587566E-003    3339.51  <-- SCF
      9  -6.11228421E+004  2.87173888E+000   1.30503792E-002    3691.51  <-- SCF
     10  -6.11231230E+004  2.73448419E+000   4.45805993E-003    4045.87  <-- SCF
     11  -6.11231673E+004  2.72283188E+000   7.02926509E-004    4400.34  <-- SCF
     12  -6.11231811E+004  2.72022983E+000   2.18794935E-004    4744.00  <-- SCF
     13  -6.11231879E+004  2.71775070E+000   1.09188919E-004    5108.48  <-- SCF
     14  -6.11231892E+004  2.71648449E+000   2.01524756E-005    5470.07  <-- SCF
     15  -6.11231898E+004  2.71616002E+000   1.00900196E-005    5817.34  <-- SCF
     16  -6.11231903E+004  2.71606960E+000   6.74533564E-006    6182.03  <-- SCF
     17  -6.11231904E+004  2.71595841E+000   2.84092750E-006    6508.03  <-- SCF
     18  -6.11231905E+004  2.71592843E+000   1.04650251E-006    6822.10  <-- SCF
     19  -6.11231905E+004  2.71596638E+000   3.16007558E-007    7131.98  <-- SCF
     20  -6.11231905E+004  2.71600764E+000   7.76456262E-008    7428.96  <-- SCF
     21  -6.11231905E+004  2.71602249E+000   1.26626468E-008    7688.16  <-- SCF
     22  -6.11231905E+004  2.71602030E+000   5.01002251E-009    7925.54  <-- SCF
     23  -6.11231905E+004  2.71601054E+000   9.10002520E-010    8169.75  <-- SCF
------------------------------------------------------------------------ <-- SCF
 
Integrated Spin Density     =   -0.109936E-03 hbar/2
Integrated |Spin Density|   =    0.706784E-03 hbar/2
 
Final energy, E             =  -61123.02671372     eV
Final free energy (E-TS)    =  -61123.19053943     eV
(energies not corrected for finite basis set)
 
NB est. 0K energy (E-0.5TS)      =  -61123.10862658     eV
 

 ************************** Forces **************************
 *                                                          *
 *               Cartesian components (eV/A)                *
 * -------------------------------------------------------- *
 *                         x            y            z      *
 *                                                          *
 * P               1     -0.04278     -0.04278     -0.10532 *
 * P               2     -0.05826      0.03988     -0.02767 *
 * P               3      0.03988     -0.05826     -0.02767 *
 * P               4      0.31113      0.31113      0.45359 *
 * P               5     -0.00947     -0.00948      0.04100 *
 * P               6     -0.07851     -0.06193     -0.01418 *
 * P               7     -0.06192     -0.07851     -0.01418 *
 * P               8      0.01078      0.01078      0.05505 *
 * P               9      0.03984      0.01827      0.02121 *
 * P              10      0.00520      0.04968     -0.00905 *
 * P              11     -0.00217      0.03098     -0.00854 *
 * P              12      0.03410     -0.08225      0.05399 *
 * P              13      0.01832     -0.04628     -0.03354 *
 * P              14      0.04870     -0.04993      0.04359 *
 * P              15     -0.01657     -0.07120     -0.03980 *
 * P              16     -0.02622     -0.04384      0.02518 *
 * P              17      0.01827      0.03985      0.02121 *
 * P              18      0.03098     -0.00218     -0.00854 *
 * P              19      0.04968      0.00520     -0.00905 *
 * P              20     -0.08225      0.03409      0.05399 *
 * P              21     -0.04628      0.01833     -0.03354 *
 * P              22     -0.07120     -0.01657     -0.03980 *
 * P              23     -0.04993      0.04870      0.04358 *
 * P              24     -0.04384     -0.02622      0.02517 *
 * P              25     -0.42876     -0.42876     -0.47297 *
 * P              26     -0.02491      0.02174      0.03735 *
 * P              27      0.02174     -0.02491      0.03736 *
 * P              28     -0.23260     -0.23261     -0.08082 *
 * P              29      0.02590      0.02590     -0.00549 *
 * P              30     -0.13075     -0.08854     -0.13677 *
 * P              31     -0.08855     -0.13075     -0.13677 *
 * P              32     -0.02897     -0.02896      0.00232 *
 * In              1      0.01809      0.01809      0.03603 *
 * In              2     -0.05064      0.10779      0.04774 *
 * In              3      0.10779     -0.05064      0.04774 *
 * In              4     -0.02265     -0.02264     -0.09523 *
 * In              5      0.22666      0.22666      0.05236 *
 * In              6      0.10378      0.16061      0.01942 *
 * In              7      0.16060      0.10378      0.01942 *
 * In              8      0.03302      0.03302      0.24690 *
 * In              9      0.06936      0.10272     -0.09534 *
 * In             10     -0.06611      0.11297     -0.08812 *
 * In             11      0.03176     -0.03156     -0.05420 *
 * In             12     -0.11349      0.02273      0.04712 *
 * In             13      0.04755     -0.01132      0.02673 *
 * In             14     -0.02361     -0.04111      0.00233 *
 * In             15      0.09260      0.02694      0.05243 *
 * In             16     -0.06081     -0.01682     -0.01718 *
 * In             17      0.10272      0.06936     -0.09534 *
 * In             18     -0.03156      0.03176     -0.05421 *
 * In             19      0.11297     -0.06611     -0.08812 *
 * In             20      0.02273     -0.11349      0.04712 *
 * In             21     -0.01132      0.04755      0.02673 *
 * In             22      0.02695      0.09260      0.05244 *
 * In             23     -0.04111     -0.02362      0.00233 *
 * In             24     -0.01682     -0.06081     -0.01718 *
 * In             25      0.00176      0.00176     -0.05768 *
 * In             26      0.05134     -0.06686     -0.16935 *
 * In             27     -0.06686      0.05134     -0.16936 *
 * In             28      0.00498      0.00498     -0.06278 *
 * In             29     -0.05492     -0.00152      0.10048 *
 * In             30     -0.00152     -0.05492      0.10047 *
 * In             31      0.21622      0.21622      0.42543 *
 *                                                          *
 ************************************************************

 Pseudo atomic calculation performed for P 3s2 3p3

 Converged in 23 iterations to a total energy of -208.0292 eV

 Pseudo atomic calculation performed for In 4d10 5s2 5p1

 Converged in 42 iterations to a total energy of -1747.4501 eV
Charge spilling parameter for spin component 1 = 0.17%
Charge spilling parameter for spin component 2 = 0.17%

                   Orbital Populations                  
  ---------------------------------------------------------------
     Ion    Atom   Orbital              Up        Down      Spin
  ---------------------------------------------------------------
      P     1      S                    0.902     0.902    -0.000
      P     1      Px                   0.624     0.624    -0.000
      P     1      Py                   0.624     0.624    -0.000
      P     1      Pz                   0.628     0.628    -0.000
      P     2      S                    0.873     0.873     0.000
      P     2      Px                   0.653     0.652     0.000
      P     2      Py                   0.647     0.647     0.000
      P     2      Pz                   0.654     0.654    -0.000
      P     3      S                    0.873     0.873     0.000
      P     3      Px                   0.647     0.647     0.000
      P     3      Py                   0.653     0.653     0.000
      P     3      Pz                   0.654     0.654    -0.000
      P     4      S                    0.882     0.882    -0.000
      P     4      Px                   0.588     0.588    -0.000
      P     4      Py                   0.588     0.588    -0.000
      P     4      Pz                   0.660     0.660    -0.000
      P     5      S                    0.870     0.870     0.000
      P     5      Px                   0.657     0.657     0.000
      P     5      Py                   0.657     0.657     0.000
      P     5      Pz                   0.649     0.649     0.000
      P     6      S                    0.898     0.898     0.000
      P     6      Px                   0.633     0.633    -0.000
      P     6      Py                   0.621     0.621    -0.000
      P     6      Pz                   0.639     0.639    -0.000
      P     7      S                    0.898     0.898     0.000
      P     7      Px                   0.621     0.621    -0.000
      P     7      Py                   0.633     0.633    -0.000
      P     7      Pz                   0.639     0.639    -0.000
      P     8      S                    0.871     0.871     0.000
      P     8      Px                   0.650     0.650    -0.000
      P     8      Py                   0.650     0.650    -0.000
      P     8      Pz                   0.657     0.657     0.000
      P     9      S                    0.868     0.868    -0.000
      P     9      Px                   0.655     0.655    -0.000
      P     9      Py                   0.658     0.658    -0.000
      P     9      Pz                   0.653     0.653     0.000
      P    10      S                    0.867     0.867     0.000
      P    10      Px                   0.659     0.659     0.000
      P    10      Py                   0.655     0.655     0.000
      P    10      Pz                   0.650     0.650     0.000
      P    11      S                    0.871     0.871     0.000
      P    11      Px                   0.657     0.657     0.000
      P    11      Py                   0.655     0.655     0.000
      P    11      Pz                   0.647     0.647    -0.000
      P    12      S                    0.870     0.870     0.000
      P    12      Px                   0.655     0.655     0.000
      P    12      Py                   0.653     0.653    -0.000
      P    12      Pz                   0.655     0.655     0.000
      P    13      S                    0.869     0.869     0.000
      P    13      Px                   0.656     0.656    -0.000
      P    13      Py                   0.649     0.649     0.000
      P    13      Pz                   0.656     0.656     0.000
      P    14      S                    0.875     0.875    -0.000
      P    14      Px                   0.665     0.665     0.000
      P    14      Py                   0.625     0.625    -0.000
      P    14      Pz                   0.662     0.662    -0.000
      P    15      S                    0.871     0.871     0.000
      P    15      Px                   0.647     0.647    -0.000
      P    15      Py                   0.653     0.653    -0.000
      P    15      Pz                   0.660     0.660     0.000
      P    16      S                    0.874     0.874     0.000
      P    16      Px                   0.656     0.656    -0.000
      P    16      Py                   0.651     0.651     0.000
      P    16      Pz                   0.644     0.644    -0.000
      P    17      S                    0.868     0.868    -0.000
      P    17      Px                   0.658     0.658    -0.000
      P    17      Py                   0.655     0.655    -0.000
      P    17      Pz                   0.653     0.653     0.000
      P    18      S                    0.871     0.871     0.000
      P    18      Px                   0.655     0.655     0.000
      P    18      Py                   0.657     0.657     0.000
      P    18      Pz                   0.647     0.647    -0.000
      P    19      S                    0.867     0.867     0.000
      P    19      Px                   0.655     0.655     0.000
      P    19      Py                   0.659     0.659     0.000
      P    19      Pz                   0.650     0.650    -0.000
      P    20      S                    0.870     0.870     0.000
      P    20      Px                   0.653     0.653    -0.000
      P    20      Py                   0.655     0.655     0.000
      P    20      Pz                   0.655     0.655     0.000
      P    21      S                    0.869     0.869     0.000
      P    21      Px                   0.649     0.649     0.000
      P    21      Py                   0.656     0.656     0.000
      P    21      Pz                   0.656     0.656     0.000
      P    22      S                    0.871     0.871     0.000
      P    22      Px                   0.652     0.653    -0.000
      P    22      Py                   0.647     0.647    -0.000
      P    22      Pz                   0.660     0.660     0.000
      P    23      S                    0.875     0.875    -0.000
      P    23      Px                   0.625     0.625    -0.000
      P    23      Py                   0.665     0.665     0.000
      P    23      Pz                   0.662     0.662    -0.000
      P    24      S                    0.874     0.874     0.000
      P    24      Px                   0.651     0.651     0.000
      P    24      Py                   0.656     0.656    -0.000
      P    24      Pz                   0.644     0.644    -0.000
      P    25      S                    0.889     0.889    -0.000
      P    25      Px                   0.572     0.572    -0.000
      P    25      Py                   0.572     0.572    -0.000
      P    25      Pz                   0.702     0.702    -0.000
      P    26      S                    0.870     0.870    -0.000
      P    26      Px                   0.654     0.654    -0.000
      P    26      Py                   0.652     0.652     0.000
      P    26      Pz                   0.655     0.655    -0.000
      P    27      S                    0.870     0.870     0.000
      P    27      Px                   0.652     0.652     0.000
      P    27      Py                   0.654     0.654    -0.000
      P    27      Pz                   0.655     0.655    -0.000
      P    28      S                    0.877     0.877     0.000
      P    28      Px                   0.642     0.642     0.000
      P    28      Py                   0.642     0.642     0.000
      P    28      Pz                   0.662     0.662    -0.000
      P    29      S                    0.869     0.869    -0.000
      P    29      Px                   0.656     0.656     0.000
      P    29      Py                   0.656     0.656     0.000
      P    29      Pz                   0.653     0.653     0.000
      P    30      S                    0.875     0.875     0.000
      P    30      Px                   0.644     0.644     0.000
      P    30      Py                   0.658     0.658     0.000
      P    30      Pz                   0.652     0.652     0.000
      P    31      S                    0.875     0.875     0.000
      P    31      Px                   0.658     0.658     0.000
      P    31      Py                   0.644     0.644     0.000
      P    31      Pz                   0.652     0.652     0.000
      P    32      S                    0.869     0.869     0.000
      P    32      Px                   0.657     0.657    -0.000
      P    32      Py                   0.657     0.657    -0.000
      P    32      Pz                   0.652     0.652     0.000
     In     1      Dzz                  1.000     1.000    -0.000
     In     1      Dzy                  0.999     0.999     0.000
     In     1      Dzx                  0.999     0.999     0.000
     In     1      Dxx-yy               1.000     1.000     0.000
     In     1      Dxy                  0.998     0.998     0.000
     In     1      S                    0.704     0.704    -0.000
     In     1      Px                   0.240     0.240     0.000
     In     1      Py                   0.240     0.240     0.000
     In     1      Pz                   0.241     0.241     0.000
     In     1      S                   -0.253    -0.253     0.000
     In     2      Dzz                  1.000     1.000    -0.000
     In     2      Dzy                  0.998     0.998     0.000
     In     2      Dzx                  0.998     0.998    -0.000
     In     2      Dxx-yy               1.000     1.000     0.000
     In     2      Dxy                  0.999     0.999     0.000
     In     2      S                    0.709     0.709    -0.000
     In     2      Px                   0.247     0.247     0.000
     In     2      Py                   0.240     0.240     0.000
     In     2      Pz                   0.238     0.238     0.000
     In     2      S                   -0.242    -0.242    -0.000
     In     3      Dzz                  1.000     1.000    -0.000
     In     3      Dzy                  0.998     0.998    -0.000
     In     3      Dzx                  0.998     0.998     0.000
     In     3      Dxx-yy               1.000     1.000     0.000
     In     3      Dxy                  0.999     0.999     0.000
     In     3      S                    0.709     0.709    -0.000
     In     3      Px                   0.240     0.240     0.000
     In     3      Py                   0.247     0.247     0.000
     In     3      Pz                   0.238     0.238     0.000
     In     3      S                   -0.242    -0.242    -0.000
     In     4      Dzz                  1.000     1.000    -0.000
     In     4      Dzy                  0.998     0.998     0.000
     In     4      Dzx                  0.998     0.998     0.000
     In     4      Dxx-yy               1.000     1.000    -0.000
     In     4      Dxy                  0.999     0.999     0.000
     In     4      S                    0.709     0.709    -0.000
     In     4      Px                   0.240     0.240     0.000
     In     4      Py                   0.240     0.240     0.000
     In     4      Pz                   0.241     0.241     0.000
     In     4      S                   -0.271    -0.271     0.000
     In     5      Dzz                  1.000     1.000     0.000
     In     5      Dzy                  0.998     0.998     0.000
     In     5      Dzx                  0.998     0.998     0.000
     In     5      Dxx-yy               1.000     1.000     0.000
     In     5      Dxy                  0.998     0.998     0.000
     In     5      S                    0.698     0.698    -0.000
     In     5      Px                   0.240     0.240     0.000
     In     5      Py                   0.240     0.240     0.000
     In     5      Pz                   0.249     0.249    -0.000
     In     5      S                   -0.230    -0.230    -0.000
     In     6      Dzz                  1.000     1.000    -0.000
     In     6      Dzy                  0.999     0.999     0.000
     In     6      Dzx                  0.999     0.999    -0.000
     In     6      Dxx-yy               1.000     1.000    -0.000
     In     6      Dxy                  0.999     0.999    -0.000
     In     6      S                    0.705     0.705    -0.000
     In     6      Px                   0.236     0.236     0.000
     In     6      Py                   0.239     0.239     0.000
     In     6      Pz                   0.235     0.235     0.000
     In     6      S                   -0.240    -0.240     0.000
     In     7      Dzz                  1.000     1.000    -0.000
     In     7      Dzy                  0.999     0.999    -0.000
     In     7      Dzx                  0.999     0.999     0.000
     In     7      Dxx-yy               1.000     1.000    -0.000
     In     7      Dxy                  0.999     0.999     0.000
     In     7      S                    0.705     0.705    -0.000
     In     7      Px                   0.239     0.239    -0.000
     In     7      Py                   0.236     0.236     0.000
     In     7      Pz                   0.235     0.235     0.000
     In     7      S                   -0.240    -0.240     0.000
     In     8      Dzz                  0.999     0.999     0.000
     In     8      Dzy                  0.999     0.999     0.000
     In     8      Dzx                  0.999     0.999     0.000
     In     8      Dxx-yy               0.999     0.999     0.000
     In     8      Dxy                  1.000     1.000     0.000
     In     8      S                    0.677     0.677     0.000
     In     8      Px                   0.217     0.217    -0.000
     In     8      Py                   0.217     0.217    -0.000
     In     8      Pz                   0.218     0.218    -0.000
     In     8      S                   -0.233    -0.233     0.000
     In     9      Dzz                  1.000     1.000    -0.000
     In     9      Dzy                  0.998     0.998     0.000
     In     9      Dzx                  0.999     0.999     0.000
     In     9      Dxx-yy               1.000     1.000    -0.000
     In     9      Dxy                  0.999     0.999     0.000
     In     9      S                    0.705     0.705     0.000
     In     9      Px                   0.236     0.236     0.000
     In     9      Py                   0.238     0.238    -0.000
     In     9      Pz                   0.240     0.240    -0.000
     In     9      S                   -0.255    -0.255    -0.000
     In    10      Dzz                  1.000     1.000     0.000
     In    10      Dzy                  0.999     0.999     0.000
     In    10      Dzx                  0.999     0.999     0.000
     In    10      Dxx-yy               0.999     0.999    -0.000
     In    10      Dxy                  0.999     0.999     0.000
     In    10      S                    0.709     0.709    -0.000
     In    10      Px                   0.241     0.241     0.000
     In    10      Py                   0.233     0.233     0.000
     In    10      Pz                   0.237     0.237     0.000
     In    10      S                   -0.228    -0.228     0.000
     In    11      Dzz                  1.000     1.000    -0.000
     In    11      Dzy                  0.999     0.999     0.000
     In    11      Dzx                  0.998     0.998     0.000
     In    11      Dxx-yy               1.000     1.000     0.000
     In    11      Dxy                  0.998     0.998    -0.000
     In    11      S                    0.710     0.710    -0.000
     In    11      Px                   0.243     0.243     0.000
     In    11      Py                   0.238     0.238     0.000
     In    11      Pz                   0.238     0.238     0.000
     In    11      S                   -0.262    -0.262     0.000
     In    12      Dzz                  1.000     1.000    -0.000
     In    12      Dzy                  0.998     0.998     0.000
     In    12      Dzx                  0.998     0.998     0.000
     In    12      Dxx-yy               1.000     1.000    -0.000
     In    12      Dxy                  0.998     0.998     0.000
     In    12      S                    0.707     0.707    -0.000
     In    12      Px                   0.247     0.247    -0.000
     In    12      Py                   0.239     0.239     0.000
     In    12      Pz                   0.238     0.238     0.000
     In    12      S                   -0.255    -0.255     0.000
     In    13      Dzz                  1.000     1.000    -0.000
     In    13      Dzy                  0.999     0.999     0.000
     In    13      Dzx                  0.999     0.999    -0.000
     In    13      Dxx-yy               1.000     1.000    -0.000
     In    13      Dxy                  0.998     0.998     0.000
     In    13      S                    0.712     0.712    -0.000
     In    13      Px                   0.243     0.243     0.000
     In    13      Py                   0.234     0.234     0.000
     In    13      Pz                   0.241     0.241     0.000
     In    13      S                   -0.233    -0.233    -0.000
     In    14      Dzz                  0.999     0.999    -0.000
     In    14      Dzy                  0.998     0.998     0.000
     In    14      Dzx                  0.998     0.998     0.000
     In    14      Dxx-yy               1.000     1.000     0.000
     In    14      Dxy                  0.998     0.998     0.000
     In    14      S                    0.684     0.684    -0.000
     In    14      Px                   0.250     0.250     0.000
     In    14      Py                   0.248     0.248    -0.000
     In    14      Pz                   0.240     0.240    -0.000
     In    14      S                   -0.200    -0.200    -0.000
     In    15      Dzz                  1.000     1.000     0.000
     In    15      Dzy                  0.998     0.998     0.000
     In    15      Dzx                  0.998     0.998    -0.000
     In    15      Dxx-yy               1.000     1.000    -0.000
     In    15      Dxy                  0.999     0.999    -0.000
     In    15      S                    0.709     0.709    -0.000
     In    15      Px                   0.238     0.238    -0.000
     In    15      Py                   0.237     0.237    -0.000
     In    15      Pz                   0.241     0.241     0.000
     In    15      S                   -0.263    -0.263     0.000
     In    16      Dzz                  1.000     1.000    -0.000
     In    16      Dzy                  0.998     0.998     0.000
     In    16      Dzx                  0.999     0.999     0.000
     In    16      Dxx-yy               1.000     1.000     0.000
     In    16      Dxy                  0.999     0.999     0.000
     In    16      S                    0.711     0.711     0.000
     In    16      Px                   0.238     0.238     0.000
     In    16      Py                   0.239     0.239     0.000
     In    16      Pz                   0.240     0.240     0.000
     In    16      S                   -0.258    -0.258     0.000
     In    17      Dzz                  1.000     1.000    -0.000
     In    17      Dzy                  0.999     0.999     0.000
     In    17      Dzx                  0.998     0.998     0.000
     In    17      Dxx-yy               1.000     1.000     0.000
     In    17      Dxy                  0.999     0.999     0.000
     In    17      S                    0.705     0.705     0.000
     In    17      Px                   0.238     0.238    -0.000
     In    17      Py                   0.236     0.236     0.000
     In    17      Pz                   0.240     0.240     0.000
     In    17      S                   -0.255    -0.255    -0.000
     In    18      Dzz                  1.000     1.000    -0.000
     In    18      Dzy                  0.998     0.998     0.000
     In    18      Dzx                  0.999     0.999     0.000
     In    18      Dxx-yy               1.000     1.000    -0.000
     In    18      Dxy                  0.998     0.998     0.000
     In    18      S                    0.710     0.710    -0.000
     In    18      Px                   0.238     0.238     0.000
     In    18      Py                   0.243     0.243     0.000
     In    18      Pz                   0.238     0.238     0.000
     In    18      S                   -0.262    -0.262     0.000
     In    19      Dzz                  1.000     1.000    -0.000
     In    19      Dzy                  0.999     0.999     0.000
     In    19      Dzx                  0.999     0.999     0.000
     In    19      Dxx-yy               0.999     0.999    -0.000
     In    19      Dxy                  0.999     0.999     0.000
     In    19      S                    0.709     0.709    -0.000
     In    19      Px                   0.233     0.233     0.000
     In    19      Py                   0.241     0.241     0.000
     In    19      Pz                   0.237     0.237     0.000
     In    19      S                   -0.228    -0.228     0.000
     In    20      Dzz                  1.000     1.000    -0.000
     In    20      Dzy                  0.998     0.998     0.000
     In    20      Dzx                  0.998     0.998     0.000
     In    20      Dxx-yy               1.000     1.000    -0.000
     In    20      Dxy                  0.998     0.998     0.000
     In    20      S                    0.707     0.707    -0.000
     In    20      Px                   0.239     0.239     0.000
     In    20      Py                   0.247     0.247    -0.000
     In    20      Pz                   0.238     0.238     0.000
     In    20      S                   -0.255    -0.255    -0.000
     In    21      Dzz                  1.000     1.000    -0.000
     In    21      Dzy                  0.999     0.999     0.000
     In    21      Dzx                  0.999     0.999    -0.000
     In    21      Dxx-yy               1.000     1.000    -0.000
     In    21      Dxy                  0.998     0.998     0.000
     In    21      S                    0.712     0.712    -0.000
     In    21      Px                   0.234     0.234     0.000
     In    21      Py                   0.243     0.243     0.000
     In    21      Pz                   0.241     0.241     0.000
     In    21      S                   -0.233    -0.233     0.000
     In    22      Dzz                  1.000     1.000     0.000
     In    22      Dzy                  0.998     0.998    -0.000
     In    22      Dzx                  0.998     0.998     0.000
     In    22      Dxx-yy               1.000     1.000    -0.000
     In    22      Dxy                  0.999     0.999     0.000
     In    22      S                    0.709     0.709    -0.000
     In    22      Px                   0.237     0.237    -0.000
     In    22      Py                   0.238     0.238    -0.000
     In    22      Pz                   0.241     0.241     0.000
     In    22      S                   -0.263    -0.263     0.000
     In    23      Dzz                  0.999     0.999    -0.000
     In    23      Dzy                  0.998     0.998     0.000
     In    23      Dzx                  0.998     0.998     0.000
     In    23      Dxx-yy               1.000     1.000     0.000
     In    23      Dxy                  0.998     0.998     0.000
     In    23      S                    0.684     0.684    -0.000
     In    23      Px                   0.248     0.248    -0.000
     In    23      Py                   0.250     0.250     0.000
     In    23      Pz                   0.240     0.240    -0.000
     In    23      S                   -0.200    -0.200    -0.000
     In    24      Dzz                  1.000     1.000    -0.000
     In    24      Dzy                  0.999     0.999     0.000
     In    24      Dzx                  0.998     0.998     0.000
     In    24      Dxx-yy               1.000     1.000     0.000
     In    24      Dxy                  0.999     0.999     0.000
     In    24      S                    0.711     0.711     0.000
     In    24      Px                   0.239     0.239    -0.000
     In    24      Py                   0.238     0.238     0.000
     In    24      Pz                   0.240     0.240     0.000
     In    24      S                   -0.258    -0.258     0.000
     In    25      Dzz                  1.000     1.000     0.000
     In    25      Dzy                  0.999     0.999    -0.000
     In    25      Dzx                  0.999     0.999    -0.000
     In    25      Dxx-yy               1.000     1.000     0.000
     In    25      Dxy                  0.998     0.998     0.000
     In    25      S                    0.705     0.705     0.000
     In    25      Px                   0.243     0.243    -0.000
     In    25      Py                   0.243     0.243    -0.000
     In    25      Pz                   0.232     0.232    -0.000
     In    25      S                   -0.266    -0.266    -0.000
     In    26      Dzz                  1.000     1.000     0.000
     In    26      Dzy                  0.999     0.999    -0.000
     In    26      Dzx                  0.998     0.998     0.000
     In    26      Dxx-yy               0.999     0.999    -0.000
     In    26      Dxy                  0.999     0.999     0.000
     In    26      S                    0.693     0.693     0.000
     In    26      Px                   0.242     0.242    -0.000
     In    26      Py                   0.239     0.239    -0.000
     In    26      Pz                   0.243     0.243     0.000
     In    26      S                   -0.239    -0.239    -0.000
     In    27      Dzz                  1.000     1.000    -0.000
     In    27      Dzy                  0.998     0.998     0.000
     In    27      Dzx                  0.999     0.999     0.000
     In    27      Dxx-yy               0.999     0.999    -0.000
     In    27      Dxy                  0.999     0.999     0.000
     In    27      S                    0.693     0.693     0.000
     In    27      Px                   0.239     0.239    -0.000
     In    27      Py                   0.242     0.242    -0.000
     In    27      Pz                   0.243     0.243     0.000
     In    27      S                   -0.239    -0.239    -0.000
     In    28      Dzz                  1.000     1.000    -0.000
     In    28      Dzy                  0.998     0.998    -0.000
     In    28      Dzx                  0.998     0.998    -0.000
     In    28      Dxx-yy               1.000     1.000    -0.000
     In    28      Dxy                  0.999     0.999     0.000
     In    28      S                    0.706     0.706     0.000
     In    28      Px                   0.238     0.238    -0.000
     In    28      Py                   0.238     0.238    -0.000
     In    28      Pz                   0.240     0.240    -0.000
     In    28      S                   -0.244    -0.244     0.000
     In    29      Dzz                  1.000     1.000    -0.000
     In    29      Dzy                  0.999     0.999    -0.000
     In    29      Dzx                  0.999     0.999     0.000
     In    29      Dxx-yy               1.000     1.000    -0.000
     In    29      Dxy                  0.998     0.998     0.000
     In    29      S                    0.708     0.708    -0.000
     In    29      Px                   0.243     0.243    -0.000
     In    29      Py                   0.236     0.236    -0.000
     In    29      Pz                   0.236     0.236    -0.000
     In    29      S                   -0.257    -0.257     0.000
     In    30      Dzz                  1.000     1.000    -0.000
     In    30      Dzy                  0.999     0.999    -0.000
     In    30      Dzx                  0.999     0.999    -0.000
     In    30      Dxx-yy               1.000     1.000    -0.000
     In    30      Dxy                  0.998     0.998     0.000
     In    30      S                    0.708     0.708    -0.000
     In    30      Px                   0.236     0.236    -0.000
     In    30      Py                   0.243     0.243    -0.000
     In    30      Pz                   0.236     0.236    -0.000
     In    30      S                   -0.257    -0.257     0.000
     In    31      Dzz                  1.000     1.000     0.000
     In    31      Dzy                  0.999     0.999     0.000
     In    31      Dzx                  0.999     0.999     0.000
     In    31      Dxx-yy               1.000     1.000    -0.000
     In    31      Dxy                  0.999     0.999    -0.000
     In    31      S                    0.727     0.727    -0.000
     In    31      Px                   0.226     0.226    -0.000
     In    31      Py                   0.226     0.226    -0.000
     In    31      Pz                   0.221     0.221     0.000
     In    31      S                   -0.236    -0.236    -0.000
  ---------------------------------------------------------------
                           Total:     281.500   281.500    -0.000
  ---------------------------------------------------------------

     Atomic Populations (Mulliken)
     -----------------------------
Species          Ion Spin      s       p       d       f      Total   Charge(e)   Spin(hbar/2)
==============================================================================================
  P               1   up:     0.902   1.876   0.000   0.000   2.779    -0.558       -0.000
                  1   dn:     0.902   1.876   0.000   0.000   2.779
  P               2   up:     0.873   1.954   0.000   0.000   2.827    -0.655        0.000
                  2   dn:     0.873   1.954   0.000   0.000   2.827
  P               3   up:     0.873   1.954   0.000   0.000   2.827    -0.655        0.000
                  3   dn:     0.873   1.954   0.000   0.000   2.827
  P               4   up:     0.882   1.836   0.000   0.000   2.718    -0.436       -0.000
                  4   dn:     0.882   1.836   0.000   0.000   2.718
  P               5   up:     0.870   1.964   0.000   0.000   2.834    -0.668        0.000
                  5   dn:     0.870   1.964   0.000   0.000   2.834
  P               6   up:     0.898   1.894   0.000   0.000   2.792    -0.584       -0.000
                  6   dn:     0.898   1.894   0.000   0.000   2.792
  P               7   up:     0.898   1.894   0.000   0.000   2.792    -0.584       -0.000
                  7   dn:     0.898   1.894   0.000   0.000   2.792
  P               8   up:     0.871   1.957   0.000   0.000   2.828    -0.656        0.000
                  8   dn:     0.871   1.957   0.000   0.000   2.828
  P               9   up:     0.868   1.966   0.000   0.000   2.835    -0.669       -0.000
                  9   dn:     0.868   1.966   0.000   0.000   2.835
  P              10   up:     0.867   1.964   0.000   0.000   2.831    -0.663        0.000
                 10   dn:     0.867   1.964   0.000   0.000   2.831
  P              11   up:     0.871   1.958   0.000   0.000   2.830    -0.660       -0.000
                 11   dn:     0.871   1.959   0.000   0.000   2.830
  P              12   up:     0.870   1.962   0.000   0.000   2.832    -0.665       -0.000
                 12   dn:     0.870   1.962   0.000   0.000   2.832
  P              13   up:     0.869   1.961   0.000   0.000   2.830    -0.660        0.000
                 13   dn:     0.869   1.961   0.000   0.000   2.830
  P              14   up:     0.875   1.951   0.000   0.000   2.826    -0.652       -0.000
                 14   dn:     0.875   1.951   0.000   0.000   2.826
  P              15   up:     0.871   1.960   0.000   0.000   2.831    -0.661       -0.000
                 15   dn:     0.871   1.960   0.000   0.000   2.831
  P              16   up:     0.874   1.952   0.000   0.000   2.826    -0.652       -0.000
                 16   dn:     0.874   1.952   0.000   0.000   2.826
  P              17   up:     0.868   1.966   0.000   0.000   2.835    -0.669       -0.000
                 17   dn:     0.868   1.966   0.000   0.000   2.835
  P              18   up:     0.871   1.959   0.000   0.000   2.830    -0.660       -0.000
                 18   dn:     0.871   1.959   0.000   0.000   2.830
  P              19   up:     0.867   1.964   0.000   0.000   2.831    -0.663        0.000
                 19   dn:     0.867   1.964   0.000   0.000   2.831
  P              20   up:     0.870   1.962   0.000   0.000   2.832    -0.665       -0.000
                 20   dn:     0.870   1.962   0.000   0.000   2.832
  P              21   up:     0.869   1.961   0.000   0.000   2.830    -0.660        0.000
                 21   dn:     0.869   1.961   0.000   0.000   2.830
  P              22   up:     0.871   1.960   0.000   0.000   2.831    -0.661       -0.000
                 22   dn:     0.871   1.960   0.000   0.000   2.831
  P              23   up:     0.875   1.951   0.000   0.000   2.826    -0.652       -0.000
                 23   dn:     0.875   1.951   0.000   0.000   2.826
  P              24   up:     0.874   1.952   0.000   0.000   2.826    -0.652       -0.000
                 24   dn:     0.874   1.952   0.000   0.000   2.826
  P              25   up:     0.889   1.847   0.000   0.000   2.736    -0.472       -0.000
                 25   dn:     0.889   1.847   0.000   0.000   2.736
  P              26   up:     0.870   1.960   0.000   0.000   2.830    -0.661        0.000
                 26   dn:     0.870   1.960   0.000   0.000   2.830
  P              27   up:     0.870   1.960   0.000   0.000   2.830    -0.661        0.000
                 27   dn:     0.870   1.960   0.000   0.000   2.830
  P              28   up:     0.877   1.946   0.000   0.000   2.823    -0.646        0.000
                 28   dn:     0.877   1.946   0.000   0.000   2.823
  P              29   up:     0.869   1.964   0.000   0.000   2.833    -0.667        0.000
                 29   dn:     0.869   1.964   0.000   0.000   2.833
  P              30   up:     0.875   1.954   0.000   0.000   2.829    -0.658        0.000
                 30   dn:     0.875   1.954   0.000   0.000   2.829
  P              31   up:     0.875   1.954   0.000   0.000   2.829    -0.658        0.000
                 31   dn:     0.875   1.954   0.000   0.000   2.829
  P              32   up:     0.869   1.966   0.000   0.000   2.834    -0.669       -0.000
                 32   dn:     0.869   1.966   0.000   0.000   2.834
  In              1   up:     0.451   0.720   4.995   0.000   6.166     0.668        0.000
                  1   dn:     0.451   0.720   4.995   0.000   6.166
  In              2   up:     0.466   0.724   4.995   0.000   6.185     0.630        0.000
                  2   dn:     0.466   0.724   4.995   0.000   6.185
  In              3   up:     0.466   0.724   4.995   0.000   6.185     0.630        0.000
                  3   dn:     0.466   0.724   4.995   0.000   6.185
  In              4   up:     0.439   0.721   4.995   0.000   6.155     0.691        0.000
                  4   dn:     0.439   0.721   4.995   0.000   6.155
  In              5   up:     0.468   0.729   4.994   0.000   6.191     0.617        0.000
                  5   dn:     0.468   0.729   4.994   0.000   6.191
  In              6   up:     0.465   0.710   4.995   0.000   6.170     0.660       -0.000
                  6   dn:     0.465   0.710   4.995   0.000   6.170
  In              7   up:     0.465   0.710   4.995   0.000   6.170     0.660        0.000
                  7   dn:     0.465   0.710   4.995   0.000   6.170
  In              8   up:     0.444   0.652   4.997   0.000   6.093     0.815        0.000
                  8   dn:     0.444   0.652   4.997   0.000   6.093
  In              9   up:     0.450   0.713   4.995   0.000   6.158     0.684       -0.000
                  9   dn:     0.450   0.713   4.995   0.000   6.158
  In             10   up:     0.481   0.711   4.995   0.000   6.187     0.627       -0.000
                 10   dn:     0.481   0.711   4.995   0.000   6.187
  In             11   up:     0.448   0.719   4.995   0.000   6.161     0.678        0.000
                 11   dn:     0.448   0.719   4.995   0.000   6.161
  In             12   up:     0.452   0.723   4.994   0.000   6.169     0.661       -0.000
                 12   dn:     0.452   0.723   4.994   0.000   6.169
  In             13   up:     0.478   0.717   4.995   0.000   6.190     0.620        0.000
                 13   dn:     0.478   0.717   4.995   0.000   6.190
  In             14   up:     0.484   0.737   4.994   0.000   6.216     0.568        0.000
                 14   dn:     0.484   0.737   4.994   0.000   6.216
  In             15   up:     0.446   0.716   4.995   0.000   6.157     0.686       -0.000
                 15   dn:     0.446   0.716   4.995   0.000   6.157
  In             16   up:     0.453   0.717   4.995   0.000   6.166     0.669        0.000
                 16   dn:     0.453   0.717   4.995   0.000   6.165
  In             17   up:     0.450   0.713   4.995   0.000   6.158     0.684        0.000
                 17   dn:     0.450   0.713   4.995   0.000   6.158
  In             18   up:     0.448   0.719   4.995   0.000   6.161     0.678        0.000
                 18   dn:     0.448   0.719   4.995   0.000   6.161
  In             19   up:     0.481   0.711   4.995   0.000   6.187     0.627        0.000
                 19   dn:     0.481   0.711   4.995   0.000   6.187
  In             20   up:     0.452   0.723   4.994   0.000   6.169     0.661       -0.000
                 20   dn:     0.452   0.723   4.994   0.000   6.169
  In             21   up:     0.478   0.717   4.995   0.000   6.190     0.620       -0.000
                 21   dn:     0.478   0.717   4.995   0.000   6.190
  In             22   up:     0.446   0.716   4.995   0.000   6.157     0.686       -0.000
                 22   dn:     0.446   0.716   4.995   0.000   6.157
  In             23   up:     0.484   0.737   4.994   0.000   6.216     0.568        0.000
                 23   dn:     0.484   0.737   4.994   0.000   6.216
  In             24   up:     0.453   0.717   4.995   0.000   6.166     0.669        0.000
                 24   dn:     0.453   0.717   4.995   0.000   6.165
  In             25   up:     0.438   0.719   4.995   0.000   6.152     0.697        0.000
                 25   dn:     0.438   0.719   4.995   0.000   6.152
  In             26   up:     0.454   0.724   4.995   0.000   6.172     0.655        0.000
                 26   dn:     0.454   0.724   4.995   0.000   6.172
  In             27   up:     0.454   0.724   4.995   0.000   6.172     0.655        0.000
                 27   dn:     0.454   0.724   4.995   0.000   6.172
  In             28   up:     0.462   0.717   4.995   0.000   6.174     0.652       -0.000
                 28   dn:     0.462   0.717   4.995   0.000   6.174
  In             29   up:     0.451   0.715   4.995   0.000   6.160     0.679       -0.000
                 29   dn:     0.451   0.715   4.995   0.000   6.161
  In             30   up:     0.451   0.715   4.995   0.000   6.160     0.679       -0.000
                 30   dn:     0.451   0.715   4.995   0.000   6.161
  In             31   up:     0.491   0.674   4.996   0.000   6.161     0.679       -0.000
                 31   dn:     0.491   0.674   4.996   0.000   6.161
==============================================================================================

                 Bond                   Population        Spin       Length (A)
================================================================================
              P 4  -- P 25                   0.51         0.00          2.41799
              P 13 -- In 14                  0.73         0.00          2.51410
              P 21 -- In 23                  0.73         0.00          2.51410
              P 4  -- In 8                   0.77        -0.00          2.51732
              P 19 -- In 20                  0.67        -0.00          2.53271
              P 10 -- In 12                  0.67        -0.00          2.53271
              P 1  -- In 3                   0.78        -0.00          2.53608
              P 1  -- In 2                   0.78        -0.00          2.53608
              P 19 -- In 19                  0.63         0.00          2.53688
              P 10 -- In 10                  0.63         0.00          2.53688
              P 1  -- In 5                   0.78        -0.00          2.54467
              P 8  -- In 25                  0.69        -0.00          2.54555
              P 17 -- In 19                  0.68         0.00          2.54564
              P 9  -- In 10                  0.68         0.00          2.54564
              P 32 -- In 15                  0.66        -0.00          2.54587
              P 32 -- In 22                  0.66        -0.00          2.54587
              P 24 -- In 20                  0.65        -0.00          2.54876
              P 16 -- In 12                  0.65        -0.00          2.54876
              P 8  -- In 4                   0.68         0.00          2.55009
              P 13 -- In 12                  0.62        -0.00          2.55522
              P 21 -- In 20                  0.62         0.00          2.55522
              P 23 -- In 23                  0.59         0.00          2.55527
              P 14 -- In 14                  0.59         0.00          2.55527
              P 29 -- In 25                  0.65         0.00          2.55593
              P 7  -- In 14                  0.66        -0.00          2.55621
              P 6  -- In 23                  0.66        -0.00          2.55621
              P 29 -- In 28                  0.65        -0.00          2.55702
              P 17 -- In 18                  0.65         0.00          2.55734
              P 9  -- In 11                  0.65         0.00          2.55734
              P 27 -- In 17                  0.64         0.00          2.55810
              P 26 -- In 9                   0.64        -0.00          2.55810
              P 6  -- In 21                  0.70         0.00          2.55872
              P 7  -- In 13                  0.70         0.00          2.55872
              P 18 -- In 1                   0.64        -0.00          2.55896
              P 11 -- In 1                   0.64        -0.00          2.55896
              P 28 -- In 18                  0.64         0.00          2.55981
              P 28 -- In 11                  0.64         0.00          2.55981
              P 19 -- In 26                  0.63         0.00          2.56030
              P 10 -- In 27                  0.63        -0.00          2.56030
              P 14 -- In 16                  0.67         0.00          2.56068
              P 23 -- In 24                  0.67         0.00          2.56068
              P 26 -- In 11                  0.65         0.00          2.56113
              P 27 -- In 18                  0.65         0.00          2.56113
              P 30 -- In 29                  0.64        -0.00          2.56150
              P 31 -- In 30                  0.64        -0.00          2.56150
              P 10 -- In 25                  0.66         0.00          2.56189
              P 19 -- In 25                  0.66         0.00          2.56189
              P 27 -- In 28                  0.63        -0.00          2.56235
              P 26 -- In 28                  0.63         0.00          2.56235
              P 27 -- In 27                  0.67         0.00          2.56251
              P 26 -- In 26                  0.67         0.00          2.56251
              P 9  -- In 16                  0.63         0.00          2.56273
              P 17 -- In 24                  0.63         0.00          2.56273
              P 29 -- In 30                  0.65         0.00          2.56384
              P 29 -- In 29                  0.65         0.00          2.56384
              P 5  -- In 1                   0.66         0.00          2.56385
              P 22 -- In 22                  0.67        -0.00          2.56425
              P 15 -- In 15                  0.67        -0.00          2.56425
              P 21 -- In 22                  0.64         0.00          2.56447
              P 13 -- In 15                  0.64         0.00          2.56447
              P 32 -- In 28                  0.63        -0.00          2.56474
              P 11 -- In 12                  0.62        -0.00          2.56479
              P 18 -- In 20                  0.62        -0.00          2.56479
              P 11 -- In 11                  0.66         0.00          2.56481
              P 18 -- In 18                  0.66         0.00          2.56481
              P 3  -- In 4                   0.64         0.00          2.56543
              P 2  -- In 4                   0.64         0.00          2.56543
              P 5  -- In 7                   0.63         0.00          2.56553
              P 5  -- In 6                   0.63         0.00          2.56553
              P 20 -- In 24                  0.64        -0.00          2.56715
              P 12 -- In 16                  0.64        -0.00          2.56715
              P 32 -- In 1                   0.64         0.00          2.56720
              P 20 -- In 3                   0.63        -0.00          2.56732
              P 12 -- In 2                   0.63        -0.00          2.56732
              P 20 -- In 26                  0.66         0.00          2.56808
              P 12 -- In 27                  0.66         0.00          2.56808
              P 17 -- In 21                  0.62        -0.00          2.56828
              P 9  -- In 13                  0.62        -0.00          2.56828
              P 23 -- In 29                  0.69        -0.00          2.56899
              P 14 -- In 30                  0.69        -0.00          2.56899
              P 13 -- In 9                   0.63         0.00          2.57042
              P 21 -- In 17                  0.63         0.00          2.57042
              P 20 -- In 13                  0.64         0.00          2.57061
              P 12 -- In 21                  0.64         0.00          2.57061
              P 22 -- In 24                  0.63         0.00          2.57170
              P 15 -- In 16                  0.63         0.00          2.57170
              P 28 -- In 5                   0.60         0.00          2.57343
              P 22 -- In 5                   0.62        -0.00          2.57388
              P 15 -- In 5                   0.62         0.00          2.57388
              P 2  -- In 19                  0.68        -0.00          2.57608
              P 3  -- In 10                  0.68        -0.00          2.57608
              P 24 -- In 9                   0.65         0.00          2.57667
              P 16 -- In 17                  0.65         0.00          2.57667
              P 31 -- In 22                  0.64         0.00          2.57742
              P 30 -- In 15                  0.64         0.00          2.57742
              P 25 -- In 27                  0.67         0.00          2.57751
              P 25 -- In 26                  0.67         0.00          2.57751
              P 15 -- In 6                   0.66        -0.00          2.57784
              P 22 -- In 7                   0.66        -0.00          2.57784
              P 5  -- In 4                   0.64         0.00          2.57836
              P 31 -- In 31                  0.65        -0.00          2.57891
              P 30 -- In 31                  0.65        -0.00          2.57892
              P 18 -- In 3                   0.62         0.00          2.57974
              P 11 -- In 2                   0.62         0.00          2.57974
              P 2  -- In 17                  0.65        -0.00          2.58026
              P 3  -- In 9                   0.65        -0.00          2.58026
              P 16 -- In 30                  0.63        -0.00          2.59264
              P 24 -- In 29                  0.63        -0.00          2.59264
              P 30 -- In 13                  0.57         0.00          2.59474
              P 31 -- In 21                  0.57        -0.00          2.59474
              P 3  -- In 3                   0.59         0.00          2.59584
              P 2  -- In 2                   0.59        -0.00          2.59584
              P 16 -- In 6                   0.61        -0.00          2.59928
              P 24 -- In 7                   0.61        -0.00          2.59928
              P 7  -- In 7                   0.69        -0.00          2.60709
              P 6  -- In 6                   0.69        -0.00          2.60709
              P 8  -- In 14                  0.62         0.00          2.61075
              P 8  -- In 23                  0.62        -0.00          2.61075
              P 28 -- In 31                  0.61        -0.00          2.61788
              P 4  -- In 19                  0.54        -0.00          2.63696
              P 4  -- In 10                  0.54         0.00          2.63696
              P 14 -- In 8                   0.48        -0.00          2.68727
              P 23 -- In 8                   0.48        -0.00          2.68727
              P 25 -- In 31                  0.37         0.00          2.87292
================================================================================

 Hirshfeld supercell size:           2           2           2
Standard grid dimensions: 240 240 240
Fine grid dimensions:     240 240 240


     Hirshfeld Analysis
     ------------------
Species   Ion     Hirshfeld Charge (e)  Spin (hbar/2)
===================================================
  P        1                -0.23       -0.00
  P        2                -0.23        0.00
  P        3                -0.23        0.00
  P        4                -0.12       -0.00
  P        5                -0.24        0.00
  P        6                -0.23       -0.00
  P        7                -0.23       -0.00
  P        8                -0.24       -0.00
  P        9                -0.24        0.00
  P       10                -0.24        0.00
  P       11                -0.23        0.00
  P       12                -0.24        0.00
  P       13                -0.23       -0.00
  P       14                -0.25       -0.00
  P       15                -0.23       -0.00
  P       16                -0.23       -0.00
  P       17                -0.24        0.00
  P       18                -0.23        0.00
  P       19                -0.24        0.00
  P       20                -0.24        0.00
  P       21                -0.23       -0.00
  P       22                -0.23       -0.00
  P       23                -0.25       -0.00
  P       24                -0.23       -0.00
  P       25                -0.15       -0.00
  P       26                -0.23        0.00
  P       27                -0.23        0.00
  P       28                -0.22        0.00
  P       29                -0.24       -0.00
  P       30                -0.23       -0.00
  P       31                -0.23       -0.00
  P       32                -0.24       -0.00
  In       1                 0.24        0.00
  In       2                 0.22        0.00
  In       3                 0.22        0.00
  In       4                 0.23        0.00
  In       5                 0.22        0.00
  In       6                 0.24       -0.00
  In       7                 0.24       -0.00
  In       8                 0.28       -0.00
  In       9                 0.24        0.00
  In      10                 0.25        0.00
  In      11                 0.24        0.00
  In      12                 0.23        0.00
  In      13                 0.23       -0.00
  In      14                 0.20       -0.00
  In      15                 0.24       -0.00
  In      16                 0.23       -0.00
  In      17                 0.24        0.00
  In      18                 0.24        0.00
  In      19                 0.25        0.00
  In      20                 0.23        0.00
  In      21                 0.23       -0.00
  In      22                 0.24       -0.00
  In      23                 0.20       -0.00
  In      24                 0.23       -0.00
  In      25                 0.23       -0.00
  In      26                 0.22        0.00
  In      27                 0.22        0.00
  In      28                 0.24       -0.00
  In      29                 0.24       -0.00
  In      30                 0.24       -0.00
  In      31                 0.28       -0.00
===================================================

 
 A BibTeX formatted list of references used in this run has been written to 
 In_Vacancy_Migration_15->60_Singlepoints_4.bib
 
Initialisation time =     30.07 s
Calculation time    =   8398.72 s
Finalisation time   =    159.97 s
Total time          =   8588.75 s
Peak Memory Use     = 9516980 kB
 
Overall parallel efficiency rating: Terrible (34%)
 
Data was distributed by:-
G-vector (3-way); efficiency rating: Poor (37%)
k-point (36-way); efficiency rating: Very good (80%)
