 +-------------------------------------------------+
 |                                                 |
 |      CCC   AA    SSS  TTTTT  EEEEE  PPPP        |
 |     C     A  A  S       T    E      P   P       |
 |     C     AAAA   SS     T    EEE    PPPP        |
 |     C     A  A     S    T    E      P           |
 |      CCC  A  A  SSS     T    EEEEE  P           |
 |                                                 |
 +-------------------------------------------------+
 |                                                 |
 | Welcome to Academic Release CASTEP version 24.1 |
 | Ab Initio Total Energy Program                  |
 |                                                 |
 | Authors:                                        |
 | M. Segall, M. Probert, C. Pickard, P. Hasnip,   |
 | S. Clark, K. Refson, J. R. Yates,               |
 | A. Bartok-Partay, M. Payne                      |
 |                                                 |
 | Contributors:                                   |
 | P. Lindan, P. Haynes, J. White, V. Milman,      |
 | N. Govind, M. Gibson, P. Tulip, V. Cocula,      |
 | B. Montanari, D. Quigley, M. Glover,            |
 | L. Bernasconi, A. Perlov, M. Plummer,           |
 | E. McNellis, J. Meyer, J. Gale, D. Jochym       |
 | J. Aarons, B. Walker, R. Gillen, D. Jones       |
 | T. Green, I. J. Bush, C. J. Armstrong,          |
 | E. J. Higgins, E. L. Brown, M. S. McFly,        |
 | J. Wilkins, B-C. Shih, P. J. P. Byrne,          |
 | R. J. Maurer, J. C. Womack, J. Dziedzic,        |
 | L. LeBlanc, T. K. Stenczel, J. Kermode,         |
 | S. Sturniolo, B. Shi, B. Durham, M. Evans,      |
 | M. J. Smith, A. Tamerus, Z. Hawkhead,           |
 | V. Ravindran, T. Hollins, S. A. Joyce,          |
 | R. T. Strong, A. M. Reilly, S. J. Donaldson     |
 |                                                 |
 | Copyright (c) 2000 - 2023                       |
 |                                                 |
 |     Distributed under license from Cambridge    |
 |     Enterprise for academic use only.           |
 |                                                 |
 | Please cite                                     |
 |                                                 |
 |     "First principles methods using CASTEP"     |
 |                                                 |
 |         Zeitschrift fuer Kristallographie       |
 |           220(5-6) pp. 567-570 (2005)           |
 |                                                 |
 | S. J. Clark, M. D. Segall, C. J. Pickard,       |
 | P. J. Hasnip, M. J. Probert, K. Refson,         |
 | M. C. Payne                                     |
 |                                                 |
 |       in all publications arising from          |
 |              your use of CASTEP                 |
 |                                                 |
 +-------------------------------------------------+
 |                                                 |
 |              http://www.castep.org              |
 |                                                 |
 +-------------------------------------------------+



 Compiled for  GNU 11.2.0 on 04-04-2024 18:39:17
 from code version 6355fd106 Castep241_branch Thu Mar 7 17:56:19 2024 +0000
 Compiler: GNU Fortran 11.2.0; Optimisation: FAST
 Comms   : MPI VERSION : CRAY MPICH version 8.1.23.14 (ANL base 3.4a2)
 MATHLIBS: default (LAPACK version 3.10.1)
 FFT Lib : fftw3 version commercial-fftw-3.3.10-sse2-avx-avx2-avx2_128
 Fundamental constants values: CODATA 2018

 Run started: Sun, 19 Jan 2025 02:51:00 +0000

 Atomic calculation performed for P: 1s2 2s2 2p6 3s2 3p3

 Converged in 47 iterations to an ae energy of -9309.074 eV

   ============================================================                
   | Pseudopotential Report - Date of generation 19-01-2025   |                
   ------------------------------------------------------------                
   | Element: P Ionic charge:  5.00 Level of theory: RSCAN    |                
   | Atomic Solver: Koelling-Harmon                           |                
   |                                                          |                
   |               Reference Electronic Structure             |                
   |         Orbital         Occupation         Energy        |                
   |            3s              2.000           -0.535        |                
   |            3p              3.000           -0.209        |                
   |                                                          |                
   |                 Pseudopotential Definition               |                
   |        Beta     l      e      Rc     scheme   norm       |                
   |          1      0   -0.535   1.807     qc      0         |                
   |          2      0    0.250   1.807     qc      0         |                
   |          3      1   -0.209   1.807     qc      0         |                
   |          4      1    0.250   1.807     qc      0         |                
   |          5      2    0.000   1.807     qc      0         |                
   |          6      2    0.250   1.807     qc      0         |                
   |         loc     3    0.000   1.807     pn      0         |                
   |                                                          |                
   | Augmentation charge Rinner = 1.263                       |                
   | Partial core correction Rc = 1.263                       |                
   ------------------------------------------------------------                
   | "3|1.8|4|4|5|30:31:32"                                   |                
   ------------------------------------------------------------                
   |      Author: Chris J. Pickard, Cambridge University      |                
   ============================================================                
 Warning: otfg_output_psp cannot write out meta-GGA pseudopotentials presently.

 Atomic calculation performed for In:
 1s2 2s2 2p6 3s2 3p6 3d10 4s2 4p6 4d10 5s2 5p1

 Converged in 84 iterations to an ae energy of -160093.328 eV

   ============================================================                
   | Pseudopotential Report - Date of generation 19-01-2025   |                
   ------------------------------------------------------------                
   | Element: In Ionic charge: 13.00 Level of theory: RSCAN   |                
   | Atomic Solver: Koelling-Harmon                           |                
   |                                                          |                
   |               Reference Electronic Structure             |                
   |         Orbital         Occupation         Energy        |                
   |            4d             10.000           -0.711        |                
   |            5s              2.000           -0.313        |                
   |            5p              1.000           -0.095        |                
   |                                                          |                
   |                 Pseudopotential Definition               |                
   |        Beta     l      e      Rc     scheme   norm       |                
   |          1      0   -0.313   2.501     qc      0         |                
   |          2      0    0.250   2.501     qc      0         |                
   |          3      1   -0.095   2.501     qc      0         |                
   |          4      1    0.250   2.501     qc      0         |                
   |          5      2   -0.711   2.207     qc      0         |                
   |          6      2    0.250   2.207     qc      0         |                
   |         loc     3    0.000   2.501     pn      0         |                
   |                                                          |                
   | Augmentation charge Rinner = 1.504                       |                
   | Partial core correction Rc = 1.504                       |                
   ------------------------------------------------------------                
   | "3|2.5|2.5|1.5|7|8|9|50:51:42U2.2U2.2"                   |                
   ------------------------------------------------------------                
   |      Author: Chris J. Pickard, Cambridge University      |                
   ============================================================                
 Warning: otfg_output_psp cannot write out meta-GGA pseudopotentials presently.

 Pseudo atomic calculation performed for P 3s2 3p3

 Converged in 23 iterations to a total energy of -208.0292 eV

 Pseudo atomic calculation performed for In 4d10 5s2 5p1

 Converged in 42 iterations to a total energy of -1747.4501 eV
 Calculation parallelised over 64 processes.
 Data is distributed by k-point(64-way)
 Each process may use up to 16 threads.

 ************************************ Title ************************************
 

 ***************************** General Parameters ******************************
  
 output verbosity                               : normal  (1)
 write checkpoint data to                       : StackingFaultStructs_110_1-10_4.check
 type of calculation                            : geometry optimization
 stress calculation                             : off
 density difference calculation                 : off
 electron localisation func (ELF) calculation   : off
 Hirshfeld analysis                             : on
 polarisation (Berry phase) analysis            : off
 molecular orbital projected DOS                : off
 deltaSCF calculation                           : off
 unlimited duration calculation
 timing information                             : on
 memory usage estimate                          : on
 write extra output files                       : on
 write final potential to formatted file        : off
 write final density to formatted file          : off
 write BibTeX reference list                    : on
 write OTFG pseudopotential files               : on
 write electrostatic potential file             : on
 write bands file                               : on
 checkpoint writing                             : off
  
 output         length unit                     : A
 output           mass unit                     : amu
 output           time unit                     : ps
 output         charge unit                     : e
 output           spin unit                     : hbar/2
 output         energy unit                     : eV
 output          force unit                     : eV/A
 output       velocity unit                     : A/ps
 output       pressure unit                     : GPa
 output     inv_length unit                     : 1/A
 output      frequency unit                     : cm-1
 output force constant unit                     : eV/A**2
 output         volume unit                     : A**3
 output   IR intensity unit                     : (D/A)**2/amu
 output         dipole unit                     : D
 output         efield unit                     : eV/A/e
 output        entropy unit                     : J/mol/K
 output    efield chi2 unit                     : pm/V
  
 wavefunctions paging                           : none
 random number generator seed                   :   25101104
 data distribution                              : optimal for this architecture
 optimization strategy                          : balance speed and memory

 *********************** Exchange-Correlation Parameters ***********************
  
 using functional                               : RSCAN
 relativistic treatment                         : Koelling-Harmon
 DFT+D: Semi-empirical dispersion correction    : off

 ************************* Pseudopotential Parameters **************************
  
 pseudopotential representation                 : reciprocal space
 <beta|phi> representation                      : reciprocal space
 spin-orbit coupling                            : off

 **************************** Basis Set Parameters *****************************
  
 plane wave basis set cut-off                   :   900.0000   eV
 size of standard grid                          :     2.0000
 size of   fine   gmax                          :    30.7390   1/A
 finite basis set correction                    : none

 **************************** Electronic Parameters ****************************
  
 number of  electrons                           :  216.0    
 net charge of system                           :  0.000    
 treating system as non-spin-polarized
 number of bands                                :        130

 ********************* Electronic Minimization Parameters **********************
  
 Method: Treating system as metallic with density mixing treatment of electrons,
         and number of  SD  steps               :          1
         and number of  CG  steps               :          4
  
 total energy / atom convergence tol.           : 0.1000E-07   eV
 eigen-energy convergence tolerance             : 0.2222E-08   eV
 max force / atom convergence tol.              : ignored
 convergence tolerance window                   :          3   cycles
 max. number of SCF cycles                      :         50
 number of fixed-spin iterations                :         10
 smearing scheme                                : Gaussian
 smearing width                                 : 0.2000       eV
 Fermi energy convergence tolerance             : 0.2721E-13   eV
 periodic dipole correction                     : NONE

 ************************** Density Mixing Parameters **************************
  
 density-mixing scheme                          : Pulay
 max. length of mixing history                  :         15
 charge density mixing amplitude                : 0.5000    
 cut-off energy for mixing                      :  900.0       eV

 *********************** Population Analysis Parameters ************************
  
 Population analysis with cutoff                :  3.000       A
 Population analysis output                     : summary and pdos components

 ********************** Geometry Optimization Parameters ***********************
  
 optimization method                            : LBFGS
 max. no. of LBFGS updates                      : unbounded
 preconditioned LBFGS is activated
 preconditioner type                            : EXP
     stabilization constant                     :     0.1000
     parameter A                                :     3.0000
     nearest neighbor distance                  : automatic
     cut-off distance                           : automatic
     parameter mu                               : automatic
 variable cell method                           : fixed basis quality
 max. number of steps                           :         30
 estimated bulk modulus                         :  500.0       GPa
 estimated <frequency>                          :  1668.       cm-1
 geom line minimiser                            : on
 with line minimiser tolerance                  :     0.4000
 total energy convergence tolerance             : 0.2000E-04   eV/atom
        max ionic |force| tolerance             : 0.1000E-02   eV/A
 max ionic |displacement| tolerance             : 0.1000E-02   A
   max |stress component| tolerance             : 0.1000       GPa
 convergence tolerance window                   :          2   steps
 backup results every                           :          5   steps
 write geom trajectory file                     : on

 *******************************************************************************
  

                           -------------------------------
                                      Unit Cell
                           -------------------------------
        Real Lattice(A)                      Reciprocal Lattice(1/A)
     5.9012740     0.0000000     0.0000000        1.064716756   0.000000000   0.000000000
     0.0000000     4.1728310     0.0000000        0.000000000   1.505736826  -0.125478054
     0.0000000     2.0864150    25.0369830        0.000000000   0.000000000   0.250956168

                       Lattice parameters(A)       Cell Angles
                    a =      5.901274          alpha =   85.236359
                    b =      4.172831          beta  =   90.000000
                    c =     25.123767          gamma =   90.000000

                       Current cell volume =           616.536184       A**3
                                   density =             2.837629   AMU/A**3
                                           =             4.711994     g/cm^3

                           -------------------------------
                                     Cell Contents
                           -------------------------------
                         Total number of ions in cell =   24
                      Total number of species in cell =    2
                        Max number of any one species =   12

            xxxxxxxxxxxxxxxxxxxxxxxxxxxxxxxxxxxxxxxxxxxxxxxxxxxxxxxxxxxx
            x  Element    Atom        Fractional coordinates of atoms  x
            x            Number           u          v          w      x
            x----------------------------------------------------------x
            x  P            1         0.250000   0.333691   0.332617   x 
            x  P            2         0.750000  -0.208360   0.416721   x 
            x  P            3         0.750000  -0.124853   0.249707   x 
            x  P            4         0.250000   0.250027   0.499946   x 
            x  P            5         0.750000  -0.292025   0.584049   x 
            x  P            6         0.250000   0.417599   0.164801   x 
            x  P            7         0.250000   0.166520   0.666960   x 
            x  P            8         0.750000  -0.375933   0.751865   x 
            x  P            9         0.750000  -0.041564   0.083128   x 
            x  P           10         0.250000   0.083231   0.833538   x 
            x  P           11         0.750000  -0.460870   0.921739   x 
            x  P           12         0.250000   0.502536  -0.005073   x 
            x  In           1         0.500000   0.291866   0.416267   x 
            x  In           2         0.500000   0.124943   0.750115   x 
            x  In           3         0.000000  -0.334046   0.668092   x 
            x  In           4         0.500000   0.208292   0.583416   x 
            x  In           5         0.000000  -0.250200   0.500400   x 
            x  In           6         0.000000  -0.418586   0.837173   x 
            x  In           7         0.000000  -0.166625   0.333251   x 
            x  In           8         0.500000   0.042519   0.914962   x 
            x  In           9         0.000000  -0.083276   0.166552   x 
            x  In          10         0.500000   0.460253   0.079494   x 
            x  In          11         0.000000  -0.000852   0.001704   x 
            x  In          12         0.500000   0.375713   0.248575   x 
            xxxxxxxxxxxxxxxxxxxxxxxxxxxxxxxxxxxxxxxxxxxxxxxxxxxxxxxxxxxx


                         No user defined ionic velocities

                           -------------------------------
                                   Details of Species
                           -------------------------------

                               Mass of species in AMU
                                    P   30.9737600
                                    In  114.8180000

                          Electric Quadrupole Moment (Barn)
                                    P    1.0000000 No Isotope Defined
                                    In    0.7700000 Isotope115

                          Files used for pseudopotentials:
                                    P 3|1.8|4|4|5|30:31:32
                                    In 3|2.5|2.5|1.5|7|8|9|50:51:42U2.2U2.2

                           -------------------------------
                              k-Points For BZ Sampling
                           -------------------------------
                       MP grid size for SCF calculation is  6 10  2
                            with an offset of   0.083  0.050  0.250
                       Number of kpoints used =            64

                           -------------------------------
                               Symmetry and Constraints
                           -------------------------------

                      Maximum deviation from symmetry =  0.00000         ANG

                      Number of symmetry operations   =           1
                      Number of ionic constraints     =          48
                      Point group of crystal =     1: C1, 1, 1
                      Space group of crystal =    36: Cmc2_1, C 2c -2

             Set iprint > 1 for details on symmetry rotations/translations

                         Centre of mass is NOT constrained
             Set iprint > 1 for details of linear ionic constraints

                         Number of cell constraints= 6
                         Cell constraints are:  0 0 0 0 0 0

                         External pressure/stress (GPa)
                          0.00000   0.00000   0.00000
                                    0.00000   0.00000
                                              0.00000
 
+---------------- MEMORY AND SCRATCH DISK ESTIMATES PER PROCESS --------------+
|                                                     Memory          Disk    |
| Baseline code, static data and system overhead      386.0 MB         0.0 MB |
| BLAS internal memory storage                          0.0 MB         0.0 MB |
| Model and support data                             4221.4 MB         0.0 MB |
| Electronic energy minimisation requirements         518.9 MB         0.0 MB |
| Force calculation requirements                       97.8 MB         0.0 MB |
|                                               ----------------------------- |
| Approx. total storage required per process         5126.2 MB         0.0 MB |
|                                                                             |
| Requirements will fluctuate during execution and may exceed these estimates |
+-----------------------------------------------------------------------------+
Calculating approximate eigenstates for fixed initial Hamiltonian
Cut-off for approx. calculation is   89.988 eV
Improving approx. states at cut-off of  450.000 eV
Resetting cut-off to  900.000 eV
Calculating total energy with cut-off of  900.000 eV.
------------------------------------------------------------------------ <-- SCF
SCF loop      Energy           Fermi           Energy gain       Timer   <-- SCF
                               energy          per atom          (sec)   <-- SCF
------------------------------------------------------------------------ <-- SCF
Initial  -2.36435923E+004  0.00000000E+000                        76.73  <-- SCF
      1  -2.35500188E+004  2.54611555E+000  -3.89889597E+000     117.19  <-- SCF
      2  -2.35500989E+004  2.54570348E+000   3.33879373E-003     146.43  <-- SCF
      3  -2.35751641E+004  2.86099238E+000   1.04438527E+000     180.80  <-- SCF
      4  -2.35797046E+004  2.92178097E+000   1.89185616E-001     227.66  <-- SCF
      5  -2.35771862E+004  3.18913427E+000  -1.04933647E-001     261.43  <-- SCF
      6  -2.35773433E+004  3.23761976E+000   6.54485447E-003     294.15  <-- SCF
      7  -2.35772529E+004  3.27617666E+000  -3.76546557E-003     329.85  <-- SCF
      8  -2.35778499E+004  3.29446174E+000   2.48734183E-002     365.61  <-- SCF
      9  -2.35778383E+004  3.27068659E+000  -4.80966175E-004     402.46  <-- SCF
     10  -2.35778436E+004  3.27402365E+000   2.20090503E-004     437.19  <-- SCF
     11  -2.35778437E+004  3.27253948E+000   4.97096810E-006     472.49  <-- SCF
     12  -2.35778438E+004  3.27344760E+000   5.38818097E-006     508.70  <-- SCF
     13  -2.35778438E+004  3.27412595E+000   6.90559736E-008     541.58  <-- SCF
     14  -2.35778438E+004  3.27448089E+000  -7.21102358E-008     571.55  <-- SCF
     15  -2.35778438E+004  3.27499633E+000  -6.93759009E-008     603.75  <-- SCF
     16  -2.35778438E+004  3.27526693E+000  -2.84878432E-008     631.80  <-- SCF
     17  -2.35778438E+004  3.27530879E+000   4.87380080E-008     656.51  <-- SCF
     18  -2.35778438E+004  3.27534920E+000   2.43167999E-008     684.10  <-- SCF
     19  -2.35778438E+004  3.27533837E+000   6.29929504E-010     708.98  <-- SCF
     20  -2.35778438E+004  3.27533135E+000   8.12063818E-012     735.32  <-- SCF
------------------------------------------------------------------------ <-- SCF
 
Final energy, E             =  -23577.84040709     eV
Final free energy (E-TS)    =  -23577.84384478     eV
(energies not corrected for finite basis set)
 
NB est. 0K energy (E-0.5TS)      =  -23577.84212594     eV
 
 
+---------------- MEMORY AND SCRATCH DISK ESTIMATES PER PROCESS --------------+
|                                                     Memory          Disk    |
| Model and support data                             2433.0 MB         0.0 MB |
| Electronic energy minimisation requirements         518.9 MB         0.0 MB |
| Geometry minimisation requirements                  605.3 MB         0.0 MB |
|                                               ----------------------------- |
| Approx. total storage required per process         3557.2 MB         0.0 MB |
|                                                                             |
| Requirements will fluctuate during execution and may exceed these estimates |
+-----------------------------------------------------------------------------+
 

 ******************************** Constrained Forces ********************************
 *                                                                                  *
 *                           Cartesian components (eV/A)                            *
 * -------------------------------------------------------------------------------- *
 *                         x                    y                    z              *
 *                                                                                  *
 * P               1     -0.00000(cons'd)      0.00000(cons'd)      0.00067         *
 * P               2      0.00000(cons'd)      0.00000(cons'd)      0.00258         *
 * P               3      0.00000(cons'd)      0.00000(cons'd)     -0.02900         *
 * P               4      0.00000(cons'd)      0.00000(cons'd)      0.00126         *
 * P               5      0.00000(cons'd)     -0.00000(cons'd)      0.00214         *
 * P               6      0.00000(cons'd)     -0.00000(cons'd)      0.00146         *
 * P               7      0.00000(cons'd)      0.00000(cons'd)      0.02599         *
 * P               8     -0.00000(cons'd)      0.00000(cons'd)      0.00083         *
 * P               9      0.00000(cons'd)      0.00000(cons'd)     -0.04095         *
 * P              10      0.00000(cons'd)     -0.00000(cons'd)      0.03896         *
 * P              11     -0.00000(cons'd)      0.00000(cons'd)      0.00466         *
 * P              12      0.00000(cons'd)      0.00000(cons'd)     -0.00603         *
 * In              1      0.00000(cons'd)      0.00000(cons'd)     -0.00471         *
 * In              2      0.00000(cons'd)      0.00000(cons'd)     -0.02675         *
 * In              3      0.00000(cons'd)      0.00000(cons'd)     -0.00176         *
 * In              4      0.00000(cons'd)      0.00000(cons'd)     -0.00343         *
 * In              5      0.00000(cons'd)      0.00000(cons'd)      0.00438         *
 * In              6      0.00000(cons'd)      0.00000(cons'd)      0.05857         *
 * In              7      0.00000(cons'd)      0.00000(cons'd)      0.00305         *
 * In              8      0.00000(cons'd)      0.00000(cons'd)     -0.09382         *
 * In              9      0.00000(cons'd)      0.00000(cons'd)      0.02631         *
 * In             10      0.00000(cons'd)      0.00000(cons'd)     -0.05904         *
 * In             11      0.00000(cons'd)      0.00000(cons'd)      0.09335         *
 * In             12      0.00000(cons'd)      0.00000(cons'd)      0.00128         *
 *                                                                                  *
 ************************************************************************************
 EXP precond LBFGS => estimated nearest neighbor distance :  2.561       A
 EXP precond LBFGS => estimated cutoff distance :  5.122       A

 ************************************** Forces **************************************
 *                                                                                  *
 *                           Cartesian components (eV/A)                            *
 * -------------------------------------------------------------------------------- *
 *                         x                    y                    z              *
 *                                                                                  *
 * P               1      0.05073(cons'd)     -0.00168(cons'd)      0.00067         *
 * P               2      0.01602(cons'd)      0.00476(cons'd)      0.00258         *
 * P               3     -0.03163(cons'd)     -0.00157(cons'd)     -0.02900         *
 * P               4      0.01859(cons'd)     -0.00651(cons'd)      0.00126         *
 * P               5      0.05081(cons'd)      0.00496(cons'd)      0.00214         *
 * P               6      0.11737(cons'd)      0.00449(cons'd)      0.00146         *
 * P               7     -0.03085(cons'd)     -0.00157(cons'd)      0.02599         *
 * P               8      0.11977(cons'd)     -0.00287(cons'd)      0.00083         *
 * P               9     -0.34354(cons'd)     -0.00242(cons'd)     -0.04095         *
 * P              10     -0.34647(cons'd)      0.00312(cons'd)      0.03896         *
 * P              11      0.46781(cons'd)     -0.00270(cons'd)      0.00466         *
 * P              12      0.46766(cons'd)      0.00153(cons'd)     -0.00603         *
 * In              1     -0.03461(cons'd)     -0.00016(cons'd)     -0.00471         *
 * In              2      0.16319(cons'd)      0.00021(cons'd)     -0.02675         *
 * In              3     -0.10171(cons'd)      0.00007(cons'd)     -0.00176         *
 * In              4      0.01375(cons'd)     -0.00016(cons'd)     -0.00343         *
 * In              5     -0.03461(cons'd)      0.00028(cons'd)      0.00438         *
 * In              6     -0.26432(cons'd)     -0.00019(cons'd)      0.05857         *
 * In              7      0.01368(cons'd)      0.00003(cons'd)      0.00305         *
 * In              8     -0.05439(cons'd)      0.00019(cons'd)     -0.09382         *
 * In              9      0.16320(cons'd)     -0.00024(cons'd)      0.02631         *
 * In             10     -0.26435(cons'd)      0.00025(cons'd)     -0.05904         *
 * In             11     -0.05439(cons'd)      0.00002(cons'd)      0.09335         *
 * In             12     -0.10172(cons'd)      0.00017(cons'd)      0.00128         *
 *                                                                                  *
 ************************************************************************************
 doing test perturbation to get energy scale for EXP preconditioner

                           -------------------------------
                                     Cell Contents
                           -------------------------------

            xxxxxxxxxxxxxxxxxxxxxxxxxxxxxxxxxxxxxxxxxxxxxxxxxxxxxxxxxxxxxxxxx
            x  Element         Atom        Fractional coordinates of atoms  x
            x                 Number           u          v          w      x
            x---------------------------------------------------------------x
            x  P                 1         0.251420   0.338687   0.332954   x
            x  P                 2         0.753652   0.797012   0.417137   x
            x  P                 3         0.753652   0.880600   0.249961   x
            x  P                 4         0.251420   0.254944   0.500439   x
            x  P                 5         0.753652   0.713272   0.584617   x
            x  P                 6         0.251420   0.422679   0.164970   x
            x  P                 7         0.251420   0.171366   0.667596   x
            x  P                 8         0.753652   0.629297   0.752568   x
            x  P                 9         0.753652   0.963974   0.083214   x
            x  P                10         0.251420   0.088014   0.834300   x
            x  P                11         0.753652   0.544302   0.922558   x
            x  P                12         0.251420   0.507686   0.995789   x
            x  In                1         0.502684   0.296823   0.416683   x
            x  In                2         0.502684   0.129756   0.750816   x
            x  In                3         0.000000   0.671216   0.668729   x
            x  In                4         0.502684   0.213173   0.583983   x
            x  In                5         0.000000   0.755134   0.500893   x
            x  In                6         0.000000   0.586612   0.837937   x
            x  In                7         0.000000   0.838787   0.333587   x
            x  In                8         0.502684   0.047276   0.915777   x
            x  In                9         0.000000   0.922219   0.166723   x
            x  In               10         0.502684   0.465376   0.079576   x
            x  In               11         0.000000   1.004728   0.001706   x
            x  In               12         0.502684   0.380750   0.248828   x
            xxxxxxxxxxxxxxxxxxxxxxxxxxxxxxxxxxxxxxxxxxxxxxxxxxxxxxxxxxxxxxxxx


------------------------------------------------------------------------ <-- SCF
SCF loop      Energy           Fermi           Energy gain       Timer   <-- SCF
                               energy          per atom          (sec)   <-- SCF
------------------------------------------------------------------------ <-- SCF
Initial  -2.35762755E+004  0.00000000E+000                       808.57  <-- SCF
      1  -2.35776610E+004  3.26570609E+000   5.77285533E-002     844.69  <-- SCF
      2  -2.35778343E+004  3.26557539E+000   7.22202905E-003     884.55  <-- SCF
      3  -2.35778362E+004  3.26495001E+000   7.88037663E-005     919.08  <-- SCF
      4  -2.35778376E+004  3.26439080E+000   5.85477094E-005     954.53  <-- SCF
      5  -2.35778377E+004  3.26417874E+000   6.09363047E-006     995.21  <-- SCF
      6  -2.35778378E+004  3.26398340E+000   1.11666238E-006    1032.36  <-- SCF
      7  -2.35778378E+004  3.26383936E+000  -1.06545609E-007    1064.38  <-- SCF
      8  -2.35778378E+004  3.26367974E+000  -2.29337392E-007    1096.69  <-- SCF
      9  -2.35778378E+004  3.26354283E+000  -1.36517982E-007    1126.55  <-- SCF
     10  -2.35778378E+004  3.26343691E+000  -3.32912652E-008    1157.17  <-- SCF
     11  -2.35778378E+004  3.26341901E+000  -2.59344826E-010    1184.94  <-- SCF
     12  -2.35778378E+004  3.26341273E+000  -1.43464608E-010    1210.01  <-- SCF
------------------------------------------------------------------------ <-- SCF
 
Final energy, E             =  -23577.83374987     eV
Final free energy (E-TS)    =  -23577.83775698     eV
(energies not corrected for finite basis set)
 
NB est. 0K energy (E-0.5TS)      =  -23577.83575343     eV
 

 ************************************** Forces **************************************
 *                                                                                  *
 *                           Cartesian components (eV/A)                            *
 * -------------------------------------------------------------------------------- *
 *                         x                    y                    z              *
 *                                                                                  *
 * P               1      0.07751(cons'd)      0.00842(cons'd)      0.00791         *
 * P               2     -0.10527(cons'd)     -0.00963(cons'd)      0.00431         *
 * P               3     -0.15189(cons'd)     -0.01007(cons'd)     -0.02762         *
 * P               4      0.04513(cons'd)      0.01391(cons'd)      0.01044         *
 * P               5     -0.07312(cons'd)     -0.01912(cons'd)      0.00854         *
 * P               6      0.14728(cons'd)      0.01243(cons'd)      0.01291         *
 * P               7      0.00144(cons'd)      0.02130(cons'd)      0.03509         *
 * P               8      0.00039(cons'd)     -0.02119(cons'd)      0.01276         *
 * P               9     -0.47685(cons'd)     -0.01842(cons'd)     -0.01961         *
 * P              10     -0.30702(cons'd)      0.01629(cons'd)      0.04193         *
 * P              11      0.41215(cons'd)     -0.01210(cons'd)      0.01800         *
 * P              12      0.45603(cons'd)      0.00697(cons'd)     -0.08575         *
 * In              1     -0.09284(cons'd)      0.01188(cons'd)     -0.00947         *
 * In              2      0.10653(cons'd)      0.01229(cons'd)     -0.03126         *
 * In              3      0.04704(cons'd)     -0.01180(cons'd)     -0.00830         *
 * In              4     -0.04387(cons'd)      0.01217(cons'd)     -0.00826         *
 * In              5      0.11582(cons'd)     -0.01154(cons'd)     -0.00083         *
 * In              6     -0.12591(cons'd)     -0.01159(cons'd)      0.04880         *
 * In              7      0.16463(cons'd)     -0.01131(cons'd)     -0.00223         *
 * In              8     -0.13242(cons'd)      0.00833(cons'd)     -0.10548         *
 * In              9      0.31406(cons'd)     -0.01143(cons'd)      0.02148         *
 * In             10     -0.26513(cons'd)      0.01281(cons'd)      0.02627         *
 * In             11      0.04708(cons'd)     -0.00048(cons'd)      0.05334         *
 * In             12     -0.16079(cons'd)      0.01190(cons'd)     -0.00293         *
 *                                                                                  *
 ************************************************************************************
 EXP precond LBFGS => estimated parameter mu :  1.759       eV/A**2
 LBFGS: finished iteration     0 with enthalpy= -2.35778438E+004 eV
  
 +-----------+-----------------+-----------------+------------+-----+ <-- LBFGS
 | Parameter |      value      |    tolerance    |    units   | OK? | <-- LBFGS
 +-----------+-----------------+-----------------+------------+-----+ <-- LBFGS
 |  dE/ion   |   0.000000E+000 |   2.000000E-005 |         eV | No  | <-- LBFGS
 |  |F|max   |   4.776046E-001 |   1.000000E-003 |       eV/A | No  | <-- LBFGS
 |  |dR|max  |   4.049949E-015 |   1.000000E-003 |          A | No  | <-- LBFGS
 +-----------+-----------------+-----------------+------------+-----+ <-- LBFGS
  

================================================================================
 Starting LBFGS iteration          1 ...
================================================================================
  
 +------------+-------------+-------------+-----------------+ <-- min LBFGS
 |    Step    |   lambda    |   F.delta'  |    enthalpy     | <-- min LBFGS
 +------------+-------------+-------------+-----------------+ <-- min LBFGS
 |  previous  |    0.000000 |    0.119662 |   -23577.843845 | <-- min LBFGS
 +------------+-------------+-------------+-----------------+ <-- min LBFGS
  

--------------------------------------------------------------------------------
 LBFGS: starting iteration         1 with trial guess (lambda=  1.000000)
--------------------------------------------------------------------------------

                           -------------------------------
                                     Cell Contents
                           -------------------------------

            xxxxxxxxxxxxxxxxxxxxxxxxxxxxxxxxxxxxxxxxxxxxxxxxxxxxxxxxxxxxxxxxx
            x  Element         Atom        Fractional coordinates of atoms  x
            x                 Number           u          v          w      x
            x---------------------------------------------------------------x
            x  P                 1         0.250000   0.333743   0.332514   x
            x  P                 2         0.750000  -0.208355   0.416711   x
            x  P                 3         0.750000  -0.124701   0.249402   x
            x  P                 4         0.250000   0.249994   0.500012   x
            x  P                 5         0.750000  -0.292097   0.584193   x
            x  P                 6         0.250000   0.417712   0.164576   x
            x  P                 7         0.250000   0.166373   0.667253   x
            x  P                 8         0.750000  -0.376046   0.752092   x
            x  P                 9         0.750000  -0.041405   0.082810   x
            x  P                10         0.250000   0.083090   0.833819   x
            x  P                11         0.750000  -0.460905   0.921810   x
            x  P                12         0.250000   0.502592  -0.005184   x
            x  In                1         0.500000   0.291890   0.416221   x
            x  In                2         0.500000   0.124909   0.750182   x
            x  In                3         0.000000  -0.334146   0.668291   x
            x  In                4         0.500000   0.208228   0.583543   x
            x  In                5         0.000000  -0.250244   0.500488   x
            x  In                6         0.000000  -0.418837   0.837675   x
            x  In                7         0.000000  -0.166574   0.333148   x
            x  In                8         0.500000   0.042759   0.914482   x
            x  In                9         0.000000  -0.083234   0.166469   x
            x  In               10         0.500000   0.460518   0.078964   x
            x  In               11         0.000000  -0.001073   0.002146   x
            x  In               12         0.500000   0.375809   0.248381   x
            xxxxxxxxxxxxxxxxxxxxxxxxxxxxxxxxxxxxxxxxxxxxxxxxxxxxxxxxxxxxxxxxx


------------------------------------------------------------------------ <-- SCF
SCF loop      Energy           Fermi           Energy gain       Timer   <-- SCF
                               energy          per atom          (sec)   <-- SCF
------------------------------------------------------------------------ <-- SCF
Initial  -2.35763884E+004  0.00000000E+000                      1252.65  <-- SCF
      1  -2.35776608E+004  3.28184667E+000   5.30142484E-002    1291.78  <-- SCF
      2  -2.35778421E+004  3.28172079E+000   7.55664607E-003    1333.61  <-- SCF
      3  -2.35778443E+004  3.28313722E+000   8.83672769E-005    1369.53  <-- SCF
      4  -2.35778457E+004  3.28471678E+000   6.09943245E-005    1407.53  <-- SCF
      5  -2.35778459E+004  3.28528847E+000   6.35857300E-006    1448.69  <-- SCF
      6  -2.35778459E+004  3.28601999E+000   1.39637222E-006    1485.94  <-- SCF
      7  -2.35778459E+004  3.28653434E+000  -1.72822391E-007    1521.26  <-- SCF
      8  -2.35778459E+004  3.28727350E+000  -3.62968938E-007    1554.21  <-- SCF
      9  -2.35778459E+004  3.28787048E+000  -1.79412095E-007    1586.95  <-- SCF
     10  -2.35778459E+004  3.28824964E+000  -3.18811099E-008    1618.18  <-- SCF
     11  -2.35778459E+004  3.28831725E+000  -1.04279306E-010    1646.04  <-- SCF
     12  -2.35778459E+004  3.28835025E+000  -3.10904433E-010    1673.27  <-- SCF
------------------------------------------------------------------------ <-- SCF
 
Final energy, E             =  -23577.84310646     eV
Final free energy (E-TS)    =  -23577.84589876     eV
(energies not corrected for finite basis set)
 
NB est. 0K energy (E-0.5TS)      =  -23577.84450261     eV
 

 ******************************** Constrained Forces ********************************
 *                                                                                  *
 *                           Cartesian components (eV/A)                            *
 * -------------------------------------------------------------------------------- *
 *                         x                    y                    z              *
 *                                                                                  *
 * P               1      0.00000(cons'd)      0.00000(cons'd)     -0.00123         *
 * P               2     -0.00000(cons'd)      0.00000(cons'd)     -0.00035         *
 * P               3      0.00000(cons'd)      0.00000(cons'd)      0.02304         *
 * P               4      0.00000(cons'd)      0.00000(cons'd)     -0.00121         *
 * P               5      0.00000(cons'd)      0.00000(cons'd)      0.00060         *
 * P               6      0.00000(cons'd)     -0.00000(cons'd)     -0.01500         *
 * P               7      0.00000(cons'd)      0.00000(cons'd)     -0.01955         *
 * P               8     -0.00000(cons'd)      0.00000(cons'd)      0.01499         *
 * P               9      0.00000(cons'd)      0.00000(cons'd)      0.06307         *
 * P              10      0.00000(cons'd)     -0.00000(cons'd)     -0.06420         *
 * P              11      0.00000(cons'd)      0.00000(cons'd)      0.03968         *
 * P              12     -0.00000(cons'd)     -0.00000(cons'd)     -0.03965         *
 * In              1      0.00000(cons'd)     -0.00000(cons'd)      0.00052         *
 * In              2      0.00000(cons'd)      0.00000(cons'd)      0.01038         *
 * In              3      0.00000(cons'd)      0.00000(cons'd)      0.00307         *
 * In              4      0.00000(cons'd)      0.00000(cons'd)      0.00576         *
 * In              5     -0.00000(cons'd)      0.00000(cons'd)      0.00057         *
 * In              6      0.00000(cons'd)      0.00000(cons'd)      0.00362         *
 * In              7      0.00000(cons'd)      0.00000(cons'd)     -0.00624         *
 * In              8      0.00000(cons'd)      0.00000(cons'd)     -0.00908         *
 * In              9      0.00000(cons'd)      0.00000(cons'd)     -0.01220         *
 * In             10      0.00000(cons'd)      0.00000(cons'd)     -0.00347         *
 * In             11      0.00000(cons'd)      0.00000(cons'd)      0.00831         *
 * In             12      0.00000(cons'd)      0.00000(cons'd)     -0.00144         *
 *                                                                                  *
 ************************************************************************************
  
 +------------+-------------+-------------+-----------------+ <-- min LBFGS
 |    Step    |   lambda    |   F.delta'  |    enthalpy     | <-- min LBFGS
 +------------+-------------+-------------+-----------------+ <-- min LBFGS
 |  previous  |    0.000000 |    0.119662 |   -23577.843845 | <-- min LBFGS
 | trial step |    1.000000 |   -0.013695 |   -23577.845899 | <-- min LBFGS
 +------------+-------------+-------------+-----------------+ <-- min LBFGS
  
 LBFGS: finished iteration     1 with enthalpy= -2.35778459E+004 eV
  
 +-----------+-----------------+-----------------+------------+-----+ <-- LBFGS
 | Parameter |      value      |    tolerance    |    units   | OK? | <-- LBFGS
 +-----------+-----------------+-----------------+------------+-----+ <-- LBFGS
 |  dE/ion   |   8.558258E-005 |   2.000000E-005 |         eV | No  | <-- LBFGS
 |  |F|max   |   6.419669E-002 |   1.000000E-003 |       eV/A | No  | <-- LBFGS
 |  |dR|max  |   1.325750E-002 |   1.000000E-003 |          A | No  | <-- LBFGS
 +-----------+-----------------+-----------------+------------+-----+ <-- LBFGS
  

================================================================================
 Starting LBFGS iteration          2 ...
================================================================================
  
 +------------+-------------+-------------+-----------------+ <-- min LBFGS
 |    Step    |   lambda    |   F.delta'  |    enthalpy     | <-- min LBFGS
 +------------+-------------+-------------+-----------------+ <-- min LBFGS
 |  previous  |    0.000000 |    0.075337 |   -23577.845899 | <-- min LBFGS
 +------------+-------------+-------------+-----------------+ <-- min LBFGS
  

--------------------------------------------------------------------------------
 LBFGS: starting iteration         2 with trial guess (lambda=  1.000000)
--------------------------------------------------------------------------------

                           -------------------------------
                                     Cell Contents
                           -------------------------------

            xxxxxxxxxxxxxxxxxxxxxxxxxxxxxxxxxxxxxxxxxxxxxxxxxxxxxxxxxxxxxxxxx
            x  Element         Atom        Fractional coordinates of atoms  x
            x                 Number           u          v          w      x
            x---------------------------------------------------------------x
            x  P                 1         0.250000   0.333742   0.332515   x
            x  P                 2         0.750000  -0.208363   0.416727   x
            x  P                 3         0.750000  -0.124748   0.249496   x
            x  P                 4         0.250000   0.249992   0.500015   x
            x  P                 5         0.750000  -0.292105   0.584210   x
            x  P                 6         0.250000   0.417747   0.164505   x
            x  P                 7         0.250000   0.166412   0.667176   x
            x  P                 8         0.750000  -0.376082   0.752165   x
            x  P                 9         0.750000  -0.041556   0.083113   x
            x  P                10         0.250000   0.083255   0.833490   x
            x  P                11         0.750000  -0.461000   0.922000   x
            x  P                12         0.250000   0.502700  -0.005399   x
            x  In                1         0.500000   0.291889   0.416223   x
            x  In                2         0.500000   0.124955   0.750090   x
            x  In                3         0.000000  -0.334151   0.668303   x
            x  In                4         0.500000   0.208224   0.583551   x
            x  In                5        -0.000000  -0.250255   0.500509   x
            x  In                6         0.000000  -0.418889   0.837778   x
            x  In                7         0.000000  -0.166576   0.333153   x
            x  In                8         0.500000   0.042914   0.914172   x
            x  In                9         0.000000  -0.083274   0.166547   x
            x  In               10         0.500000   0.460577   0.078846   x
            x  In               11         0.000000  -0.001214   0.002427   x
            x  In               12         0.500000   0.375806   0.248388   x
            xxxxxxxxxxxxxxxxxxxxxxxxxxxxxxxxxxxxxxxxxxxxxxxxxxxxxxxxxxxxxxxxx


------------------------------------------------------------------------ <-- SCF
SCF loop      Energy           Fermi           Energy gain       Timer   <-- SCF
                               energy          per atom          (sec)   <-- SCF
------------------------------------------------------------------------ <-- SCF
Initial  -2.35778024E+004  0.00000000E+000                      1715.31  <-- SCF
      1  -2.35778447E+004  3.29109346E+000   1.76118459E-003    1753.53  <-- SCF
      2  -2.35778471E+004  3.29108904E+000   9.89035603E-005    1794.97  <-- SCF
      3  -2.35778471E+004  3.29042064E+000   1.28627944E-007    1830.93  <-- SCF
      4  -2.35778471E+004  3.28964542E+000   2.86089052E-007    1867.73  <-- SCF
      5  -2.35778471E+004  3.28922303E+000   6.67463610E-008    1900.34  <-- SCF
      6  -2.35778471E+004  3.28888277E+000  -1.91589056E-008    1930.10  <-- SCF
      7  -2.35778471E+004  3.28849842E+000  -2.99428553E-008    1957.69  <-- SCF
      8  -2.35778471E+004  3.28802067E+000  -2.30412152E-008    1986.80  <-- SCF
      9  -2.35778471E+004  3.28778751E+000  -3.00424943E-009    2016.10  <-- SCF
     10  -2.35778471E+004  3.28773814E+000  -1.33281585E-010    2041.94  <-- SCF
     11  -2.35778471E+004  3.28773578E+000  -6.18715290E-012    2067.47  <-- SCF
------------------------------------------------------------------------ <-- SCF
 
Final energy, E             =  -23577.84434143     eV
Final free energy (E-TS)    =  -23577.84707738     eV
(energies not corrected for finite basis set)
 
NB est. 0K energy (E-0.5TS)      =  -23577.84570941     eV
 

 ******************************** Constrained Forces ********************************
 *                                                                                  *
 *                           Cartesian components (eV/A)                            *
 * -------------------------------------------------------------------------------- *
 *                         x                    y                    z              *
 *                                                                                  *
 * P               1     -0.00000(cons'd)      0.00000(cons'd)     -0.00163         *
 * P               2      0.00000(cons'd)      0.00000(cons'd)     -0.00014         *
 * P               3      0.00000(cons'd)      0.00000(cons'd)      0.00951         *
 * P               4     -0.00000(cons'd)      0.00000(cons'd)     -0.00150         *
 * P               5      0.00000(cons'd)      0.00000(cons'd)      0.00093         *
 * P               6      0.00000(cons'd)      0.00000(cons'd)     -0.00527         *
 * P               7      0.00000(cons'd)      0.00000(cons'd)     -0.01081         *
 * P               8      0.00000(cons'd)      0.00000(cons'd)      0.00509         *
 * P               9      0.00000(cons'd)      0.00000(cons'd)      0.01834         *
 * P              10      0.00000(cons'd)      0.00000(cons'd)     -0.01552         *
 * P              11      0.00000(cons'd)      0.00000(cons'd)      0.01918         *
 * P              12      0.00000(cons'd)      0.00000(cons'd)     -0.01916         *
 * In              1      0.00000(cons'd)      0.00000(cons'd)      0.00110         *
 * In              2     -0.00000(cons'd)      0.00000(cons'd)     -0.01176         *
 * In              3      0.00000(cons'd)      0.00000(cons'd)      0.00845         *
 * In              4      0.00000(cons'd)      0.00000(cons'd)     -0.00377         *
 * In              5      0.00000(cons'd)      0.00000(cons'd)     -0.00115         *
 * In              6      0.00000(cons'd)      0.00000(cons'd)      0.00276         *
 * In              7      0.00000(cons'd)      0.00000(cons'd)      0.00396         *
 * In              8      0.00000(cons'd)      0.00000(cons'd)     -0.00761         *
 * In              9      0.00000(cons'd)      0.00000(cons'd)      0.01194         *
 * In             10      0.00000(cons'd)      0.00000(cons'd)     -0.00215         *
 * In             11      0.00000(cons'd)      0.00000(cons'd)      0.00723         *
 * In             12      0.00000(cons'd)      0.00000(cons'd)     -0.00802         *
 *                                                                                  *
 ************************************************************************************
  
 +------------+-------------+-------------+-----------------+ <-- min LBFGS
 |    Step    |   lambda    |   F.delta'  |    enthalpy     | <-- min LBFGS
 +------------+-------------+-------------+-----------------+ <-- min LBFGS
 |  previous  |    0.000000 |    0.075337 |   -23577.845899 | <-- min LBFGS
 | trial step |    1.000000 |    0.031717 |   -23577.847077 | <-- min LBFGS
 +------------+-------------+-------------+-----------------+ <-- min LBFGS
  

--------------------------------------------------------------------------------
 LBFGS: improving iteration         2 with line minimization (lambda=  1.727121)
--------------------------------------------------------------------------------

                           -------------------------------
                                     Cell Contents
                           -------------------------------

            xxxxxxxxxxxxxxxxxxxxxxxxxxxxxxxxxxxxxxxxxxxxxxxxxxxxxxxxxxxxxxxxx
            x  Element         Atom        Fractional coordinates of atoms  x
            x                 Number           u          v          w      x
            x---------------------------------------------------------------x
            x  P                 1         0.250000   0.333742   0.332517   x
            x  P                 2         0.750000  -0.208369   0.416738   x
            x  P                 3         0.750000  -0.124783   0.249565   x
            x  P                 4         0.250000   0.249991   0.500017   x
            x  P                 5         0.750000  -0.292111   0.584222   x
            x  P                 6         0.250000   0.417774   0.164453   x
            x  P                 7         0.250000   0.166440   0.667120   x
            x  P                 8         0.750000  -0.376109   0.752217   x
            x  P                 9         0.750000  -0.041666   0.083333   x
            x  P                10         0.250000   0.083375   0.833251   x
            x  P                11         0.750000  -0.461069   0.922139   x
            x  P                12         0.250000   0.502778  -0.005556   x
            x  In                1         0.500000   0.291888   0.416224   x
            x  In                2         0.500000   0.124988   0.750024   x
            x  In                3         0.000000  -0.334155   0.668311   x
            x  In                4         0.500000   0.208222   0.583557   x
            x  In                5        -0.000000  -0.250262   0.500524   x
            x  In                6         0.000000  -0.418926   0.837852   x
            x  In                7         0.000000  -0.166578   0.333157   x
            x  In                8         0.500000   0.043027   0.913947   x
            x  In                9         0.000000  -0.083302   0.166604   x
            x  In               10         0.500000   0.460620   0.078760   x
            x  In               11         0.000000  -0.001316   0.002632   x
            x  In               12         0.500000   0.375804   0.248392   x
            xxxxxxxxxxxxxxxxxxxxxxxxxxxxxxxxxxxxxxxxxxxxxxxxxxxxxxxxxxxxxxxxx


------------------------------------------------------------------------ <-- SCF
SCF loop      Energy           Fermi           Energy gain       Timer   <-- SCF
                               energy          per atom          (sec)   <-- SCF
------------------------------------------------------------------------ <-- SCF
Initial  -2.35778176E+004  0.00000000E+000                      2110.78  <-- SCF
      1  -2.35778460E+004  3.28974397E+000   1.18457483E-003    2150.82  <-- SCF
      2  -2.35778473E+004  3.28974163E+000   5.34296217E-005    2194.04  <-- SCF
      3  -2.35778473E+004  3.28925425E+000   7.45481030E-008    2230.37  <-- SCF
      4  -2.35778473E+004  3.28869074E+000   1.53044254E-007    2266.84  <-- SCF
      5  -2.35778473E+004  3.28838659E+000   3.49306029E-008    2299.09  <-- SCF
      6  -2.35778473E+004  3.28814633E+000  -9.46144577E-009    2327.38  <-- SCF
      7  -2.35778473E+004  3.28786133E+000  -1.59716196E-008    2357.08  <-- SCF
      8  -2.35778473E+004  3.28754506E+000  -1.15212521E-008    2384.85  <-- SCF
      9  -2.35778473E+004  3.28733816E+000  -2.13302096E-009    2413.11  <-- SCF
     10  -2.35778473E+004  3.28731213E+000  -1.34054979E-011    2438.30  <-- SCF
     11  -2.35778473E+004  3.28730877E+000   1.67568724E-012    2465.01  <-- SCF
------------------------------------------------------------------------ <-- SCF
 
Final energy, E             =  -23577.84463304     eV
Final free energy (E-TS)    =  -23577.84733038     eV
(energies not corrected for finite basis set)
 
NB est. 0K energy (E-0.5TS)      =  -23577.84598171     eV
 

 ******************************** Constrained Forces ********************************
 *                                                                                  *
 *                           Cartesian components (eV/A)                            *
 * -------------------------------------------------------------------------------- *
 *                         x                    y                    z              *
 *                                                                                  *
 * P               1      0.00000(cons'd)      0.00000(cons'd)     -0.00197         *
 * P               2      0.00000(cons'd)     -0.00000(cons'd)      0.00006         *
 * P               3      0.00000(cons'd)      0.00000(cons'd)     -0.00051         *
 * P               4     -0.00000(cons'd)      0.00000(cons'd)     -0.00158         *
 * P               5     -0.00000(cons'd)      0.00000(cons'd)      0.00132         *
 * P               6      0.00000(cons'd)      0.00000(cons'd)      0.00166         *
 * P               7      0.00000(cons'd)      0.00000(cons'd)     -0.00431         *
 * P               8     -0.00000(cons'd)      0.00000(cons'd)     -0.00210         *
 * P               9      0.00000(cons'd)      0.00000(cons'd)     -0.01389         *
 * P              10      0.00000(cons'd)     -0.00000(cons'd)      0.01963         *
 * P              11      0.00000(cons'd)      0.00000(cons'd)      0.00405         *
 * P              12     -0.00000(cons'd)     -0.00000(cons'd)     -0.00389         *
 * In              1      0.00000(cons'd)     -0.00000(cons'd)      0.00152         *
 * In              2      0.00000(cons'd)      0.00000(cons'd)     -0.02812         *
 * In              3      0.00000(cons'd)      0.00000(cons'd)      0.01231         *
 * In              4      0.00000(cons'd)      0.00000(cons'd)     -0.01073         *
 * In              5      0.00000(cons'd)      0.00000(cons'd)     -0.00242         *
 * In              6      0.00000(cons'd)      0.00000(cons'd)      0.00203         *
 * In              7      0.00000(cons'd)      0.00000(cons'd)      0.01137         *
 * In              8      0.00000(cons'd)      0.00000(cons'd)     -0.00639         *
 * In              9      0.00000(cons'd)      0.00000(cons'd)      0.02966         *
 * In             10      0.00000(cons'd)      0.00000(cons'd)     -0.00110         *
 * In             11      0.00000(cons'd)      0.00000(cons'd)      0.00619         *
 * In             12      0.00000(cons'd)      0.00000(cons'd)     -0.01279         *
 *                                                                                  *
 ************************************************************************************
  
 +------------+-------------+-------------+-----------------+ <-- min LBFGS
 |    Step    |   lambda    |   F.delta'  |    enthalpy     | <-- min LBFGS
 +------------+-------------+-------------+-----------------+ <-- min LBFGS
 |  previous  |    0.000000 |    0.075337 |   -23577.845899 | <-- min LBFGS
 | trial step |    1.000000 |    0.031717 |   -23577.847077 | <-- min LBFGS
 |  line step |    1.727121 |   -0.000084 |   -23577.847330 | <-- min LBFGS
 +------------+-------------+-------------+-----------------+ <-- min LBFGS
  
 LBFGS: finished iteration     2 with enthalpy= -2.35778473E+004 eV
  
 +-----------+-----------------+-----------------+------------+-----+ <-- LBFGS
 | Parameter |      value      |    tolerance    |    units   | OK? | <-- LBFGS
 +-----------+-----------------+-----------------+------------+-----+ <-- LBFGS
 |  dE/ion   |   5.965075E-005 |   2.000000E-005 |         eV | No  | <-- LBFGS
 |  |F|max   |   2.966264E-002 |   1.000000E-003 |       eV/A | No  | <-- LBFGS
 |  |dR|max  |   1.423218E-002 |   1.000000E-003 |          A | No  | <-- LBFGS
 +-----------+-----------------+-----------------+------------+-----+ <-- LBFGS
  

================================================================================
 Starting LBFGS iteration          3 ...
================================================================================
  
 +------------+-------------+-------------+-----------------+ <-- min LBFGS
 |    Step    |   lambda    |   F.delta'  |    enthalpy     | <-- min LBFGS
 +------------+-------------+-------------+-----------------+ <-- min LBFGS
 |  previous  |    0.000000 |    0.026786 |   -23577.847330 | <-- min LBFGS
 +------------+-------------+-------------+-----------------+ <-- min LBFGS
  

--------------------------------------------------------------------------------
 LBFGS: starting iteration         3 with trial guess (lambda=  1.000000)
--------------------------------------------------------------------------------

                           -------------------------------
                                     Cell Contents
                           -------------------------------

            xxxxxxxxxxxxxxxxxxxxxxxxxxxxxxxxxxxxxxxxxxxxxxxxxxxxxxxxxxxxxxxxx
            x  Element         Atom        Fractional coordinates of atoms  x
            x                 Number           u          v          w      x
            x---------------------------------------------------------------x
            x  P                 1         0.250000   0.333729   0.332542   x
            x  P                 2         0.750000  -0.208379   0.416757   x
            x  P                 3         0.750000  -0.124847   0.249694   x
            x  P                 4         0.250000   0.250023   0.499954   x
            x  P                 5         0.750000  -0.292084   0.584167   x
            x  P                 6         0.250000   0.417740   0.164521   x
            x  P                 7         0.250000   0.166520   0.666961   x
            x  P                 8         0.750000  -0.376079   0.752159   x
            x  P                 9         0.750000  -0.041728   0.083456   x
            x  P                10         0.250000   0.083409   0.833182   x
            x  P                11         0.750000  -0.461115   0.922231   x
            x  P                12         0.250000   0.502806  -0.005613   x
            x  In                1         0.500000   0.291887   0.416225   x
            x  In                2         0.500000   0.125111   0.749777   x
            x  In                3         0.000000  -0.334149   0.668299   x
            x  In                4         0.500000   0.208292   0.583417   x
            x  In                5        -0.000000  -0.250242   0.500484   x
            x  In                6         0.000000  -0.418940   0.837881   x
            x  In                7         0.000000  -0.166634   0.333269   x
            x  In                8         0.500000   0.043086   0.913829   x
            x  In                9         0.000000  -0.083433   0.166866   x
            x  In               10         0.500000   0.460617   0.078766   x
            x  In               11         0.000000  -0.001393   0.002786   x
            x  In               12         0.500000   0.375805   0.248390   x
            xxxxxxxxxxxxxxxxxxxxxxxxxxxxxxxxxxxxxxxxxxxxxxxxxxxxxxxxxxxxxxxxx


------------------------------------------------------------------------ <-- SCF
SCF loop      Energy           Fermi           Energy gain       Timer   <-- SCF
                               energy          per atom          (sec)   <-- SCF
------------------------------------------------------------------------ <-- SCF
Initial  -2.35778199E+004  0.00000000E+000                      2508.68  <-- SCF
      1  -2.35778453E+004  3.28985492E+000   1.05703337E-003    2547.30  <-- SCF
      2  -2.35778475E+004  3.28985403E+000   9.18337465E-005    2590.96  <-- SCF
      3  -2.35778476E+004  3.29008173E+000   1.25097271E-006    2627.75  <-- SCF
      4  -2.35778476E+004  3.29039546E+000   5.75205684E-007    2666.65  <-- SCF
      5  -2.35778476E+004  3.29054721E+000   3.61492142E-008    2695.08  <-- SCF
      6  -2.35778476E+004  3.29074758E+000   1.35936905E-009    2725.49  <-- SCF
      7  -2.35778476E+004  3.29089161E+000  -4.34338133E-009    2754.51  <-- SCF
------------------------------------------------------------------------ <-- SCF
 
Final energy, E             =  -23577.84494832     eV
Final free energy (E-TS)    =  -23577.84756725     eV
(energies not corrected for finite basis set)
 
NB est. 0K energy (E-0.5TS)      =  -23577.84625779     eV
 

 ******************************** Constrained Forces ********************************
 *                                                                                  *
 *                           Cartesian components (eV/A)                            *
 * -------------------------------------------------------------------------------- *
 *                         x                    y                    z              *
 *                                                                                  *
 * P               1      0.00000(cons'd)      0.00000(cons'd)     -0.00481         *
 * P               2      0.00000(cons'd)     -0.00000(cons'd)      0.00266         *
 * P               3      0.00000(cons'd)      0.00000(cons'd)      0.00406         *
 * P               4      0.00000(cons'd)      0.00000(cons'd)     -0.00198         *
 * P               5      0.00000(cons'd)      0.00000(cons'd)      0.00477         *
 * P               6     -0.00000(cons'd)      0.00000(cons'd)     -0.00591         *
 * P               7      0.00000(cons'd)      0.00000(cons'd)     -0.00299         *
 * P               8     -0.00000(cons'd)      0.00000(cons'd)      0.00551         *
 * P               9      0.00000(cons'd)      0.00000(cons'd)     -0.00220         *
 * P              10      0.00000(cons'd)     -0.00000(cons'd)      0.00038         *
 * P              11      0.00000(cons'd)      0.00000(cons'd)     -0.00846         *
 * P              12      0.00000(cons'd)      0.00000(cons'd)      0.00812         *
 * In              1      0.00000(cons'd)     -0.00000(cons'd)     -0.00357         *
 * In              2      0.00000(cons'd)      0.00000(cons'd)      0.00043         *
 * In              3      0.00000(cons'd)      0.00000(cons'd)      0.00454         *
 * In              4      0.00000(cons'd)      0.00000(cons'd)     -0.00447         *
 * In              5      0.00000(cons'd)      0.00000(cons'd)      0.00359         *
 * In              6      0.00000(cons'd)      0.00000(cons'd)      0.00404         *
 * In              7      0.00000(cons'd)      0.00000(cons'd)      0.00360         *
 * In              8      0.00000(cons'd)      0.00000(cons'd)      0.00071         *
 * In              9      0.00000(cons'd)      0.00000(cons'd)      0.00003         *
 * In             10      0.00000(cons'd)      0.00000(cons'd)     -0.00456         *
 * In             11      0.00000(cons'd)      0.00000(cons'd)      0.00121         *
 * In             12      0.00000(cons'd)      0.00000(cons'd)     -0.00468         *
 *                                                                                  *
 ************************************************************************************
  
 +------------+-------------+-------------+-----------------+ <-- min LBFGS
 |    Step    |   lambda    |   F.delta'  |    enthalpy     | <-- min LBFGS
 +------------+-------------+-------------+-----------------+ <-- min LBFGS
 |  previous  |    0.000000 |    0.026786 |   -23577.847330 | <-- min LBFGS
 | trial step |    1.000000 |   -0.000841 |   -23577.847567 | <-- min LBFGS
 +------------+-------------+-------------+-----------------+ <-- min LBFGS
  
 LBFGS: finished iteration     3 with enthalpy= -2.35778476E+004 eV
  
 +-----------+-----------------+-----------------+------------+-----+ <-- LBFGS
 | Parameter |      value      |    tolerance    |    units   | OK? | <-- LBFGS
 +-----------+-----------------+-----------------+------------+-----+ <-- LBFGS
 |  dE/ion   |   9.869693E-006 |   2.000000E-005 |         eV | Yes | <-- LBFGS
 |  |F|max   |   8.463916E-003 |   1.000000E-003 |       eV/A | No  | <-- LBFGS
 |  |dR|max  |   6.548747E-003 |   1.000000E-003 |          A | No  | <-- LBFGS
 +-----------+-----------------+-----------------+------------+-----+ <-- LBFGS
  

================================================================================
 Starting LBFGS iteration          4 ...
================================================================================
  
 +------------+-------------+-------------+-----------------+ <-- min LBFGS
 |    Step    |   lambda    |   F.delta'  |    enthalpy     | <-- min LBFGS
 +------------+-------------+-------------+-----------------+ <-- min LBFGS
 |  previous  |    0.000000 |    0.014264 |   -23577.847567 | <-- min LBFGS
 +------------+-------------+-------------+-----------------+ <-- min LBFGS
  

--------------------------------------------------------------------------------
 LBFGS: starting iteration         4 with trial guess (lambda=  1.000000)
--------------------------------------------------------------------------------

                           -------------------------------
                                     Cell Contents
                           -------------------------------

            xxxxxxxxxxxxxxxxxxxxxxxxxxxxxxxxxxxxxxxxxxxxxxxxxxxxxxxxxxxxxxxxx
            x  Element         Atom        Fractional coordinates of atoms  x
            x                 Number           u          v          w      x
            x---------------------------------------------------------------x
            x  P                 1         0.250000   0.333756   0.332487   x
            x  P                 2         0.750000  -0.208387   0.416774   x
            x  P                 3         0.750000  -0.124852   0.249704   x
            x  P                 4         0.250000   0.250032   0.499935   x
            x  P                 5         0.750000  -0.292109   0.584218   x
            x  P                 6         0.250000   0.417775   0.164449   x
            x  P                 7         0.250000   0.166525   0.666951   x
            x  P                 8         0.750000  -0.376114   0.752228   x
            x  P                 9         0.750000  -0.041721   0.083442   x
            x  P                10         0.250000   0.083402   0.833196   x
            x  P                11         0.750000  -0.461108   0.922217   x
            x  P                12         0.250000   0.502797  -0.005595   x
            x  In                1         0.500000   0.291905   0.416191   x
            x  In                2         0.500000   0.125110   0.749779   x
            x  In                3         0.000000  -0.334184   0.668369   x
            x  In                4         0.500000   0.208304   0.583393   x
            x  In                5        -0.000000  -0.250258   0.500515   x
            x  In                6         0.000000  -0.418965   0.837931   x
            x  In                7         0.000000  -0.166643   0.333286   x
            x  In                8         0.500000   0.043088   0.913825   x
            x  In                9         0.000000  -0.083434   0.166867   x
            x  In               10         0.500000   0.460642   0.078715   x
            x  In               11         0.000000  -0.001402   0.002804   x
            x  In               12         0.500000   0.375841   0.248318   x
            xxxxxxxxxxxxxxxxxxxxxxxxxxxxxxxxxxxxxxxxxxxxxxxxxxxxxxxxxxxxxxxxx


------------------------------------------------------------------------ <-- SCF
SCF loop      Energy           Fermi           Energy gain       Timer   <-- SCF
                               energy          per atom          (sec)   <-- SCF
------------------------------------------------------------------------ <-- SCF
Initial  -2.35778449E+004  0.00000000E+000                      2798.08  <-- SCF
      1  -2.35778474E+004  3.29111441E+000   1.05702757E-004    2838.24  <-- SCF
      2  -2.35778476E+004  3.29111435E+000   8.68523006E-006    2879.96  <-- SCF
      3  -2.35778476E+004  3.29112844E+000   9.73625848E-008    2914.30  <-- SCF
      4  -2.35778476E+004  3.29115312E+000   5.38162426E-008    2947.13  <-- SCF
      5  -2.35778476E+004  3.29117691E+000   5.41014961E-009    2972.32  <-- SCF
      6  -2.35778476E+004  3.29120423E+000   7.18998726E-010    2996.88  <-- SCF
------------------------------------------------------------------------ <-- SCF
 
Final energy, E             =  -23577.84502485     eV
Final free energy (E-TS)    =  -23577.84761509     eV
(energies not corrected for finite basis set)
 
NB est. 0K energy (E-0.5TS)      =  -23577.84631997     eV
 

 ******************************** Constrained Forces ********************************
 *                                                                                  *
 *                           Cartesian components (eV/A)                            *
 * -------------------------------------------------------------------------------- *
 *                         x                    y                    z              *
 *                                                                                  *
 * P               1      0.00000(cons'd)      0.00000(cons'd)     -0.00098         *
 * P               2      0.00000(cons'd)     -0.00000(cons'd)      0.00277         *
 * P               3      0.00000(cons'd)      0.00000(cons'd)      0.00157         *
 * P               4      0.00000(cons'd)      0.00000(cons'd)     -0.00294         *
 * P               5      0.00000(cons'd)      0.00000(cons'd)      0.00125         *
 * P               6      0.00000(cons'd)     -0.00000(cons'd)      0.00047         *
 * P               7      0.00000(cons'd)      0.00000(cons'd)     -0.00128         *
 * P               8     -0.00000(cons'd)      0.00000(cons'd)     -0.00037         *
 * P               9      0.00000(cons'd)      0.00000(cons'd)      0.00306         *
 * P              10      0.00000(cons'd)     -0.00000(cons'd)     -0.00281         *
 * P              11      0.00000(cons'd)      0.00000(cons'd)     -0.00043         *
 * P              12      0.00000(cons'd)      0.00000(cons'd)     -0.00006         *
 * In              1     -0.00000(cons'd)      0.00000(cons'd)     -0.00388         *
 * In              2      0.00000(cons'd)     -0.00000(cons'd)     -0.00074         *
 * In              3      0.00000(cons'd)      0.00000(cons'd)      0.00115         *
 * In              4      0.00000(cons'd)      0.00000(cons'd)     -0.00251         *
 * In              5      0.00000(cons'd)      0.00000(cons'd)      0.00388         *
 * In              6      0.00000(cons'd)      0.00000(cons'd)     -0.00082         *
 * In              7      0.00000(cons'd)      0.00000(cons'd)      0.00289         *
 * In              8      0.00000(cons'd)      0.00000(cons'd)      0.00162         *
 * In              9     -0.00000(cons'd)      0.00000(cons'd)      0.00074         *
 * In             10      0.00000(cons'd)      0.00000(cons'd)      0.00059         *
 * In             11      0.00000(cons'd)      0.00000(cons'd)     -0.00183         *
 * In             12      0.00000(cons'd)      0.00000(cons'd)     -0.00134         *
 *                                                                                  *
 ************************************************************************************
  
 +------------+-------------+-------------+-----------------+ <-- min LBFGS
 |    Step    |   lambda    |   F.delta'  |    enthalpy     | <-- min LBFGS
 +------------+-------------+-------------+-----------------+ <-- min LBFGS
 |  previous  |    0.000000 |    0.014264 |   -23577.847567 | <-- min LBFGS
[...]
            x  In                3         0.000000  -0.334199   0.668397   x
            x  In                4         0.500000   0.208333   0.583334   x
            x  In                5        -0.000000  -0.250286   0.500573   x
            x  In                6         0.000000  -0.418964   0.837927   x
            x  In                7         0.000000  -0.166673   0.333346   x
            x  In                8         0.500000   0.043099   0.913803   x
            x  In                9        -0.000000  -0.083457   0.166914   x
            x  In               10         0.500000   0.460642   0.078717   x
            x  In               11         0.000000  -0.001415   0.002830   x
            x  In               12         0.500000   0.375856   0.248287   x
            xxxxxxxxxxxxxxxxxxxxxxxxxxxxxxxxxxxxxxxxxxxxxxxxxxxxxxxxxxxxxxxxx


 LBFGS: Final Enthalpy     = -2.35778476E+004 eV
 LBFGS: Final <frequency>  =     166.91763 cm-1

 ******************* Unconstrained Forces *******************
 *                                                          *
 *               Cartesian components (eV/A)                *
 * -------------------------------------------------------- *
 *                         x            y            z      *
 *                                                          *
 * P               1      0.05842     -0.00164     -0.00043 *
 * P               2      0.01911      0.00455      0.00027 *
 * P               3     -0.04744     -0.00163      0.00006 *
 * P               4      0.02076     -0.00651     -0.00045 *
 * P               5      0.05686      0.00469      0.00034 *
 * P               6      0.13532      0.00533      0.00020 *
 * P               7     -0.04827     -0.00154      0.00012 *
 * P               8      0.13534     -0.00327     -0.00014 *
 * P               9     -0.40807     -0.00312      0.00014 *
 * P              10     -0.41245      0.00387     -0.00012 *
 * P              11      0.41105     -0.00206      0.00051 *
 * P              12      0.41126      0.00102     -0.00037 *
 * In              1     -0.03913     -0.00018      0.00086 *
 * In              2      0.19349      0.00020     -0.00033 *
 * In              3     -0.11417      0.00006     -0.00077 *
 * In              4      0.01451     -0.00017     -0.00015 *
 * In              5     -0.03913      0.00027     -0.00065 *
 * In              6     -0.26493     -0.00021      0.00043 *
 * In              7      0.01154      0.00001      0.00028 *
 * In              8      0.04844      0.00015      0.00008 *
 * In              9      0.19313     -0.00026      0.00025 *
 * In             10     -0.26774      0.00026     -0.00063 *
 * In             11      0.04758      0.00003     -0.00035 *
 * In             12     -0.11547      0.00014      0.00085 *
 *                                                          *
 ************************************************************

 ******************************** Constrained Forces ********************************
 *                                                                                  *
 *                           Cartesian components (eV/A)                            *
 * -------------------------------------------------------------------------------- *
 *                         x                    y                    z              *
 *                                                                                  *
 * P               1      0.00000(cons'd)      0.00000(cons'd)     -0.00043         *
 * P               2     -0.00000(cons'd)     -0.00000(cons'd)      0.00027         *
 * P               3      0.00000(cons'd)      0.00000(cons'd)      0.00006         *
 * P               4      0.00000(cons'd)      0.00000(cons'd)     -0.00045         *
 * P               5      0.00000(cons'd)      0.00000(cons'd)      0.00034         *
 * P               6      0.00000(cons'd)     -0.00000(cons'd)      0.00020         *
 * P               7      0.00000(cons'd)      0.00000(cons'd)      0.00012         *
 * P               8      0.00000(cons'd)      0.00000(cons'd)     -0.00014         *
 * P               9      0.00000(cons'd)      0.00000(cons'd)      0.00014         *
 * P              10      0.00000(cons'd)     -0.00000(cons'd)     -0.00012         *
 * P              11      0.00000(cons'd)      0.00000(cons'd)      0.00051         *
 * P              12     -0.00000(cons'd)      0.00000(cons'd)     -0.00037         *
 * In              1      0.00000(cons'd)     -0.00000(cons'd)      0.00086         *
 * In              2      0.00000(cons'd)      0.00000(cons'd)     -0.00033         *
 * In              3      0.00000(cons'd)      0.00000(cons'd)     -0.00077         *
 * In              4      0.00000(cons'd)      0.00000(cons'd)     -0.00015         *
 * In              5      0.00000(cons'd)      0.00000(cons'd)     -0.00065         *
 * In              6      0.00000(cons'd)      0.00000(cons'd)      0.00043         *
 * In              7     -0.00000(cons'd)      0.00000(cons'd)      0.00028         *
 * In              8     -0.00000(cons'd)      0.00000(cons'd)      0.00008         *
 * In              9     -0.00000(cons'd)      0.00000(cons'd)      0.00025         *
 * In             10      0.00000(cons'd)      0.00000(cons'd)     -0.00063         *
 * In             11      0.00000(cons'd)      0.00000(cons'd)     -0.00035         *
 * In             12      0.00000(cons'd)      0.00000(cons'd)      0.00085         *
 *                                                                                  *
 ************************************************************************************

 Pseudo atomic calculation performed for P 3s2 3p3

 Converged in 23 iterations to a total energy of -208.0292 eV

 Pseudo atomic calculation performed for In 4d10 5s2 5p1

 Converged in 42 iterations to a total energy of -1747.4501 eV
Charge spilling parameter for spin component 1 = 0.17%

            Orbital Populations       
     Ion    Atom   Orbital             Charge
  -------------------------------------------
      P     1      S                    1.737
      P     1      Px                   1.313
      P     1      Py                   1.311
      P     1      Pz                   1.313
      P     2      S                    1.736
      P     2      Px                   1.313
      P     2      Py                   1.313
      P     2      Pz                   1.312
      P     3      S                    1.736
      P     3      Px                   1.315
      P     3      Py                   1.317
      P     3      Pz                   1.308
      P     4      S                    1.736
      P     4      Px                   1.313
      P     4      Py                   1.313
      P     4      Pz                   1.312
      P     5      S                    1.737
      P     5      Px                   1.313
      P     5      Py                   1.311
      P     5      Pz                   1.313
      P     6      S                    1.740
      P     6      Px                   1.310
      P     6      Py                   1.304
      P     6      Pz                   1.313
      P     7      S                    1.736
      P     7      Px                   1.315
      P     7      Py                   1.317
      P     7      Pz                   1.308
      P     8      S                    1.740
      P     8      Px                   1.310
      P     8      Py                   1.304
      P     8      Pz                   1.313
      P     9      S                    1.737
      P     9      Px                   1.317
      P     9      Py                   1.333
      P     9      Pz                   1.283
      P    10      S                    1.737
      P    10      Px                   1.317
      P    10      Py                   1.333
      P    10      Pz                   1.283
      P    11      S                    1.789
      P    11      Px                   1.298
      P    11      Py                   1.194
      P    11      Pz                   1.367
      P    12      S                    1.789
      P    12      Px                   1.298
      P    12      Py                   1.194
      P    12      Pz                   1.367
     In     1      Dzz                  1.998
     In     1      Dzy                  1.999
     In     1      Dzx                  1.997
     In     1      Dxx-yy               1.999
     In     1      Dxy                  1.997
     In     1      S                    1.429
     In     1      Px                   0.481
     In     1      Py                   0.481
     In     1      Pz                   0.482
     In     1      S                   -0.530
     In     2      Dzz                  1.997
     In     2      Dzy                  1.999
     In     2      Dzx                  1.997
     In     2      Dxx-yy               1.999
     In     2      Dxy                  1.997
     In     2      S                    1.439
     In     2      Px                   0.479
     In     2      Py                   0.488
     In     2      Pz                   0.473
     In     2      S                   -0.541
     In     3      Dzz                  1.998
     In     3      Dzy                  1.999
     In     3      Dzx                  1.997
     In     3      Dxx-yy               1.999
     In     3      Dxy                  1.997
     In     3      S                    1.431
     In     3      Px                   0.482
     In     3      Py                   0.478
     In     3      Pz                   0.484
     In     3      S                   -0.530
     In     4      Dzz                  1.998
     In     4      Dzy                  1.999
     In     4      Dzx                  1.997
     In     4      Dxx-yy               1.999
     In     4      Dxy                  1.997
     In     4      S                    1.432
     In     4      Px                   0.481
     In     4      Py                   0.483
     In     4      Pz                   0.480
     In     4      S                   -0.537
     In     5      Dzz                  1.998
     In     5      Dzy                  1.999
     In     5      Dzx                  1.997
     In     5      Dxx-yy               1.999
     In     5      Dxy                  1.997
     In     5      S                    1.429
     In     5      Px                   0.481
     In     5      Py                   0.481
     In     5      Pz                   0.482
     In     5      S                   -0.530
     In     6      Dzz                  1.998
     In     6      Dzy                  1.999
     In     6      Dzx                  1.997
     In     6      Dxx-yy               1.999
     In     6      Dxy                  1.997
     In     6      S                    1.436
     In     6      Px                   0.480
     In     6      Py                   0.468
     In     6      Pz                   0.497
     In     6      S                   -0.493
     In     7      Dzz                  1.998
     In     7      Dzy                  1.999
     In     7      Dzx                  1.997
     In     7      Dxx-yy               1.999
     In     7      Dxy                  1.997
     In     7      S                    1.432
     In     7      Px                   0.481
     In     7      Py                   0.483
     In     7      Pz                   0.480
     In     7      S                   -0.536
     In     8      Dzz                  1.998
     In     8      Dzy                  1.999
     In     8      Dzx                  1.997
     In     8      Dxx-yy               1.999
     In     8      Dxy                  1.997
     In     8      S                    1.391
     In     8      Px                   0.451
     In     8      Py                   0.493
     In     8      Pz                   0.391
     In     8      S                   -0.428
     In     9      Dzz                  1.997
     In     9      Dzy                  1.999
     In     9      Dzx                  1.997
     In     9      Dxx-yy               1.999
     In     9      Dxy                  1.997
     In     9      S                    1.439
     In     9      Px                   0.479
     In     9      Py                   0.488
     In     9      Pz                   0.473
     In     9      S                   -0.541
     In    10      Dzz                  1.998
     In    10      Dzy                  1.999
     In    10      Dzx                  1.997
     In    10      Dxx-yy               1.999
     In    10      Dxy                  1.997
     In    10      S                    1.436
     In    10      Px                   0.480
     In    10      Py                   0.468
     In    10      Pz                   0.497
     In    10      S                   -0.493
     In    11      Dzz                  1.998
     In    11      Dzy                  1.999
     In    11      Dzx                  1.997
     In    11      Dxx-yy               1.999
     In    11      Dxy                  1.997
     In    11      S                    1.391
     In    11      Px                   0.451
     In    11      Py                   0.493
     In    11      Pz                   0.391
     In    11      S                   -0.428
     In    12      Dzz                  1.998
     In    12      Dzy                  1.999
     In    12      Dzx                  1.997
     In    12      Dxx-yy               1.999
     In    12      Dxy                  1.997
     In    12      S                    1.431
     In    12      Px                   0.482
     In    12      Py                   0.478
     In    12      Pz                   0.484
     In    12      S                   -0.529
  -------------------------------------------
                           Total:     216.000
  -------------------------------------------

     Atomic Populations (Mulliken)
     -----------------------------
Species          Ion     s       p       d       f      Total   Charge (e)
==========================================================================
  P               1     1.737   3.936   0.000   0.000   5.674    -0.674
  P               2     1.736   3.938   0.000   0.000   5.675    -0.675
  P               3     1.736   3.939   0.000   0.000   5.675    -0.675
  P               4     1.736   3.938   0.000   0.000   5.675    -0.675
  P               5     1.737   3.936   0.000   0.000   5.674    -0.674
  P               6     1.740   3.927   0.000   0.000   5.666    -0.666
  P               7     1.736   3.939   0.000   0.000   5.675    -0.675
  P               8     1.740   3.927   0.000   0.000   5.666    -0.666
  P               9     1.737   3.933   0.000   0.000   5.670    -0.670
  P              10     1.737   3.933   0.000   0.000   5.670    -0.670
  P              11     1.789   3.859   0.000   0.000   5.648    -0.648
  P              12     1.789   3.859   0.000   0.000   5.648    -0.648
  In              1     0.899   1.444   9.989   0.000  12.333     0.667
  In              2     0.898   1.440   9.989   0.000  12.328     0.672
  In              3     0.902   1.444   9.990   0.000  12.336     0.664
  In              4     0.896   1.444   9.989   0.000  12.329     0.671
  In              5     0.899   1.444   9.989   0.000  12.333     0.667
  In              6     0.943   1.445   9.989   0.000  12.377     0.623
  In              7     0.896   1.444   9.989   0.000  12.329     0.671
  In              8     0.963   1.336   9.991   0.000  12.290     0.710
  In              9     0.898   1.440   9.989   0.000  12.328     0.672
  In             10     0.943   1.445   9.989   0.000  12.378     0.622
  In             11     0.963   1.335   9.991   0.000  12.290     0.710
  In             12     0.902   1.444   9.990   0.000  12.336     0.664
==========================================================================

                 Bond                   Population      Length (A)
======================================================================
              P 10 -- In 8                   0.63        2.50065
              P 9  -- In 11                  0.63        2.50088
              P 7  -- In 2                   0.54        2.54504
              P 3  -- In 9                   0.54        2.54516
              P 4  -- In 5                   1.25        2.55538
              P 2  -- In 1                   1.25        2.55538
              P 1  -- In 7                   1.26        2.55542
              P 5  -- In 4                   1.26        2.55543
              P 3  -- In 12                  1.23        2.55559
              P 7  -- In 3                   1.23        2.55560
              P 6  -- In 9                   1.26        2.55607
              P 8  -- In 2                   1.26        2.55609
              P 10 -- In 2                   0.52        2.55717
              P 9  -- In 9                   0.52        2.55728
              P 4  -- In 4                   0.54        2.55775
              P 10 -- In 6                   1.13        2.55811
              P 9  -- In 10                  1.13        2.55811
              P 2  -- In 7                   0.54        2.55830
              P 7  -- In 4                   0.55        2.56020
              P 3  -- In 7                   0.55        2.56071
              P 1  -- In 1                   0.54        2.56233
              P 5  -- In 5                   0.54        2.56234
              P 2  -- In 5                   0.54        2.56382
              P 4  -- In 1                   0.54        2.56387
              P 11 -- In 8                   1.36        2.56398
              P 12 -- In 11                  1.36        2.56401
              P 8  -- In 3                   0.55        2.56555
              P 6  -- In 12                  0.55        2.56572
              P 5  -- In 3                   0.52        2.57202
              P 1  -- In 12                  0.52        2.57242
              P 11 -- In 6                   0.61        2.57481
              P 12 -- In 10                  0.61        2.57532
              P 8  -- In 6                   0.48        2.60387
              P 6  -- In 10                  0.48        2.60453
======================================================================

 Hirshfeld supercell size:           3           4           1
Standard grid dimensions: 180 180 250
Fine grid dimensions:     180 180 250


     Hirshfeld Analysis
     ------------------
Species   Ion     Hirshfeld Charge (e)
======================================
  P        1                -0.24
  P        2                -0.24
  P        3                -0.24
  P        4                -0.24
  P        5                -0.24
  P        6                -0.24
  P        7                -0.24
  P        8                -0.24
  P        9                -0.23
  P       10                -0.23
  P       11                -0.26
  P       12                -0.26
  In       1                 0.24
  In       2                 0.24
  In       3                 0.24
  In       4                 0.24
  In       5                 0.24
  In       6                 0.22
  In       7                 0.24
  In       8                 0.27
  In       9                 0.24
  In      10                 0.22
  In      11                 0.27
  In      12                 0.24
======================================

 
 A BibTeX formatted list of references used in this run has been written to 
 StackingFaultStructs_110_1-10_4.bib
 
Initialisation time =     22.39 s
Calculation time    =   3507.38 s
Finalisation time   =     44.55 s
Total time          =   3574.32 s
Peak Memory Use     = 8933208 kB
 
Overall parallel efficiency rating: Very good (83%)
 
Data was distributed by:-
k-point (64-way); efficiency rating: Very good (83%)
