 +-------------------------------------------------+
 |                                                 |
 |      CCC   AA    SSS  TTTTT  EEEEE  PPPP        |
 |     C     A  A  S       T    E      P   P       |
 |     C     AAAA   SS     T    EEE    PPPP        |
 |     C     A  A     S    T    E      P           |
 |      CCC  A  A  SSS     T    EEEEE  P           |
 |                                                 |
 +-------------------------------------------------+
 |                                                 |
 | Welcome to Academic Release CASTEP version 20.11|          
 | Ab Initio Total Energy Program                  |
 |                                                 |
 | Authors:                                        |
 | M. Segall, M. Probert, C. Pickard, P. Hasnip,   |
 | S. Clark, K. Refson, J. R. Yates, M. Payne      |
 |                                                 |
 | Contributors:                                   |
 | P. Lindan, P. Haynes, J. White, V. Milman,      |
 | N. Govind, M. Gibson, P. Tulip, V. Cocula,      |
 | B. Montanari, D. Quigley, M. Glover,            |
 | L. Bernasconi, A. Perlov, M. Plummer,           |
 | E. McNellis, J. Meyer, J. Gale, D. Jochym       |
 | J. Aarons, B. Walker, R. Gillen, D. Jones       |
 | T. Green, I. J. Bush, C. J. Armstrong,          |
 | E. J. Higgins, E. L. Brown, M. S. McFly,        |
 | J. Wilkins, B-C. Shih, P. J. P. Byrne,          |
 | R. J. Maurer, J. C. Womack, J. Dziedzic,        |
 | J. R. Kermode, A. Bartok-Partay                 |
 |                                                 |
 | Copyright (c) 2000 - 2020                       |
 |                                                 |
 |     Distributed under license from Cambridge    |
 |     Enterprise for academic use only.           |
 |                                                 |
 | Please cite                                     |
 |                                                 |
 |     "First principles methods using CASTEP"     |
 |                                                 |
 |         Zeitschrift fuer Kristallographie       |
 |           220(5-6) pp. 567-570 (2005)           |
 |                                                 |
 | S. J. Clark, M. D. Segall, C. J. Pickard,       |
 | P. J. Hasnip, M. J. Probert, K. Refson,         |
 | M. C. Payne                                     |
 |                                                 |
 |       in all publications arising from          |
 |              your use of CASTEP                 |
 |                                                 |
 +-------------------------------------------------+
 |                                                 |
 |              http://www.castep.org              |
 |                                                 |
 +-------------------------------------------------+
 
 
 
 Compiled for linux_x86_64_ifort on Wed, 25 Aug 2021 18:50:38 +0100
 from code version e772bf432+  HEAD  Sat Apr 3 17:41:32 2021 +0100
 Compiler: Intel Fortran 19.0.5.281; Optimisation: fast
 MATHLIBS: Intel MKL(2019.0.5) (LAPACK version 3.7.0)
 FFT Lib : mkl
 Fundamental constants values: CODATA 2014
 
 Run started: Thu, 15 Dec 2022 15:06:22 +0000
 
 Atomic calculation performed for P: 1s2 2s2 2p6 3s2 3p3
 
 Exceeded max iterations: converged to -0.000003405 eV
 The ae energy is -9309.074 eV
 
   ============================================================                
   | Pseudopotential Report - Date of generation 15-12-2022   |                
   ------------------------------------------------------------                
   | Element: P Ionic charge:  5.00 Level of theory: RSCAN    |                
   | Atomic Solver: Koelling-Harmon                           |                
   |                                                          |                
   |               Reference Electronic Structure             |                
   |         Orbital         Occupation         Energy        |                
   |            3s              2.000           -0.535        |                
   |            3p              3.000           -0.209        |                
   |                                                          |                
   |                 Pseudopotential Definition               |                
   |        Beta     l      e      Rc     scheme   norm       |                
   |          1      0   -0.535   1.807     qc      0         |                
   |          2      0    0.250   1.807     qc      0         |                
   |          3      1   -0.209   1.807     qc      0         |                
   |          4      1    0.250   1.807     qc      0         |                
   |          5      2    0.000   1.807     qc      0         |                
   |          6      2    0.250   1.807     qc      0         |                
   |         loc     3    0.000   1.807     pn      0         |                
   |                                                          |                
   | Augmentation charge Rinner = 1.263                       |                
   | Partial core correction Rc = 1.263                       |                
   ------------------------------------------------------------                
   | "3|1.8|4|4|5|30:31:32"                                   |                
   ------------------------------------------------------------                
   |      Author: Chris J. Pickard, Cambridge University      |                
   ============================================================                
 Warning: ion_atom_output_psp cannot write out meta-GGA pseudopotentials present
 ly.
 
 Atomic calculation performed for In:
 1s2 2s2 2p6 3s2 3p6 3d10 4s2 4p6 4d10 5s2 5p1
 
 Exceeded max iterations: converged to -0.000725459 eV
 The ae energy is -160093.321 eV
 
   ============================================================                
   | Pseudopotential Report - Date of generation 15-12-2022   |                
   ------------------------------------------------------------                
   | Element: In Ionic charge: 13.00 Level of theory: RSCAN   |                
   | Atomic Solver: Koelling-Harmon                           |                
   |                                                          |                
   |               Reference Electronic Structure             |                
   |         Orbital         Occupation         Energy        |                
   |            4d             10.000           -0.711        |                
   |            5s              2.000           -0.313        |                
   |            5p              1.000           -0.095        |                
   |                                                          |                
   |                 Pseudopotential Definition               |                
   |        Beta     l      e      Rc     scheme   norm       |                
   |          1      0   -0.313   2.501     qc      0         |                
   |          2      0    0.250   2.501     qc      0         |                
   |          3      1   -0.095   2.501     qc      0         |                
   |          4      1    0.250   2.501     qc      0         |                
   |          5      2   -0.711   2.207     qc      0         |                
   |          6      2    0.250   2.207     qc      0         |                
   |         loc     3    0.000   2.501     pn      0         |                
   |                                                          |                
   | Augmentation charge Rinner = 1.504                       |                
   | Partial core correction Rc = 1.504                       |                
   ------------------------------------------------------------                
   | "3|2.5|2.5|1.5|7|8|9|50:51:42U2.2U2.2"                   |                
   ------------------------------------------------------------                
   |      Author: Chris J. Pickard, Cambridge University      |                
   ============================================================                
 Warning: ion_atom_output_psp cannot write out meta-GGA pseudopotentials present
 ly.
 
 Pseudo atomic calculation performed for P 3s2 3p3
 
 Converged in 23 iterations to a total energy of -208.0292 eV
 
 Pseudo atomic calculation performed for In 4d10 5s2 5p1
 
 Converged in 42 iterations to a total energy of -1747.4504 eV
 Calculation parallelised over 32 processes.
 Data is distributed by k-point(32-way)

 ************************************ Title ************************************
 

 ***************************** General Parameters ******************************
  
 output verbosity                               : normal  (1)
 write checkpoint data to                       : ZB_EOS_0.7471.check
 type of calculation                            : single point energy
 stress calculation                             : on
 density difference calculation                 : off
 electron localisation func (ELF) calculation   : off
 Hirshfeld analysis                             : off
 molecular orbital projected DOS                : off
 deltaSCF calculation                           : off
 unlimited duration calculation
 timing information                             : on
 memory usage estimate                          : on
 write extra output files                       : on
 write final potential to formatted file        : off
 write final density to formatted file          : off
 write BibTeX reference list                    : on
 write OTFG pseudopotential files               : on
 write electrostatic potential file             : on
 write bands file                               : on
 checkpoint writing                             : off
  
 output         length unit                     : A
 output           mass unit                     : amu
 output           time unit                     : ps
 output         charge unit                     : e
 output           spin unit                     : hbar/2
 output         energy unit                     : eV
 output          force unit                     : eV/A
 output       velocity unit                     : A/ps
 output       pressure unit                     : GPa
 output     inv_length unit                     : 1/A
 output      frequency unit                     : cm-1
 output force constant unit                     : eV/A**2
 output         volume unit                     : A**3
 output   IR intensity unit                     : (D/A)**2/amu
 output         dipole unit                     : D
 output         efield unit                     : eV/A/e
 output        entropy unit                     : J/mol/K
 output    efield chi2 unit                     : pm/V
  
 wavefunctions paging                           : none
 random number generator seed                   : randomised (150622763)
 data distribution                              : optimal for this architecture
 optimization strategy                          : balance speed and memory

 *********************** Exchange-Correlation Parameters ***********************
  
 using functional                               : RSCAN
 relativistic treatment                         : Koelling-Harmon
 DFT+D: Semi-empirical dispersion correction    : off

 ************************* Pseudopotential Parameters **************************
  
 pseudopotential representation                 : reciprocal space
 <beta|phi> representation                      : reciprocal space
 spin-orbit coupling                            : off

 **************************** Basis Set Parameters *****************************
  
 plane wave basis set cut-off                   :   900.0000   eV
 size of standard grid                          :     1.7500
 size of   fine   gmax                          :    26.8966   1/A
 finite basis set correction                    : automatic
 number of sample energies                      :          3
           sample  spacing                      :     5.0000   eV

 **************************** Electronic Parameters ****************************
  
 number of  electrons                           :  72.00    
 net charge of system                           :  0.000    
 treating system as non-spin-polarized
 number of bands                                :         43

 ********************* Electronic Minimization Parameters **********************
  
 Method: Treating system as metallic with density mixing treatment of electrons,
         and number of  SD  steps               :          1
         and number of  CG  steps               :          4
  
 total energy / atom convergence tol.           : 0.1000E-07   eV
 eigen-energy convergence tolerance             : 0.2222E-08   eV
 max force / atom convergence tol.              : ignored
 convergence tolerance window                   :          3   cycles
 max. number of SCF cycles                      :         30
 number of fixed-spin iterations                :         10
 smearing scheme                                : Gaussian
 smearing width                                 : 0.2000       eV
 Fermi energy convergence tolerance             : 0.2721E-13   eV
 periodic dipole correction                     : NONE

 ************************** Density Mixing Parameters **************************
  
 density-mixing scheme                          : Broyden
 max. length of mixing history                  :         20
 charge density mixing amplitude                : 0.8000    
 cut-off energy for mixing                      :  900.0       eV

 *********************** Population Analysis Parameters ************************
  
 Population analysis with cutoff                :  3.000       A
 Population analysis output                     : summary and pdos components

 *******************************************************************************
  
 
                           -------------------------------
                                      Unit Cell
                           -------------------------------
        Real Lattice(A)                      Reciprocal Lattice(1/A)
     4.4088810     0.0000000     0.0000000        1.425120185   0.000000000   0.000000000
     0.0000000     4.4088810     0.0000000        0.000000000   1.425120185   0.000000000
     0.0000000     0.0000000     4.4088810        0.000000000   0.000000000   1.425120185
 
                       Lattice parameters(A)       Cell Angles
                    a =      4.408881          alpha =   90.000000
                    b =      4.408881          beta  =   90.000000
                    c =      4.408881          gamma =   90.000000
 
                       Current cell volume =            85.700850       A**3
                                   density =             6.804682   AMU/A**3
                                           =            11.299440     g/cm^3
 
                           -------------------------------
                                     Cell Contents
                           -------------------------------
                         Total number of ions in cell =    8
                      Total number of species in cell =    2
                        Max number of any one species =    4
 
            xxxxxxxxxxxxxxxxxxxxxxxxxxxxxxxxxxxxxxxxxxxxxxxxxxxxxxxxxxxx
            x  Element    Atom        Fractional coordinates of atoms  x
            x            Number           u          v          w      x
            x----------------------------------------------------------x
            x  P            1         0.250000   0.250000   0.750000   x 
            x  P            2         0.750000   0.250000   0.250000   x 
            x  P            3         0.250000   0.750000   0.250000   x 
            x  P            4         0.750000   0.750000   0.750000   x 
            x  In           1         0.000000   0.000000   0.000000   x 
            x  In           2         0.500000   0.000000   0.500000   x 
            x  In           3         0.000000   0.500000   0.500000   x 
            x  In           4         0.500000   0.500000   0.000000   x 
            xxxxxxxxxxxxxxxxxxxxxxxxxxxxxxxxxxxxxxxxxxxxxxxxxxxxxxxxxxxx
 
 
                         No user defined ionic velocities
 
                           -------------------------------
                                   Details of Species
                           -------------------------------
 
                               Mass of species in AMU
                                    P   30.9737600
                                    In  114.8180000
 
                          Electric Quadrupole Moment (Barn)
                                    P    1.0000000 No Isotope Defined
                                    In    0.7700000 Isotope115
 
                          Files used for pseudopotentials:
                                    P 3|1.8|4|4|5|30:31:32
                                    In 3|2.5|2.5|1.5|7|8|9|50:51:42U2.2U2.2
 
                           -------------------------------
                              k-Points For BZ Sampling
                           -------------------------------
                       MP grid size for SCF calculation is  9  9  9
                            with an offset of   0.056  0.056  0.056
                       Number of kpoints used =           365
 
                           -------------------------------
                               Symmetry and Constraints
                           -------------------------------
 
                      Cell is a supercell containing 4 primitive cells
                      Maximum deviation from symmetry =  0.00000         ANG
 
                      Number of symmetry operations   =           1
                      Number of ionic constraints     =           3
                      Point group of crystal =     1: C1, 1, 1
                      Space group of crystal =   216: F-43m, F -4 2 3
 
             Set iprint > 1 for details on symmetry rotations/translations
 
                         Centre of mass is constrained
             Set iprint > 1 for details of linear ionic constraints
 
                         Number of cell constraints= 0
                         Cell constraints are:  1 2 3 4 5 6
 
                         External pressure/stress (GPa)
                          0.00000   0.00000   0.00000
                                    0.00000   0.00000
                                              0.00000
  
+---------------- MEMORY AND SCRATCH DISK ESTIMATES PER PROCESS --------------+
|                                                     Memory          Disk    |
| Baseline code, static data and system overhead      391.0 MB         0.0 MB |
| BLAS internal memory storage                          0.0 MB         0.0 MB |
| Model and support data                              251.3 MB       342.8 MB |
| Electronic energy minimisation requirements         118.3 MB         0.0 MB |
| Force calculation requirements                        9.3 MB         0.0 MB |
| Stress calculation requirements                      10.3 MB         0.0 MB |
|                                               ----------------------------- |
| Approx. total storage required per process          760.7 MB       342.8 MB |
|                                                                             |
| Requirements will fluctuate during execution and may exceed these estimates |
+-----------------------------------------------------------------------------+
Calculating finite basis set correction with  3 cut-off energies.
Calculating total energy with cut-off of  890.000 eV.
------------------------------------------------------------------------ <-- SCF
SCF loop      Energy           Fermi           Energy gain       Timer   <-- SCF
                               energy          per atom          (sec)   <-- SCF
------------------------------------------------------------------------ <-- SCF
Initial  -6.26709038E+003  0.00000000E+000                        20.06  <-- SCF
      1  -7.61706005E+003  1.51036434E+001   1.68746210E+002      48.59  <-- SCF
      2  -7.76465777E+003  1.54662796E+001   1.84497144E+001      69.91  <-- SCF
      3  -7.76690984E+003  1.52653328E+001   2.81508213E-001      91.99  <-- SCF
      4  -7.79478913E+003  1.56536474E+001   3.48491169E+000     116.06  <-- SCF
      5  -7.79480282E+003  1.56529377E+001   1.71196923E-003     139.64  <-- SCF
      6  -7.79436050E+003  1.57673447E+001  -5.52902330E-002     163.70  <-- SCF
      7  -7.79231746E+003  1.59717403E+001  -2.55379774E-001     187.96  <-- SCF
      8  -7.79238351E+003  1.60083522E+001   8.25568243E-003     214.12  <-- SCF
      9  -7.79238439E+003  1.60137185E+001   1.09491654E-004     242.13  <-- SCF
     10  -7.79238487E+003  1.60184826E+001   6.00067503E-005     268.40  <-- SCF
     11  -7.79238489E+003  1.60192670E+001   2.85339270E-006     297.55  <-- SCF
     12  -7.79238489E+003  1.60194591E+001   1.29339530E-007     318.00  <-- SCF
     13  -7.79238489E+003  1.60195027E+001   3.21538600E-009     335.23  <-- SCF
     14  -7.79238489E+003  1.60194962E+001   4.19179606E-010     351.96  <-- SCF
------------------------------------------------------------------------ <-- SCF
 
Final energy, E             =  -7792.363755396     eV
Final free energy (E-TS)    =  -7792.384889860     eV
(energies not corrected for finite basis set)
 
NB est. 0K energy (E-0.5TS)      =  -7792.374322628     eV
 
Calculating total energy with cut-off of  895.000 eV.
------------------------------------------------------------------------ <-- SCF
SCF loop      Energy           Fermi           Energy gain       Timer   <-- SCF
                               energy          per atom          (sec)   <-- SCF
------------------------------------------------------------------------ <-- SCF
Initial  -7.79236376E+003  0.00000000E+000                       357.98  <-- SCF
      1  -7.79238491E+003  1.60194968E+001   2.64488047E-003     382.75  <-- SCF
      2  -7.79238491E+003  1.60194968E+001   2.62953996E-011     400.87  <-- SCF
      3  -7.79238491E+003  1.60194953E+001   9.20532336E-010     418.54  <-- SCF
      4  -7.79238491E+003  1.60194954E+001   4.83371317E-011     435.91  <-- SCF
------------------------------------------------------------------------ <-- SCF
 
Final energy, E             =  -7792.363779959     eV
Final free energy (E-TS)    =  -7792.384914449     eV
(energies not corrected for finite basis set)
 
NB est. 0K energy (E-0.5TS)      =  -7792.374347204     eV
 
Calculating total energy with cut-off of  900.000 eV.
------------------------------------------------------------------------ <-- SCF
SCF loop      Energy           Fermi           Energy gain       Timer   <-- SCF
                               energy          per atom          (sec)   <-- SCF
------------------------------------------------------------------------ <-- SCF
Initial  -7.79236378E+003  0.00000000E+000                       441.07  <-- SCF
      1  -7.79238494E+003  1.60194945E+001   2.64446380E-003     464.87  <-- SCF
      2  -7.79238494E+003  1.60194945E+001   9.08738075E-012     481.75  <-- SCF
      3  -7.79238494E+003  1.60194948E+001   7.55799391E-010     498.16  <-- SCF
      4  -7.79238494E+003  1.60194947E+001   4.56302523E-011     514.97  <-- SCF
------------------------------------------------------------------------ <-- SCF
 
Final energy, E             =  -7792.363801200     eV
Final free energy (E-TS)    =  -7792.384935677     eV
(energies not corrected for finite basis set)
 
NB est. 0K energy (E-0.5TS)      =  -7792.374368438     eV
 
 For future reference: finite basis dEtot/dlog(Ecut) =      -0.004138eV
 Total energy corrected for finite basis set =   -7792.384936 eV
 
 ************************** Forces **************************
 *                                                          *
 *               Cartesian components (eV/A)                *
 * -------------------------------------------------------- *
 *                         x            y            z      *
 *                                                          *
 * P               1      0.00003      0.00003     -0.00001 *
 * P               2     -0.00001      0.00003      0.00003 *
 * P               3      0.00003     -0.00000      0.00003 *
 * P               4     -0.00001     -0.00000     -0.00001 *
 * In              1      0.00000      0.00000      0.00000 *
 * In              2     -0.00003      0.00000     -0.00003 *
 * In              3      0.00000     -0.00003     -0.00003 *
 * In              4     -0.00003     -0.00003      0.00000 *
 *                                                          *
 ************************************************************
 
 ***************** Stress Tensor *****************
 *                                               *
 *          Cartesian components (GPa)           *
 * --------------------------------------------- *
 *             x             y             z     *
 *                                               *
 *  x   -385.459258      0.000195      0.000195  *
 *  y      0.000195   -385.459258      0.000195  *
 *  z      0.000195      0.000195   -385.459256  *
 *                                               *
 *  Pressure:  385.4593                          *
 *                                               *
 *************************************************
 
 Pseudo atomic calculation performed for P 3s2 3p3
 
 Converged in 23 iterations to a total energy of -208.0292 eV
 
 Pseudo atomic calculation performed for In 4d10 5s2 5p1
 
 Converged in 42 iterations to a total energy of -1747.4504 eV
Charge spilling parameter for spin component 1 = 0.68%
 
            Orbital Populations       
     Ion    Atom   Orbital             Charge
  -------------------------------------------
      P     1      S                    1.477
      P     1      Px                   1.404
      P     1      Py                   1.404
      P     1      Pz                   1.404
      P     2      S                    1.477
      P     2      Px                   1.404
      P     2      Py                   1.404
      P     2      Pz                   1.404
      P     3      S                    1.477
      P     3      Px                   1.404
      P     3      Py                   1.404
      P     3      Pz                   1.404
      P     4      S                    1.477
      P     4      Px                   1.404
      P     4      Py                   1.404
      P     4      Pz                   1.404
     In     1      Dzz                  1.989
     In     1      Dzy                  1.966
     In     1      Dzx                  1.966
     In     1      Dxx-yy               1.989
     In     1      Dxy                  1.966
     In     1      S                    1.535
     In     1      Px                   0.657
     In     1      Py                   0.657
     In     1      Pz                   0.657
     In     1      S                   -1.073
     In     2      Dzz                  1.989
     In     2      Dzy                  1.966
     In     2      Dzx                  1.966
     In     2      Dxx-yy               1.989
     In     2      Dxy                  1.966
     In     2      S                    1.535
     In     2      Px                   0.657
     In     2      Py                   0.657
     In     2      Pz                   0.657
     In     2      S                   -1.073
     In     3      Dzz                  1.989
     In     3      Dzy                  1.966
     In     3      Dzx                  1.966
     In     3      Dxx-yy               1.989
     In     3      Dxy                  1.966
     In     3      S                    1.535
     In     3      Px                   0.657
     In     3      Py                   0.657
     In     3      Pz                   0.657
     In     3      S                   -1.073
     In     4      Dzz                  1.989
     In     4      Dzy                  1.966
     In     4      Dzx                  1.966
     In     4      Dxx-yy               1.989
     In     4      Dxy                  1.966
     In     4      S                    1.535
     In     4      Px                   0.657
     In     4      Py                   0.657
     In     4      Pz                   0.657
     In     4      S                   -1.073
  -------------------------------------------
                           Total:      71.999
  -------------------------------------------
 
     Atomic Populations (Mulliken)
     -----------------------------
Species          Ion     s      p      d      f     Total  Charge (e)
=====================================================================
  P               1     1.48   4.21   0.00   0.00   5.69    -0.69
  P               2     1.48   4.21   0.00   0.00   5.69    -0.69
  P               3     1.48   4.21   0.00   0.00   5.69    -0.69
  P               4     1.48   4.21   0.00   0.00   5.69    -0.69
  In              1     0.46   1.97   9.88   0.00  12.31     0.69
  In              2     0.46   1.97   9.88   0.00  12.31     0.69
  In              3     0.46   1.97   9.88   0.00  12.31     0.69
  In              4     0.46   1.97   9.88   0.00  12.31     0.69
=====================================================================
 
                 Bond                   Population      Length (A)
======================================================================
               P 4 -- In 1                   0.58        1.90910
               P 4 -- In 4                   0.58        1.90910
               P 4 -- In 3                   0.60        1.90910
               P 4 -- In 2                   0.60        1.90910
               P 3 -- In 1                   0.59        1.90910
               P 2 -- In 1                   0.59        1.90910
               P 1 -- In 1                   0.60        1.90910
               P 3 -- In 4                   0.60        1.90910
               P 3 -- In 3                   0.59        1.90910
               P 2 -- In 4                   0.59        1.90910
               P 2 -- In 2                   0.59        1.90910
               P 1 -- In 3                   0.58        1.90910
               P 1 -- In 2                   0.59        1.90910
               P 3 -- In 2                   0.58        1.90910
               P 2 -- In 3                   0.59        1.90910
               P 1 -- In 4                   0.59        1.90910
======================================================================
 
 
 A BibTeX formatted list of references used in this run has been written to 
 ZB_EOS_0.7471.bib
 
Initialisation time =     16.68 s
Calculation time    =    547.38 s
Finalisation time   =      0.70 s
Total time          =    564.76 s
Peak Memory Use     = 1472872 kB
  
Overall parallel efficiency rating: Excellent (95%)                             
  
Data was distributed by:-
k-point (32-way); efficiency rating: Excellent (95%)                            
  
Parallel notes:
1) Calculation only took 564.1 s, so efficiency estimates may be inaccurate.    
