 +-------------------------------------------------+
 |                                                 |
 |      CCC   AA    SSS  TTTTT  EEEEE  PPPP        |
 |     C     A  A  S       T    E      P   P       |
 |     C     AAAA   SS     T    EEE    PPPP        |
 |     C     A  A     S    T    E      P           |
 |      CCC  A  A  SSS     T    EEEEE  P           |
 |                                                 |
 +-------------------------------------------------+
 |                                                 |
 | Welcome to Academic Release CASTEP version 24.1 |
 | Ab Initio Total Energy Program                  |
 |                                                 |
 | Authors:                                        |
 | M. Segall, M. Probert, C. Pickard, P. Hasnip,   |
 | S. Clark, K. Refson, J. R. Yates,               |
 | A. Bartok-Partay, M. Payne                      |
 |                                                 |
 | Contributors:                                   |
 | P. Lindan, P. Haynes, J. White, V. Milman,      |
 | N. Govind, M. Gibson, P. Tulip, V. Cocula,      |
 | B. Montanari, D. Quigley, M. Glover,            |
 | L. Bernasconi, A. Perlov, M. Plummer,           |
 | E. McNellis, J. Meyer, J. Gale, D. Jochym       |
 | J. Aarons, B. Walker, R. Gillen, D. Jones       |
 | T. Green, I. J. Bush, C. J. Armstrong,          |
 | E. J. Higgins, E. L. Brown, M. S. McFly,        |
 | J. Wilkins, B-C. Shih, P. J. P. Byrne,          |
 | R. J. Maurer, J. C. Womack, J. Dziedzic,        |
 | L. LeBlanc, T. K. Stenczel, J. Kermode,         |
 | S. Sturniolo, B. Shi, B. Durham, M. Evans,      |
 | M. J. Smith, A. Tamerus, Z. Hawkhead,           |
 | V. Ravindran, T. Hollins, S. A. Joyce,          |
 | R. T. Strong, A. M. Reilly, S. J. Donaldson     |
 |                                                 |
 | Copyright (c) 2000 - 2023                       |
 |                                                 |
 |     Distributed under license from Cambridge    |
 |     Enterprise for academic use only.           |
 |                                                 |
 | Please cite                                     |
 |                                                 |
 |     "First principles methods using CASTEP"     |
 |                                                 |
 |         Zeitschrift fuer Kristallographie       |
 |           220(5-6) pp. 567-570 (2005)           |
 |                                                 |
 | S. J. Clark, M. D. Segall, C. J. Pickard,       |
 | P. J. Hasnip, M. J. Probert, K. Refson,         |
 | M. C. Payne                                     |
 |                                                 |
 |       in all publications arising from          |
 |              your use of CASTEP                 |
 |                                                 |
 +-------------------------------------------------+
 |                                                 |
 |              http://www.castep.org              |
 |                                                 |
 +-------------------------------------------------+



 Compiled for  GNU 11.2.0 on 04-04-2024 18:39:17
 from code version 6355fd106 Castep241_branch Thu Mar 7 17:56:19 2024 +0000
 Compiler: GNU Fortran 11.2.0; Optimisation: FAST
 Comms   : MPI VERSION : CRAY MPICH version 8.1.23.14 (ANL base 3.4a2)
 MATHLIBS: default (LAPACK version 3.10.1)
 FFT Lib : fftw3 version commercial-fftw-3.3.10-sse2-avx-avx2-avx2_128
 Fundamental constants values: CODATA 2018

 Run started: Tue, 29 Jul 2025 23:17:11 +0100

 Atomic calculation performed for P: 1s2 2s2 2p6 3s2 3p3

 Converged in 47 iterations to an ae energy of -9309.074 eV

   ============================================================                
   | Pseudopotential Report - Date of generation 29-07-2025   |                
   ------------------------------------------------------------                
   | Element: P Ionic charge:  5.00 Level of theory: RSCAN    |                
   | Atomic Solver: Koelling-Harmon                           |                
   |                                                          |                
   |               Reference Electronic Structure             |                
   |         Orbital         Occupation         Energy        |                
   |            3s              2.000           -0.535        |                
   |            3p              3.000           -0.209        |                
   |                                                          |                
   |                 Pseudopotential Definition               |                
   |        Beta     l      e      Rc     scheme   norm       |                
   |          1      0   -0.535   1.807     qc      0         |                
   |          2      0    0.250   1.807     qc      0         |                
   |          3      1   -0.209   1.807     qc      0         |                
   |          4      1    0.250   1.807     qc      0         |                
   |          5      2    0.000   1.807     qc      0         |                
   |          6      2    0.250   1.807     qc      0         |                
   |         loc     3    0.000   1.807     pn      0         |                
   |                                                          |                
   | Augmentation charge Rinner = 1.263                       |                
   | Partial core correction Rc = 1.263                       |                
   ------------------------------------------------------------                
   | "3|1.8|4|4|5|30:31:32"                                   |                
   ------------------------------------------------------------                
   |      Author: Chris J. Pickard, Cambridge University      |                
   ============================================================                
 Warning: otfg_output_psp cannot write out meta-GGA pseudopotentials presently.

 Atomic calculation performed for In:
 1s2 2s2 2p6 3s2 3p6 3d10 4s2 4p6 4d10 5s2 5p1

 Converged in 84 iterations to an ae energy of -160093.328 eV

   ============================================================                
   | Pseudopotential Report - Date of generation 29-07-2025   |                
   ------------------------------------------------------------                
   | Element: In Ionic charge: 13.00 Level of theory: RSCAN   |                
   | Atomic Solver: Koelling-Harmon                           |                
   |                                                          |                
   |               Reference Electronic Structure             |                
   |         Orbital         Occupation         Energy        |                
   |            4d             10.000           -0.711        |                
   |            5s              2.000           -0.313        |                
   |            5p              1.000           -0.095        |                
   |                                                          |                
   |                 Pseudopotential Definition               |                
   |        Beta     l      e      Rc     scheme   norm       |                
   |          1      0   -0.313   2.501     qc      0         |                
   |          2      0    0.250   2.501     qc      0         |                
   |          3      1   -0.095   2.501     qc      0         |                
   |          4      1    0.250   2.501     qc      0         |                
   |          5      2   -0.711   2.207     qc      0         |                
   |          6      2    0.250   2.207     qc      0         |                
   |         loc     3    0.000   2.501     pn      0         |                
   |                                                          |                
   | Augmentation charge Rinner = 1.504                       |                
   | Partial core correction Rc = 1.504                       |                
   ------------------------------------------------------------                
   | "3|2.5|2.5|1.5|7|8|9|50:51:42U2.2U2.2"                   |                
   ------------------------------------------------------------                
   |      Author: Chris J. Pickard, Cambridge University      |                
   ============================================================                
 Warning: otfg_output_psp cannot write out meta-GGA pseudopotentials presently.

 Pseudo atomic calculation performed for P 3s2 3p3

 Converged in 23 iterations to a total energy of -208.0292 eV

 Pseudo atomic calculation performed for In 4d10 5s2 5p1

 Converged in 42 iterations to a total energy of -1747.4501 eV
 Calculation parallelised over 108 processes.
 Data is distributed by G-vector(3-way) and k-point(36-way)
 Each process may use up to 16 threads.

 ************************************ Title ************************************
 

 ***************************** General Parameters ******************************
  
 output verbosity                               : normal  (1)
 write checkpoint data to                       : P_Interstitial_Migration_Dumbbell_Dumbbell+_Singlepoints_6.check
 type of calculation                            : single point energy
 stress calculation                             : off
 density difference calculation                 : off
 electron localisation func (ELF) calculation   : off
 Hirshfeld analysis                             : on
 polarisation (Berry phase) analysis            : off
 molecular orbital projected DOS                : off
 deltaSCF calculation                           : off
 unlimited duration calculation
 timing information                             : on
 memory usage estimate                          : on
 write extra output files                       : on
 write final potential to formatted file        : off
 write final density to formatted file          : off
 write BibTeX reference list                    : on
 write OTFG pseudopotential files               : on
 write electrostatic potential file             : on
 write bands file                               : on
 checkpoint writing                             : off
  
 output         length unit                     : A
 output           mass unit                     : amu
 output           time unit                     : ps
 output         charge unit                     : e
 output           spin unit                     : hbar/2
 output         energy unit                     : eV
 output          force unit                     : eV/A
 output       velocity unit                     : A/ps
 output       pressure unit                     : GPa
 output     inv_length unit                     : 1/A
 output      frequency unit                     : cm-1
 output force constant unit                     : eV/A**2
 output         volume unit                     : A**3
 output   IR intensity unit                     : (D/A)**2/amu
 output         dipole unit                     : D
 output         efield unit                     : eV/A/e
 output        entropy unit                     : J/mol/K
 output    efield chi2 unit                     : pm/V
  
 wavefunctions paging                           : none
 random number generator seed                   :  231711921
 data distribution                              : optimal for this architecture
 optimization strategy                          : balance speed and memory

 *********************** Exchange-Correlation Parameters ***********************
  
 using functional                               : RSCAN
 relativistic treatment                         : Koelling-Harmon
 DFT+D: Semi-empirical dispersion correction    : off

 ************************* Pseudopotential Parameters **************************
  
 pseudopotential representation                 : reciprocal space
 <beta|phi> representation                      : reciprocal space
 spin-orbit coupling                            : off

 **************************** Basis Set Parameters *****************************
  
 plane wave basis set cut-off                   :   900.0000   eV
 size of standard grid                          :     2.0000
 size of   fine   gmax                          :    30.7390   1/A
 finite basis set correction                    : none

 **************************** Electronic Parameters ****************************
  
 number of  electrons                           :  581.0    
 net charge of system                           :  0.000    
 net spin   of system                           :  1.000    
 number of  up  spins                           :  291.0    
 number of down spins                           :  290.0    
 treating system as spin-polarized
 number of bands                                :        349

 ********************* Electronic Minimization Parameters **********************
  
 Method: Treating system as metallic with density mixing treatment of electrons,
         and number of  SD  steps               :          1
         and number of  CG  steps               :          4
  
 total energy / atom convergence tol.           : 0.1000E-07   eV
 eigen-energy convergence tolerance             : 0.2234E-08   eV
 max force / atom convergence tol.              : ignored
 convergence tolerance window                   :          3   cycles
 max. number of SCF cycles                      :        100
 number of fixed-spin iterations                :         10
 smearing scheme                                : Gaussian
 smearing width                                 : 0.2000       eV
 Fermi energy convergence tolerance             : 0.2721E-13   eV
 periodic dipole correction                     : NONE

 ************************** Density Mixing Parameters **************************
  
 density-mixing scheme                          : Pulay
 max. length of mixing history                  :         20
 charge density mixing amplitude                : 0.5000    
   spin density mixing amplitude                :  2.000    
 cut-off energy for mixing                      :  900.0       eV

 *********************** Population Analysis Parameters ************************
  
 Population analysis with cutoff                :  3.000       A
 Population analysis output                     : summary and pdos components

 *******************************************************************************
  

                           -------------------------------
                                      Unit Cell
                           -------------------------------
        Real Lattice(A)                      Reciprocal Lattice(1/A)
    11.8016820    -0.0000080    -0.0000080        0.532397442   0.000000361   0.000000361
    -0.0000080    11.8016820    -0.0000080        0.000000361   0.532397442   0.000000361
    -0.0000080    -0.0000080    11.8016820        0.000000361   0.000000361   0.532397442

                       Lattice parameters(A)       Cell Angles
                    a =     11.801682          alpha =   90.000078
                    b =     11.801682          beta  =   90.000078
                    c =     11.801682          gamma =   90.000078

                       Current cell volume =          1643.734705       A**3
                                   density =             2.857097   AMU/A**3
                                           =             4.744322     g/cm^3

                           -------------------------------
                                     Cell Contents
                           -------------------------------
                         Total number of ions in cell =   65
                      Total number of species in cell =    2
                        Max number of any one species =   33

            xxxxxxxxxxxxxxxxxxxxxxxxxxxxxxxxxxxxxxxxxxxxxxxxxxxxxxxxxxxx
            x  Element    Atom        Fractional coordinates of atoms  x
            x            Number           u          v          w      x
            x----------------------------------------------------------x
            x  P            1         0.122153   0.124355   0.374203   x 
            x  P            2         0.430865   0.085351   0.195100   x 
            x  P            3         0.121642   0.377289   0.124212   x 
            x  P            4         0.370396   0.380418   0.376616   x 
            x  P            5         0.116409   0.127286   0.864393   x 
            x  P            6         0.373253   0.124188   0.622497   x 
            x  P            7         0.122429   0.374161   0.622491   x 
            x  P            8         0.376447   0.379002   0.869709   x 
            x  P            9         0.121564   0.624449   0.372984   x 
            x  P           10         0.373207   0.627467   0.122665   x 
            x  P           11         0.119980   0.870512   0.124508   x 
            x  P           12         0.373610   0.865796   0.382606   x 
            x  P           13         0.122443   0.624233   0.873356   x 
            x  P           14         0.373089   0.619522   0.623679   x 
            x  P           15         0.121729   0.872980   0.623029   x 
            x  P           16         0.372200   0.866523   0.863199   x 
            x  P           17         0.630648   0.128407   0.381046   x 
            x  P           18         0.873294   0.123906   0.122731   x 
            x  P           19         0.625845   0.378507   0.121127   x 
            x  P           20         0.874430   0.374006   0.373346   x 
            x  P           21         0.622669   0.124405   0.872904   x 
            x  P           22         0.872677   0.119838   0.623732   x 
            x  P           23         0.624606   0.374553   0.623340   x 
            x  P           24         0.872510   0.373952   0.872467   x 
            x  P           25         0.623694   0.624726   0.372886   x 
            x  P           26         0.872812   0.621877   0.122793   x 
            x  P           27         0.624989   0.871925   0.121386   x 
            x  P           28         0.871089   0.874443   0.371164   x 
            x  P           29         0.624743   0.625025   0.872476   x 
            x  P           30         0.873225   0.623958   0.622827   x 
            x  P           31         0.623938   0.873965   0.622264   x 
            x  P           32         0.874823   0.874329   0.874807   x 
            x  P           33         0.314047   0.083663   0.056976   x 
            x  In           1         0.001362   0.001430  -0.002516   x 
            x  In           2         0.241186  -0.014591   0.261944   x 
            x  In           3        -0.002139   0.248368   0.247390   x 
            x  In           4         0.236989   0.264210  -0.016521   x 
            x  In           5        -0.002910  -0.002970   0.497117   x 
            x  In           6         0.246141  -0.000013   0.746899   x 
            x  In           7        -0.007130   0.249880   0.742694   x 
            x  In           8         0.248209   0.248949   0.498374   x 
            x  In           9        -0.002885   0.499545  -0.002969   x 
            x  In          10         0.248245   0.503176   0.246865   x 
            x  In          11        -0.005463   0.747095   0.247802   x 
            x  In          12         0.247531   0.751156  -0.003281   x 
            x  In          13        -0.001486   0.499176   0.497745   x 
            x  In          14         0.246094   0.499521   0.747972   x 
            x  In          15        -0.002800   0.749066   0.748473   x 
            x  In          16         0.246130   0.743317   0.503466   x 
            x  In          17         0.501674  -0.012624  -0.013836   x 
            x  In          18         0.745114   0.001803   0.248206   x 
            x  In          19         0.510464   0.266780   0.262432   x 
            x  In          20         0.748769   0.248442  -0.001939   x 
            x  In          21         0.499895   0.000777   0.497094   x 
            x  In          22         0.747732  -0.003028   0.749995   x 
            x  In          23         0.498732   0.248908   0.746510   x 
            x  In          24         0.754250   0.250104   0.503338   x 
            x  In          25         0.498259   0.503367  -0.001626   x 
            x  In          26         0.749523   0.500092   0.249680   x 
            x  In          27         0.498633   0.751147   0.248827   x 
            x  In          28         0.750689   0.747971  -0.001474   x 
            x  In          29         0.500373   0.500425   0.498995   x 
            x  In          30         0.748334   0.499453   0.748427   x 
            x  In          31         0.500165   0.744582   0.742566   x 
            x  In          32         0.748882   0.749504   0.497842   x 
            xxxxxxxxxxxxxxxxxxxxxxxxxxxxxxxxxxxxxxxxxxxxxxxxxxxxxxxxxxxx


                         No user defined ionic velocities

                           -------------------------------
                                   Details of Species
                           -------------------------------

                               Mass of species in AMU
                                    P   30.9737600
                                    In  114.8180000

                          Electric Quadrupole Moment (Barn)
                                    P    1.0000000 No Isotope Defined
                                    In    0.7700000 Isotope115

                          Files used for pseudopotentials:
                                    P 3|1.8|4|4|5|30:31:32
                                    In 3|2.5|2.5|1.5|7|8|9|50:51:42U2.2U2.2

                           -------------------------------
                              k-Points For BZ Sampling
                           -------------------------------
                       MP grid size for SCF calculation is  4  4  4
                            with an offset of   0.125  0.125  0.125
                       Number of kpoints used =            36

                           -------------------------------
                               Symmetry and Constraints
                           -------------------------------

                      Maximum deviation from symmetry =  0.00000         ANG

                      Number of symmetry operations   =           1
                      Number of ionic constraints     =           3
                      Point group of crystal =     1: C1, 1, 1
                      Space group of crystal =     1: P1, P 1

             Set iprint > 1 for details on symmetry rotations/translations

                         Centre of mass is constrained
             Set iprint > 1 for details of linear ionic constraints

                         Number of cell constraints= 0
                         Cell constraints are:  1 2 3 4 5 6

                         External pressure/stress (GPa)
                          0.00000   0.00000   0.00000
                                    0.00000   0.00000
                                              0.00000
 
+---------------- MEMORY AND SCRATCH DISK ESTIMATES PER PROCESS --------------+
|                                                     Memory          Disk    |
| Baseline code, static data and system overhead      368.0 MB         0.0 MB |
| BLAS internal memory storage                          0.0 MB         0.0 MB |
| Model and support data                             4327.0 MB         0.0 MB |
| Electronic energy minimisation requirements        1337.1 MB         0.0 MB |
| Force calculation requirements                      127.4 MB         0.0 MB |
|                                               ----------------------------- |
| Approx. total storage required per process         6032.2 MB         0.0 MB |
|                                                                             |
| Requirements will fluctuate during execution and may exceed these estimates |
+-----------------------------------------------------------------------------+
Calculating approximate eigenstates for fixed initial Hamiltonian
Cut-off for approx. calculation is   89.988 eV
Improving approx. states at cut-off of  450.000 eV
Resetting cut-off to  900.000 eV
Calculating total energy with cut-off of  900.000 eV.
------------------------------------------------------------------------ <-- SCF
SCF loop      Energy           Fermi           Energy gain       Timer   <-- SCF
                               energy          per atom          (sec)   <-- SCF
------------------------------------------------------------------------ <-- SCF
Initial  -6.32551099E+004  0.00000000E+000                       437.92  <-- SCF
      1  -6.30179683E+004  2.89559116E+000  -3.64833149E+000     890.57  <-- SCF
      2  -6.30182476E+004  2.89437046E+000   4.29755083E-003    1212.36  <-- SCF
      3  -6.30841817E+004  3.18217523E+000   1.01437048E+000    1562.12  <-- SCF
      4  -6.30957678E+004  3.26668392E+000   1.78247591E-001    2058.64  <-- SCF
      5  -6.31016146E+004  3.43675376E+000   8.99502403E-002    2402.64  <-- SCF
      6  -6.30902887E+004  3.62355357E+000  -1.74243638E-001    2746.51  <-- SCF
      7  -6.30889521E+004  3.67168154E+000  -2.05641857E-002    3095.50  <-- SCF
      8  -6.30891078E+004  3.71190474E+000   2.39593552E-003    3466.95  <-- SCF
      9  -6.30899307E+004  3.73731753E+000   1.26602632E-002    3828.32  <-- SCF
     10  -6.30902029E+004  3.70670616E+000   4.18754530E-003    4174.33  <-- SCF
     11  -6.30902089E+004  3.69918635E+000   9.16866388E-005    4538.74  <-- SCF
     12  -6.30902113E+004  3.69297648E+000   3.72526155E-005    4905.26  <-- SCF
     13  -6.30902124E+004  3.69245909E+000   1.69619201E-005    5272.94  <-- SCF
     14  -6.30902127E+004  3.69154702E+000   3.80880466E-006    5633.09  <-- SCF
     15  -6.30902127E+004  3.69081842E+000   9.73712420E-007    5981.99  <-- SCF
     16  -6.30902127E+004  3.69077218E+000   2.72316588E-007    6290.36  <-- SCF
     17  -6.30902127E+004  3.69062843E+000   7.70753626E-008    6571.32  <-- SCF
     18  -6.30902127E+004  3.69068082E+000   2.48350414E-008    6828.68  <-- SCF
     19  -6.30902127E+004  3.69072937E+000   8.61118422E-009    7086.56  <-- SCF
     20  -6.30902127E+004  3.69073487E+000   2.62449507E-009    7336.56  <-- SCF
     21  -6.30902127E+004  3.69073825E+000   7.22088337E-010    7576.28  <-- SCF
------------------------------------------------------------------------ <-- SCF
 
Integrated Spin Density     =    0.991859     hbar/2
Integrated |Spin Density|   =     1.19330     hbar/2
 
Final energy, E             =  -63090.20691658     eV
Final free energy (E-TS)    =  -63090.21274076     eV
(energies not corrected for finite basis set)
 
NB est. 0K energy (E-0.5TS)      =  -63090.20982867     eV
 

 ************************** Forces **************************
 *                                                          *
 *               Cartesian components (eV/A)                *
 * -------------------------------------------------------- *
 *                         x            y            z      *
 *                                                          *
 * P               1      0.00738      0.03448     -0.02924 *
 * P               2      0.05629      0.00703     -0.08434 *
 * P               3     -0.00174      0.01187     -0.01420 *
 * P               4      0.02450     -0.00686     -0.01037 *
 * P               5      0.00028     -0.00977      0.02971 *
 * P               6     -0.00574     -0.02524      0.00172 *
 * P               7     -0.02656     -0.01863     -0.01284 *
 * P               8     -0.02217      0.01365      0.02086 *
 * P               9     -0.00283      0.01767     -0.00224 *
 * P              10     -0.00490     -0.00270     -0.00393 *
 * P              11     -0.01761      0.02934     -0.00522 *
 * P              12     -0.03437      0.00072      0.00996 *
 * P              13     -0.02022      0.01767     -0.01662 *
 * P              14     -0.00426      0.02754     -0.00508 *
 * P              15      0.01792      0.00487     -0.01555 *
 * P              16      0.01923      0.00371      0.00181 *
 * P              17     -0.00746     -0.01506     -0.03313 *
 * P              18     -0.00314     -0.03005     -0.00377 *
 * P              19     -0.01612     -0.00855      0.01883 *
 * P              20      0.00868     -0.01829      0.01588 *
 * P              21     -0.00071      0.03323      0.02054 *
 * P              22      0.00422      0.04139     -0.00670 *
 * P              23      0.01569     -0.01741      0.00911 *
 * P              24     -0.01601     -0.01742     -0.01934 *
 * P              25      0.01401      0.01836      0.00810 *
 * P              26     -0.00683      0.02200     -0.00005 *
 * P              27      0.01958      0.02866      0.02270 *
 * P              28      0.02051     -0.00356     -0.01179 *
 * P              29     -0.00114      0.01947      0.00208 *
 * P              30     -0.00455     -0.00797     -0.00227 *
 * P              31     -0.02142     -0.00126      0.01332 *
 * P              32     -0.02212     -0.00313      0.01306 *
 * P              33     -0.00797      0.03041      0.06473 *
 * In              1     -0.03483      0.00460      0.00988 *
 * In              2      0.00831     -0.07830     -0.03098 *
 * In              3      0.00534      0.03918     -0.03387 *
 * In              4      0.02325      0.03606     -0.01238 *
 * In              5     -0.03424     -0.02201      0.03259 *
 * In              6      0.03209      0.00784     -0.00440 *
 * In              7      0.01805     -0.00223      0.01986 *
 * In              8      0.05140      0.04511      0.01174 *
 * In              9     -0.00944     -0.01162      0.03792 *
 * In             10     -0.01940     -0.00775      0.03983 *
 * In             11      0.01336     -0.01980      0.00579 *
 * In             12      0.02857     -0.05049      0.01801 *
 * In             13     -0.00059      0.02633     -0.00602 *
 * In             14      0.06737     -0.00819     -0.01044 *
 * In             15     -0.01544     -0.00649     -0.00570 *
 * In             16      0.04406     -0.00500     -0.02092 *
 * In             17      0.02283     -0.09263     -0.01998 *
 * In             18      0.02365      0.01057     -0.00413 *
 * In             19     -0.01947      0.02809      0.01300 *
 * In             20     -0.01824      0.03784      0.04365 *
 * In             21     -0.01376     -0.00271      0.02828 *
 * In             22      0.03682     -0.01752     -0.03194 *
 * In             23     -0.05653      0.03436      0.00870 *
 * In             24     -0.02139     -0.00324     -0.01345 *
 * In             25      0.02561     -0.01346     -0.02941 *
 * In             26      0.00406     -0.01750     -0.04442 *
 * In             27     -0.02902     -0.05334     -0.00770 *
 * In             28     -0.00236     -0.02854     -0.01563 *
 * In             29     -0.06592     -0.00745      0.00864 *
 * In             30     -0.00031      0.02535      0.00966 *
 * In             31     -0.03941     -0.01591      0.01941 *
 * In             32      0.01517     -0.00732      0.00869 *
 *                                                          *
 ************************************************************

 Pseudo atomic calculation performed for P 3s2 3p3

 Converged in 23 iterations to a total energy of -208.0292 eV

 Pseudo atomic calculation performed for In 4d10 5s2 5p1

 Converged in 42 iterations to a total energy of -1747.4501 eV
Charge spilling parameter for spin component 1 = 0.18%
Charge spilling parameter for spin component 2 = 0.18%

                   Orbital Populations                  
  ---------------------------------------------------------------
     Ion    Atom   Orbital              Up        Down      Spin
  ---------------------------------------------------------------
      P     1      S                    0.868     0.867     0.000
      P     1      Px                   0.659     0.656     0.003
      P     1      Py                   0.653     0.652     0.000
      P     1      Pz                   0.659     0.660    -0.000
      P     2      S                    0.898     0.888     0.010
      P     2      Px                   0.685     0.448     0.238
      P     2      Py                   0.721     0.705     0.015
      P     2      Pz                   0.632     0.470     0.162
      P     3      S                    0.868     0.867     0.001
      P     3      Px                   0.660     0.659     0.002
      P     3      Py                   0.662     0.658     0.004
      P     3      Pz                   0.651     0.650     0.002
      P     4      S                    0.867     0.866     0.002
      P     4      Px                   0.650     0.648     0.003
      P     4      Py                   0.664     0.659     0.005
      P     4      Pz                   0.662     0.659     0.003
      P     5      S                    0.866     0.866     0.000
      P     5      Px                   0.660     0.660    -0.000
      P     5      Py                   0.648     0.648    -0.000
      P     5      Pz                   0.659     0.656     0.003
      P     6      S                    0.867     0.867    -0.000
      P     6      Px                   0.656     0.656    -0.000
      P     6      Py                   0.658     0.658    -0.000
      P     6      Pz                   0.656     0.656    -0.000
      P     7      S                    0.867     0.866     0.000
      P     7      Px                   0.656     0.656     0.000
      P     7      Py                   0.657     0.657     0.000
      P     7      Pz                   0.658     0.658     0.000
      P     8      S                    0.867     0.866     0.001
      P     8      Px                   0.651     0.648     0.002
      P     8      Py                   0.663     0.659     0.004
      P     8      Pz                   0.662     0.659     0.003
      P     9      S                    0.866     0.866    -0.000
      P     9      Px                   0.657     0.657     0.000
      P     9      Py                   0.659     0.659    -0.000
      P     9      Pz                   0.655     0.655     0.000
      P    10      S                    0.867     0.867    -0.000
      P    10      Px                   0.657     0.657    -0.000
      P    10      Py                   0.657     0.657    -0.000
      P    10      Pz                   0.658     0.658    -0.000
      P    11      S                    0.873     0.868     0.005
      P    11      Px                   0.653     0.648     0.005
      P    11      Py                   0.657     0.647     0.010
      P    11      Pz                   0.648     0.645     0.003
      P    12      S                    0.872     0.867     0.005
      P    12      Px                   0.651     0.643     0.008
      P    12      Py                   0.664     0.642     0.021
      P    12      Pz                   0.656     0.647     0.009
      P    13      S                    0.867     0.867    -0.000
      P    13      Px                   0.658     0.658    -0.000
      P    13      Py                   0.655     0.656    -0.000
      P    13      Pz                   0.657     0.657    -0.000
      P    14      S                    0.864     0.863     0.001
      P    14      Px                   0.653     0.651     0.002
      P    14      Py                   0.664     0.660     0.003
      P    14      Pz                   0.664     0.661     0.003
      P    15      S                    0.867     0.867    -0.000
      P    15      Px                   0.658     0.658    -0.000
      P    15      Py                   0.655     0.655    -0.000
      P    15      Pz                   0.657     0.657    -0.000
      P    16      S                    0.872     0.867     0.005
      P    16      Px                   0.653     0.645     0.009
      P    16      Py                   0.664     0.643     0.022
      P    16      Pz                   0.657     0.646     0.011
      P    17      S                    0.866     0.866     0.000
      P    17      Px                   0.659     0.659    -0.000
      P    17      Py                   0.647     0.647    -0.000
      P    17      Pz                   0.659     0.656     0.004
      P    18      S                    0.867     0.867    -0.000
      P    18      Px                   0.655     0.655    -0.000
      P    18      Py                   0.659     0.659    -0.000
      P    18      Pz                   0.657     0.658    -0.000
      P    19      S                    0.868     0.867     0.001
      P    19      Px                   0.660     0.659     0.002
      P    19      Py                   0.663     0.659     0.004
      P    19      Pz                   0.650     0.649     0.002
      P    20      S                    0.867     0.867     0.000
      P    20      Px                   0.658     0.658    -0.000
      P    20      Py                   0.657     0.657     0.000
      P    20      Pz                   0.655     0.655    -0.000
      P    21      S                    0.868     0.868     0.000
      P    21      Px                   0.658     0.656     0.002
      P    21      Py                   0.653     0.653     0.000
      P    21      Pz                   0.659     0.659    -0.000
      P    22      S                    0.864     0.864    -0.000
      P    22      Px                   0.662     0.662    -0.000
      P    22      Py                   0.653     0.653    -0.000
      P    22      Pz                   0.661     0.661     0.000
      P    23      S                    0.867     0.866     0.000
      P    23      Px                   0.656     0.656     0.000
      P    23      Py                   0.657     0.657     0.000
      P    23      Pz                   0.658     0.658     0.000
      P    24      S                    0.867     0.867     0.000
      P    24      Px                   0.658     0.658    -0.000
      P    24      Py                   0.657     0.657     0.000
      P    24      Pz                   0.655     0.655    -0.000
      P    25      S                    0.867     0.867    -0.000
      P    25      Px                   0.657     0.658    -0.000
      P    25      Py                   0.656     0.656    -0.000
      P    25      Pz                   0.657     0.657    -0.000
      P    26      S                    0.865     0.864     0.000
      P    26      Px                   0.661     0.659     0.002
      P    26      Py                   0.660     0.658     0.002
      P    26      Pz                   0.656     0.655     0.001
      P    27      S                    0.873     0.868     0.005
      P    27      Px                   0.652     0.648     0.005
      P    27      Py                   0.656     0.647     0.009
      P    27      Pz                   0.650     0.647     0.003
      P    28      S                    0.867     0.867    -0.000
      P    28      Px                   0.656     0.656    -0.000
      P    28      Py                   0.656     0.656     0.000
      P    28      Pz                   0.658     0.657     0.000
      P    29      S                    0.866     0.866    -0.000
      P    29      Px                   0.657     0.657     0.000
      P    29      Py                   0.659     0.659    -0.000
      P    29      Pz                   0.655     0.655     0.000
      P    30      S                    0.867     0.867    -0.000
      P    30      Px                   0.657     0.657    -0.000
      P    30      Py                   0.657     0.657     0.000
      P    30      Pz                   0.656     0.656    -0.000
      P    31      S                    0.867     0.867    -0.000
      P    31      Px                   0.658     0.659    -0.000
      P    31      Py                   0.655     0.655    -0.000
      P    31      Pz                   0.656     0.656    -0.000
      P    32      S                    0.867     0.867    -0.000
      P    32      Px                   0.656     0.656    -0.000
      P    32      Py                   0.656     0.656     0.000
      P    32      Pz                   0.658     0.658     0.000
      P    33      S                    0.895     0.886     0.009
      P    33      Px                   0.681     0.463     0.218
      P    33      Py                   0.718     0.706     0.011
      P    33      Pz                   0.625     0.481     0.144
     In     1      Dzz                  1.000     1.000     0.000
     In     1      Dzy                  0.998     0.998     0.000
     In     1      Dzx                  0.999     0.999    -0.000
     In     1      Dxx-yy               1.000     1.000     0.000
     In     1      Dxy                  0.999     0.999     0.000
     In     1      S                    0.705     0.706    -0.001
     In     1      Px                   0.233     0.234    -0.000
     In     1      Py                   0.239     0.240    -0.000
     In     1      Pz                   0.241     0.241     0.001
     In     1      S                   -0.257    -0.254    -0.003
     In     2      Dzz                  0.999     0.999     0.000
     In     2      Dzy                  0.999     0.999     0.000
     In     2      Dzx                  0.999     0.999     0.000
     In     2      Dxx-yy               1.000     0.999     0.000
     In     2      Dxy                  0.999     0.998     0.001
     In     2      S                    0.690     0.700    -0.011
     In     2      Px                   0.239     0.238     0.001
     In     2      Py                   0.236     0.240    -0.004
     In     2      Pz                   0.226     0.236    -0.010
     In     2      S                   -0.265    -0.261    -0.004
     In     3      Dzz                  1.000     1.000     0.000
     In     3      Dzy                  0.998     0.998     0.000
     In     3      Dzx                  0.999     0.999    -0.000
     In     3      Dxx-yy               1.000     1.000    -0.000
     In     3      Dxy                  0.998     0.998     0.000
     In     3      S                    0.712     0.712    -0.000
     In     3      Px                   0.240     0.240     0.000
     In     3      Py                   0.240     0.240     0.000
     In     3      Pz                   0.240     0.240     0.001
     In     3      S                   -0.266    -0.270     0.005
     In     4      Dzz                  0.999     0.999     0.000
     In     4      Dzy                  0.998     0.998     0.000
     In     4      Dzx                  0.998     0.998     0.000
     In     4      Dxx-yy               0.999     0.999     0.000
     In     4      Dxy                  0.998     0.998     0.000
     In     4      S                    0.713     0.722    -0.008
     In     4      Px                   0.247     0.248    -0.001
     In     4      Py                   0.245     0.252    -0.006
     In     4      Pz                   0.244     0.243     0.001
     In     4      S                   -0.266    -0.268     0.001
     In     5      Dzz                  1.000     1.000    -0.000
     In     5      Dzy                  0.998     0.998     0.000
     In     5      Dzx                  0.998     0.998    -0.000
     In     5      Dxx-yy               1.000     1.000    -0.000
     In     5      Dxy                  0.998     0.998    -0.000
     In     5      S                    0.708     0.707     0.001
     In     5      Px                   0.240     0.240    -0.000
     In     5      Py                   0.241     0.241     0.000
     In     5      Pz                   0.241     0.240     0.000
     In     5      S                   -0.266    -0.267     0.001
     In     6      Dzz                  1.000     1.000    -0.000
     In     6      Dzy                  0.999     0.999     0.000
     In     6      Dzx                  0.999     0.999     0.000
     In     6      Dxx-yy               1.000     1.000     0.000
     In     6      Dxy                  0.998     0.998     0.000
     In     6      S                    0.705     0.706    -0.001
     In     6      Px                   0.241     0.241     0.001
     In     6      Py                   0.241     0.242    -0.001
     In     6      Pz                   0.232     0.232    -0.000
     In     6      S                   -0.254    -0.257     0.003
     In     7      Dzz                  0.999     0.999     0.000
     In     7      Dzy                  0.998     0.998    -0.000
     In     7      Dzx                  0.998     0.998    -0.000
     In     7      Dxx-yy               1.000     1.000    -0.000
     In     7      Dxy                  0.998     0.998     0.000
     In     7      S                    0.710     0.710    -0.000
     In     7      Px                   0.241     0.241     0.000
     In     7      Py                   0.250     0.250    -0.001
     In     7      Pz                   0.240     0.241    -0.000
     In     7      S                   -0.266    -0.267     0.000
     In     8      Dzz                  1.000     1.000    -0.000
     In     8      Dzy                  0.998     0.998    -0.000
     In     8      Dzx                  0.999     0.999    -0.000
     In     8      Dxx-yy               1.000     1.000    -0.000
     In     8      Dxy                  0.998     0.998     0.000
     In     8      S                    0.711     0.711    -0.000
     In     8      Px                   0.240     0.240     0.000
     In     8      Py                   0.240     0.240    -0.000
     In     8      Pz                   0.238     0.238    -0.000
     In     8      S                   -0.270    -0.270     0.001
     In     9      Dzz                  1.000     1.000    -0.000
     In     9      Dzy                  0.998     0.998    -0.000
     In     9      Dzx                  0.998     0.998     0.000
     In     9      Dxx-yy               1.000     1.000    -0.000
     In     9      Dxy                  0.998     0.998    -0.000
     In     9      S                    0.708     0.707     0.000
     In     9      Px                   0.240     0.240     0.000
     In     9      Py                   0.239     0.239    -0.000
     In     9      Pz                   0.245     0.244     0.001
     In     9      S                   -0.265    -0.264    -0.001
     In    10      Dzz                  1.000     1.000     0.000
     In    10      Dzy                  0.998     0.998    -0.000
     In    10      Dzx                  0.998     0.998    -0.000
     In    10      Dxx-yy               1.000     1.000     0.000
     In    10      Dxy                  0.998     0.998    -0.000
     In    10      S                    0.712     0.713    -0.000
     In    10      Px                   0.241     0.240     0.001
     In    10      Py                   0.239     0.239    -0.000
     In    10      Pz                   0.242     0.241     0.001
     In    10      S                   -0.270    -0.270     0.001
     In    11      Dzz                  1.000     1.000    -0.000
     In    11      Dzy                  0.998     0.998    -0.000
     In    11      Dzx                  0.998     0.998     0.000
     In    11      Dxx-yy               1.000     1.000    -0.000
     In    11      Dxy                  0.998     0.998    -0.000
     In    11      S                    0.717     0.714     0.002
     In    11      Px                   0.243     0.241     0.002
     In    11      Py                   0.242     0.241     0.000
     In    11      Pz                   0.250     0.246     0.004
     In    11      S                   -0.266    -0.268     0.001
     In    12      Dzz                  1.000     1.000     0.000
     In    12      Dzy                  0.999     0.999     0.000
     In    12      Dzx                  0.998     0.998    -0.000
     In    12      Dxx-yy               1.000     1.000     0.000
     In    12      Dxy                  0.999     0.999     0.000
     In    12      S                    0.705     0.706    -0.001
     In    12      Px                   0.241     0.240     0.001
     In    12      Py                   0.233     0.233    -0.001
     In    12      Pz                   0.243     0.242     0.001
     In    12      S                   -0.254    -0.257     0.004
     In    13      Dzz                  1.000     1.000     0.000
     In    13      Dzy                  0.998     0.998     0.000
     In    13      Dzx                  0.998     0.998    -0.000
     In    13      Dxx-yy               1.000     1.000    -0.000
     In    13      Dxy                  0.998     0.998     0.000
     In    13      S                    0.707     0.707     0.000
     In    13      Px                   0.241     0.241     0.000
     In    13      Py                   0.241     0.241    -0.000
     In    13      Pz                   0.243     0.243    -0.000
     In    13      S                   -0.265    -0.266     0.001
     In    14      Dzz                  1.000     1.000     0.000
     In    14      Dzy                  0.998     0.998    -0.000
     In    14      Dzx                  0.998     0.998     0.000
     In    14      Dxx-yy               1.000     1.000     0.000
     In    14      Dxy                  0.998     0.998    -0.000
     In    14      S                    0.708     0.708     0.001
     In    14      Px                   0.247     0.246     0.001
     In    14      Py                   0.238     0.238    -0.000
     In    14      Pz                   0.240     0.239     0.000
     In    14      S                   -0.265    -0.265    -0.000
     In    15      Dzz                  1.000     1.000     0.000
     In    15      Dzy                  0.998     0.998    -0.000
     In    15      Dzx                  0.998     0.998     0.000
     In    15      Dxx-yy               1.000     1.000     0.000
     In    15      Dxy                  0.998     0.998     0.000
     In    15      S                    0.706     0.706    -0.000
     In    15      Px                   0.240     0.240    -0.000
     In    15      Py                   0.242     0.242     0.000
     In    15      Pz                   0.242     0.242    -0.000
     In    15      S                   -0.265    -0.265     0.000
     In    16      Dzz                  0.999     0.999     0.000
     In    16      Dzy                  0.998     0.998    -0.000
     In    16      Dzx                  0.998     0.998     0.000
     In    16      Dxx-yy               1.000     0.999     0.000
     In    16      Dxy                  0.998     0.998     0.000
     In    16      S                    0.715     0.715     0.000
     In    16      Px                   0.252     0.249     0.003
     In    16      Py                   0.240     0.241    -0.001
     In    16      Pz                   0.241     0.240     0.001
     In    16      S                   -0.269    -0.270     0.001
     In    17      Dzz                  0.999     0.999     0.000
     In    17      Dzy                  0.999     0.999     0.000
     In    17      Dzx                  0.999     0.999     0.000
     In    17      Dxx-yy               1.000     0.999     0.000
     In    17      Dxy                  0.999     0.998     0.001
     In    17      S                    0.690     0.700    -0.010
     In    17      Px                   0.243     0.239     0.004
     In    17      Py                   0.236     0.239    -0.003
     In    17      Pz                   0.225     0.237    -0.012
     In    17      S                   -0.266    -0.262    -0.004
     In    18      Dzz                  1.000     1.000     0.000
     In    18      Dzy                  0.998     0.998     0.000
     In    18      Dzx                  0.999     0.999    -0.000
     In    18      Dxx-yy               1.000     1.000     0.000
     In    18      Dxy                  0.999     0.999     0.000
     In    18      S                    0.705     0.706    -0.001
     In    18      Px                   0.233     0.234    -0.000
     In    18      Py                   0.239     0.240    -0.000
     In    18      Pz                   0.241     0.240     0.001
     In    18      S                   -0.257    -0.254    -0.003
     In    19      Dzz                  0.999     0.999     0.000
     In    19      Dzy                  0.998     0.998     0.000
     In    19      Dzx                  0.998     0.998    -0.000
     In    19      Dxx-yy               0.999     0.999     0.000
     In    19      Dxy                  0.998     0.998     0.000
     In    19      S                    0.712     0.721    -0.009
     In    19      Px                   0.247     0.249    -0.002
     In    19      Py                   0.245     0.252    -0.007
     In    19      Pz                   0.244     0.243     0.001
     In    19      S                   -0.265    -0.266     0.001
     In    20      Dzz                  1.000     1.000    -0.000
     In    20      Dzy                  0.998     0.998     0.000
     In    20      Dzx                  0.999     0.999    -0.000
     In    20      Dxx-yy               1.000     1.000     0.000
     In    20      Dxy                  0.998     0.998     0.000
     In    20      S                    0.712     0.712    -0.000
     In    20      Px                   0.240     0.240    -0.000
     In    20      Py                   0.240     0.240     0.000
     In    20      Pz                   0.240     0.239     0.001
     In    20      S                   -0.265    -0.270     0.005
     In    21      Dzz                  1.000     1.000    -0.000
     In    21      Dzy                  0.999     0.999     0.000
     In    21      Dzx                  0.999     0.999    -0.000
     In    21      Dxx-yy               1.000     1.000     0.000
     In    21      Dxy                  0.998     0.998     0.000
     In    21      S                    0.704     0.705    -0.001
     In    21      Px                   0.241     0.240     0.001
     In    21      Py                   0.241     0.242    -0.001
     In    21      Pz                   0.231     0.231    -0.000
     In    21      S                   -0.252    -0.257     0.004
     In    22      Dzz                  1.000     1.000    -0.000
     In    22      Dzy                  0.998     0.998     0.000
     In    22      Dzx                  0.998     0.998    -0.000
     In    22      Dxx-yy               1.000     1.000     0.000
     In    22      Dxy                  0.998     0.998    -0.000
     In    22      S                    0.708     0.707     0.001
     In    22      Px                   0.240     0.240    -0.000
     In    22      Py                   0.241     0.240     0.000
     In    22      Pz                   0.241     0.240     0.000
     In    22      S                   -0.266    -0.266     0.001
     In    23      Dzz                  1.000     1.000    -0.000
     In    23      Dzy                  0.998     0.998    -0.000
     In    23      Dzx                  0.999     0.999     0.000
     In    23      Dxx-yy               1.000     1.000    -0.000
     In    23      Dxy                  0.998     0.998     0.000
     In    23      S                    0.711     0.711    -0.000
     In    23      Px                   0.240     0.240    -0.000
     In    23      Py                   0.240     0.240    -0.000
     In    23      Pz                   0.239     0.239    -0.000
     In    23      S                   -0.269    -0.270     0.001
     In    24      Dzz                  0.999     0.999     0.000
     In    24      Dzy                  0.998     0.998    -0.000
     In    24      Dzx                  0.998     0.998     0.000
     In    24      Dxx-yy               1.000     1.000    -0.000
     In    24      Dxy                  0.998     0.998     0.000
     In    24      S                    0.710     0.711    -0.000
     In    24      Px                   0.241     0.240     0.001
     In    24      Py                   0.250     0.251    -0.001
     In    24      Pz                   0.241     0.241    -0.001
     In    24      S                   -0.267    -0.266    -0.000
     In    25      Dzz                  1.000     1.000    -0.000
     In    25      Dzy                  0.998     0.998    -0.000
     In    25      Dzx                  0.998     0.998    -0.000
     In    25      Dxx-yy               1.000     1.000     0.000
     In    25      Dxy                  0.998     0.998    -0.000
     In    25      S                    0.712     0.712    -0.000
     In    25      Px                   0.241     0.240     0.001
     In    25      Py                   0.239     0.239    -0.000
     In    25      Pz                   0.241     0.240     0.001
     In    25      S                   -0.269    -0.270     0.001
     In    26      Dzz                  1.000     1.000     0.000
     In    26      Dzy                  0.998     0.998    -0.000
     In    26      Dzx                  0.998     0.998     0.000
     In    26      Dxx-yy               1.000     1.000     0.000
     In    26      Dxy                  0.998     0.998    -0.000
     In    26      S                    0.708     0.707     0.000
     In    26      Px                   0.240     0.240     0.000
     In    26      Py                   0.239     0.239    -0.000
     In    26      Pz                   0.246     0.244     0.001
     In    26      S                   -0.265    -0.264    -0.001
     In    27      Dzz                  1.000     1.000     0.000
     In    27      Dzy                  0.999     0.999     0.000
     In    27      Dzx                  0.998     0.998    -0.000
     In    27      Dxx-yy               1.000     1.000    -0.000
     In    27      Dxy                  0.999     0.999     0.000
     In    27      S                    0.705     0.707    -0.001
     In    27      Px                   0.241     0.240     0.001
     In    27      Py                   0.233     0.233    -0.001
     In    27      Pz                   0.243     0.242     0.001
     In    27      S                   -0.254    -0.258     0.004
     In    28      Dzz                  1.000     1.000    -0.000
     In    28      Dzy                  0.998     0.998    -0.000
     In    28      Dzx                  0.998     0.998     0.000
     In    28      Dxx-yy               1.000     1.000     0.000
     In    28      Dxy                  0.998     0.998    -0.000
     In    28      S                    0.717     0.714     0.002
     In    28      Px                   0.243     0.241     0.002
     In    28      Py                   0.242     0.241     0.001
     In    28      Pz                   0.249     0.244     0.004
     In    28      S                   -0.267    -0.268     0.001
     In    29      Dzz                  1.000     1.000     0.000
     In    29      Dzy                  0.998     0.998    -0.000
     In    29      Dzx                  0.998     0.998     0.000
     In    29      Dxx-yy               1.000     1.000     0.000
     In    29      Dxy                  0.998     0.998    -0.000
     In    29      S                    0.709     0.708     0.001
     In    29      Px                   0.248     0.246     0.001
     In    29      Py                   0.238     0.238    -0.000
     In    29      Pz                   0.240     0.240     0.000
     In    29      S                   -0.265    -0.265    -0.000
     In    30      Dzz                  1.000     1.000     0.000
     In    30      Dzy                  0.998     0.998    -0.000
     In    30      Dzx                  0.998     0.998    -0.000
     In    30      Dxx-yy               1.000     1.000     0.000
     In    30      Dxy                  0.998     0.998    -0.000
     In    30      S                    0.707     0.707     0.000
     In    30      Px                   0.241     0.241     0.000
     In    30      Py                   0.241     0.241    -0.000
     In    30      Pz                   0.242     0.242    -0.000
     In    30      S                   -0.265    -0.266     0.001
     In    31      Dzz                  0.999     0.999     0.000
     In    31      Dzy                  0.998     0.998     0.000
     In    31      Dzx                  0.998     0.998     0.000
     In    31      Dxx-yy               1.000     0.999     0.000
     In    31      Dxy                  0.998     0.998     0.000
     In    31      S                    0.715     0.715     0.000
     In    31      Px                   0.252     0.248     0.004
     In    31      Py                   0.241     0.241    -0.000
     In    31      Pz                   0.241     0.240     0.001
     In    31      S                   -0.269    -0.270     0.000
     In    32      Dzz                  1.000     1.000     0.000
     In    32      Dzy                  0.998     0.998    -0.000
     In    32      Dzx                  0.998     0.998    -0.000
     In    32      Dxx-yy               1.000     1.000    -0.000
     In    32      Dxy                  0.998     0.998    -0.000
     In    32      S                    0.706     0.706    -0.000
     In    32      Px                   0.240     0.240    -0.000
     In    32      Py                   0.242     0.242    -0.000
     In    32      Pz                   0.242     0.242     0.000
     In    32      S                   -0.265    -0.265    -0.000
  ---------------------------------------------------------------
                           Total:     290.996   290.004     0.992
  ---------------------------------------------------------------

     Atomic Populations (Mulliken)
     -----------------------------
Species          Ion Spin      s       p       d       f      Total   Charge(e)   Spin(hbar/2)
==============================================================================================
  P               1   up:     0.868   1.971   0.000   0.000   2.839    -0.674        0.003
                  1   dn:     0.867   1.968   0.000   0.000   2.836
  P               2   up:     0.898   2.039   0.000   0.000   2.937    -0.448        0.425
                  2   dn:     0.888   1.623   0.000   0.000   2.512
  P               3   up:     0.868   1.973   0.000   0.000   2.841    -0.674        0.009
                  3   dn:     0.867   1.966   0.000   0.000   2.833
  P               4   up:     0.867   1.976   0.000   0.000   2.844    -0.675        0.012
                  4   dn:     0.866   1.966   0.000   0.000   2.832
  P               5   up:     0.866   1.967   0.000   0.000   2.833    -0.663        0.002
                  5   dn:     0.866   1.964   0.000   0.000   2.830
  P               6   up:     0.867   1.970   0.000   0.000   2.838    -0.676       -0.000
                  6   dn:     0.867   1.971   0.000   0.000   2.838
  P               7   up:     0.867   1.971   0.000   0.000   2.838    -0.675        0.000
                  7   dn:     0.866   1.971   0.000   0.000   2.837
  P               8   up:     0.867   1.976   0.000   0.000   2.843    -0.675        0.011
                  8   dn:     0.866   1.966   0.000   0.000   2.832
  P               9   up:     0.866   1.972   0.000   0.000   2.838    -0.675        0.001
                  9   dn:     0.866   1.971   0.000   0.000   2.837
  P              10   up:     0.867   1.971   0.000   0.000   2.838    -0.677       -0.001
                 10   dn:     0.867   1.972   0.000   0.000   2.839
  P              11   up:     0.873   1.959   0.000   0.000   2.831    -0.639        0.023
                 11   dn:     0.868   1.940   0.000   0.000   2.808
  P              12   up:     0.872   1.971   0.000   0.000   2.843    -0.643        0.043
                 12   dn:     0.867   1.933   0.000   0.000   2.800
  P              13   up:     0.867   1.970   0.000   0.000   2.837    -0.674       -0.001
                 13   dn:     0.867   1.971   0.000   0.000   2.837
  P              14   up:     0.864   1.980   0.000   0.000   2.844    -0.679        0.009
                 14   dn:     0.863   1.972   0.000   0.000   2.835
  P              15   up:     0.867   1.970   0.000   0.000   2.837    -0.674       -0.001
                 15   dn:     0.867   1.970   0.000   0.000   2.837
  P              16   up:     0.872   1.975   0.000   0.000   2.846    -0.646        0.047
                 16   dn:     0.867   1.933   0.000   0.000   2.800
  P              17   up:     0.866   1.966   0.000   0.000   2.832    -0.661        0.003
                 17   dn:     0.866   1.963   0.000   0.000   2.829
  P              18   up:     0.867   1.971   0.000   0.000   2.838    -0.676       -0.000
                 18   dn:     0.867   1.971   0.000   0.000   2.838
  P              19   up:     0.868   1.974   0.000   0.000   2.842    -0.674        0.009
                 19   dn:     0.867   1.966   0.000   0.000   2.833
  P              20   up:     0.867   1.971   0.000   0.000   2.838    -0.675        0.000
                 20   dn:     0.867   1.971   0.000   0.000   2.837
  P              21   up:     0.868   1.970   0.000   0.000   2.838    -0.674        0.003
                 21   dn:     0.868   1.968   0.000   0.000   2.836
  P              22   up:     0.864   1.976   0.000   0.000   2.840    -0.681       -0.000
                 22   dn:     0.864   1.976   0.000   0.000   2.840
  P              23   up:     0.867   1.971   0.000   0.000   2.838    -0.675        0.000
                 23   dn:     0.866   1.971   0.000   0.000   2.837
  P              24   up:     0.867   1.971   0.000   0.000   2.838    -0.675       -0.000
                 24   dn:     0.867   1.971   0.000   0.000   2.838
  P              25   up:     0.867   1.970   0.000   0.000   2.837    -0.674       -0.000
                 25   dn:     0.867   1.971   0.000   0.000   2.837
  P              26   up:     0.865   1.977   0.000   0.000   2.842    -0.678        0.005
                 26   dn:     0.864   1.972   0.000   0.000   2.837
  P              27   up:     0.873   1.958   0.000   0.000   2.831    -0.640        0.021
                 27   dn:     0.868   1.941   0.000   0.000   2.809
  P              28   up:     0.867   1.970   0.000   0.000   2.837    -0.674        0.000
                 28   dn:     0.867   1.970   0.000   0.000   2.837
  P              29   up:     0.866   1.972   0.000   0.000   2.838    -0.675        0.001
                 29   dn:     0.866   1.971   0.000   0.000   2.837
  P              30   up:     0.867   1.970   0.000   0.000   2.837    -0.674       -0.000
                 30   dn:     0.867   1.970   0.000   0.000   2.837
  P              31   up:     0.867   1.970   0.000   0.000   2.837    -0.674       -0.000
                 31   dn:     0.867   1.970   0.000   0.000   2.837
  P              32   up:     0.867   1.970   0.000   0.000   2.837    -0.674        0.000
                 32   dn:     0.867   1.969   0.000   0.000   2.837
  P              33   up:     0.895   2.024   0.000   0.000   2.919    -0.455        0.383
                 33   dn:     0.886   1.650   0.000   0.000   2.536
  In              1   up:     0.448   0.714   4.995   0.000   6.157     0.683       -0.004
                  1   dn:     0.451   0.714   4.995   0.000   6.160
  In              2   up:     0.425   0.701   4.995   0.000   6.121     0.733       -0.026
                  2   dn:     0.439   0.714   4.994   0.000   6.146
  In              3   up:     0.446   0.720   4.995   0.000   6.161     0.684        0.005
                  3   dn:     0.442   0.719   4.995   0.000   6.155
  In              4   up:     0.447   0.735   4.993   0.000   6.176     0.636       -0.013
                  4   dn:     0.454   0.742   4.993   0.000   6.189
  In              5   up:     0.442   0.722   4.995   0.000   6.159     0.685        0.003
                  5   dn:     0.440   0.721   4.995   0.000   6.156
  In              6   up:     0.451   0.715   4.995   0.000   6.161     0.680        0.002
                  6   dn:     0.449   0.715   4.995   0.000   6.159
  In              7   up:     0.443   0.731   4.994   0.000   6.169     0.662       -0.001
                  7   dn:     0.444   0.732   4.994   0.000   6.169
  In              8   up:     0.442   0.718   4.995   0.000   6.154     0.692        0.000
                  8   dn:     0.441   0.718   4.995   0.000   6.154
  In              9   up:     0.443   0.724   4.994   0.000   6.161     0.679        0.001
                  9   dn:     0.443   0.723   4.994   0.000   6.160
  In             10   up:     0.442   0.722   4.995   0.000   6.159     0.685        0.002
                 10   dn:     0.442   0.720   4.995   0.000   6.157
  In             11   up:     0.450   0.734   4.994   0.000   6.178     0.653        0.010
                 11   dn:     0.447   0.728   4.994   0.000   6.169
  In             12   up:     0.452   0.717   4.995   0.000   6.164     0.678        0.005
                 12   dn:     0.449   0.715   4.995   0.000   6.159
  In             13   up:     0.442   0.725   4.994   0.000   6.162     0.678        0.001
                 13   dn:     0.441   0.725   4.994   0.000   6.160
  In             14   up:     0.443   0.725   4.994   0.000   6.163     0.676        0.002
                 14   dn:     0.443   0.724   4.994   0.000   6.161
  In             15   up:     0.441   0.724   4.995   0.000   6.159     0.681       -0.000
                 15   dn:     0.441   0.724   4.995   0.000   6.160
  In             16   up:     0.446   0.733   4.994   0.000   6.173     0.658        0.004
                 16   dn:     0.445   0.730   4.994   0.000   6.169
  In             17   up:     0.424   0.703   4.995   0.000   6.123     0.731       -0.024
                 17   dn:     0.438   0.715   4.994   0.000   6.146
  In             18   up:     0.448   0.714   4.995   0.000   6.157     0.683       -0.004
                 18   dn:     0.452   0.714   4.995   0.000   6.160
  In             19   up:     0.447   0.736   4.993   0.000   6.176     0.632       -0.016
                 19   dn:     0.455   0.744   4.993   0.000   6.192
  In             20   up:     0.447   0.720   4.995   0.000   6.161     0.683        0.005
                 20   dn:     0.442   0.719   4.995   0.000   6.156
  In             21   up:     0.452   0.713   4.995   0.000   6.160     0.683        0.003
                 21   dn:     0.448   0.714   4.995   0.000   6.157
  In             22   up:     0.442   0.722   4.995   0.000   6.159     0.685        0.002
                 22   dn:     0.441   0.721   4.995   0.000   6.157
  In             23   up:     0.442   0.718   4.995   0.000   6.155     0.691        0.001
                 23   dn:     0.441   0.719   4.995   0.000   6.154
  In             24   up:     0.444   0.732   4.994   0.000   6.169     0.661       -0.001
                 24   dn:     0.444   0.732   4.994   0.000   6.170
  In             25   up:     0.443   0.722   4.995   0.000   6.159     0.684        0.002
                 25   dn:     0.443   0.720   4.995   0.000   6.157
  In             26   up:     0.443   0.724   4.994   0.000   6.162     0.678        0.001
                 26   dn:     0.443   0.723   4.994   0.000   6.161
  In             27   up:     0.452   0.717   4.995   0.000   6.164     0.678        0.006
                 27   dn:     0.448   0.715   4.995   0.000   6.158
  In             28   up:     0.450   0.733   4.994   0.000   6.178     0.655        0.010
                 28   dn:     0.447   0.727   4.994   0.000   6.167
  In             29   up:     0.443   0.725   4.994   0.000   6.163     0.677        0.002
                 29   dn:     0.442   0.724   4.994   0.000   6.160
  In             30   up:     0.442   0.725   4.994   0.000   6.162     0.678        0.001
                 30   dn:     0.441   0.725   4.994   0.000   6.160
  In             31   up:     0.446   0.734   4.994   0.000   6.173     0.659        0.005
                 31   dn:     0.445   0.729   4.994   0.000   6.168
  In             32   up:     0.441   0.724   4.995   0.000   6.160     0.680       -0.000
                 32   dn:     0.441   0.724   4.995   0.000   6.160
==============================================================================================

                 Bond                   Population        Spin       Length (A)
================================================================================
              P 2  -- P 33                   0.37        -0.11          2.13502
              P 2  -- In 19                  0.75        -0.01          2.46951
              P 33 -- In 4                   0.74        -0.01          2.47377
              P 17 -- In 24                  0.69         0.00          2.50470
              P 5  -- In 7                   0.69         0.00          2.50634
              P 22 -- In 24                  0.66         0.00          2.51707
              P 22 -- In 7                   0.66         0.00          2.51763
              P 8  -- In 4                   0.65        -0.00          2.51930
              P 4  -- In 19                  0.64        -0.00          2.51934
              P 19 -- In 19                  0.66        -0.01          2.52465
              P 16 -- In 31                  0.64        -0.00          2.52559
              P 12 -- In 16                  0.63        -0.00          2.52731
              P 14 -- In 16                  0.66        -0.00          2.52829
              P 3  -- In 4                   0.65        -0.01          2.52836
              P 14 -- In 31                  0.66        -0.00          2.52904
              P 14 -- In 29                  0.67        -0.00          2.52929
              P 14 -- In 14                  0.67        -0.00          2.53055
              P 1  -- In 2                   0.68         0.00          2.53330
              P 26 -- In 11                  0.65        -0.00          2.53458
              P 26 -- In 26                  0.67         0.00          2.53481
              P 11 -- In 11                  0.63        -0.00          2.53582
              P 26 -- In 9                   0.67         0.00          2.53756
              P 21 -- In 17                  0.68         0.00          2.53790
              P 26 -- In 28                  0.65        -0.00          2.53822
              P 27 -- In 28                  0.63        -0.00          2.53831
              P 4  -- In 29                  0.64        -0.00          2.53865
              P 8  -- In 14                  0.64        -0.00          2.54042
              P 9  -- In 13                  0.67         0.00          2.54217
              P 12 -- In 2                   0.63        -0.01          2.54223
              P 29 -- In 30                  0.67         0.00          2.54302
              P 10 -- In 25                  0.66         0.00          2.54454
              P 16 -- In 17                  0.63        -0.01          2.54460
              P 10 -- In 10                  0.66         0.00          2.54461
              P 31 -- In 31                  0.66         0.00          2.54578
              P 20 -- In 13                  0.66        -0.00          2.54598
              P 7  -- In 13                  0.67        -0.00          2.54613
              P 25 -- In 26                  0.67        -0.00          2.54616
              P 18 -- In 3                   0.66         0.00          2.54620
              P 13 -- In 9                   0.67         0.00          2.54627
              P 23 -- In 30                  0.66        -0.00          2.54641
              P 24 -- In 30                  0.66        -0.00          2.54644
              P 18 -- In 20                  0.66         0.00          2.54650
              P 25 -- In 29                  0.67         0.00          2.54660
              P 13 -- In 14                  0.67         0.00          2.54664
              P 31 -- In 32                  0.67        -0.00          2.54716
              P 15 -- In 16                  0.66         0.00          2.54718
              P 28 -- In 32                  0.67         0.00          2.54740
              P 22 -- In 5                   0.68        -0.00          2.54741
              P 15 -- In 15                  0.67        -0.00          2.54759
              P 19 -- In 26                  0.64         0.00          2.54777
              P 6  -- In 8                   0.66         0.00          2.54785
              P 32 -- In 15                  0.67         0.00          2.54838
              P 3  -- In 9                   0.64         0.00          2.54842
              P 29 -- In 25                  0.66         0.00          2.54898
              P 22 -- In 22                  0.67        -0.00          2.54898
              P 9  -- In 10                  0.66        -0.00          2.54931
              P 9  -- In 16                  0.65         0.00          2.54959
              P 12 -- In 27                  0.67        -0.00          2.54959
              P 28 -- In 11                  0.66         0.00          2.54969
              P 6  -- In 23                  0.66         0.00          2.54979
              P 16 -- In 12                  0.67        -0.00          2.54981
              P 7  -- In 7                   0.65        -0.00          2.54982
              P 32 -- In 28                  0.66         0.00          2.54988
              P 29 -- In 31                  0.65         0.00          2.55010
              P 20 -- In 24                  0.65         0.00          2.55017
              P 23 -- In 24                  0.65        -0.00          2.55025
              P 24 -- In 7                   0.65         0.00          2.55095
              P 23 -- In 29                  0.66         0.00          2.55144
              P 7  -- In 14                  0.66         0.00          2.55183
              P 28 -- In 5                   0.67        -0.00          2.55223
              P 31 -- In 22                  0.67         0.00          2.55230
              P 32 -- In 22                  0.67         0.00          2.55232
              P 15 -- In 5                   0.67         0.00          2.55247
              P 17 -- In 18                  0.67         0.00          2.55249
              P 11 -- In 2                   0.64        -0.00          2.55257
              P 5  -- In 1                   0.67         0.00          2.55279
              P 20 -- In 26                  0.66        -0.00          2.55289
              P 27 -- In 27                  0.66        -0.00          2.55294
              P 23 -- In 23                  0.67         0.00          2.55315
              P 30 -- In 15                  0.66         0.00          2.55333
              P 24 -- In 9                   0.66        -0.00          2.55353
              P 27 -- In 17                  0.64        -0.00          2.55366
              P 4  -- In 10                  0.65        -0.00          2.55379
              P 1  -- In 8                   0.66         0.00          2.55397
              P 21 -- In 23                  0.66         0.00          2.55411
              P 24 -- In 20                  0.66         0.00          2.55414
              P 5  -- In 6                   0.66        -0.00          2.55419
              P 30 -- In 32                  0.66         0.00          2.55430
              P 11 -- In 12                  0.66        -0.00          2.55432
              P 9  -- In 11                  0.65        -0.00          2.55442
              P 17 -- In 21                  0.66        -0.00          2.55454
              P 25 -- In 32                  0.66         0.00          2.55460
              P 8  -- In 25                  0.65        -0.00          2.55471
              P 13 -- In 15                  0.66         0.00          2.55487
              P 29 -- In 28                  0.65        -0.00          2.55491
              P 30 -- In 30                  0.66         0.00          2.55513
              P 20 -- In 3                   0.66        -0.00          2.55542
              P 7  -- In 8                   0.66         0.00          2.55593
              P 1  -- In 3                   0.65        -0.00          2.55607
              P 30 -- In 13                  0.66         0.00          2.55618
              P 3  -- In 10                  0.65         0.00          2.55635
              P 19 -- In 25                  0.65         0.00          2.55683
              P 10 -- In 27                  0.65         0.00          2.55705
              P 21 -- In 20                  0.65        -0.00          2.55721
              P 15 -- In 6                   0.65         0.00          2.55727
              P 10 -- In 12                  0.64         0.00          2.55735
              P 1  -- In 5                   0.63        -0.00          2.55747
              P 13 -- In 12                  0.66         0.00          2.55786
              P 21 -- In 22                  0.64        -0.00          2.55817
              P 6  -- In 21                  0.65         0.00          2.55839
              P 25 -- In 27                  0.66         0.00          2.55891
              P 4  -- In 8                   0.67         0.00          2.55959
              P 8  -- In 23                  0.67         0.00          2.56007
              P 6  -- In 6                   0.65         0.00          2.56016
              P 18 -- In 18                  0.65        -0.00          2.56081
              P 18 -- In 1                   0.65        -0.00          2.56096
              P 3  -- In 3                   0.67         0.00          2.56167
              P 31 -- In 21                  0.64        -0.00          2.56223
              P 19 -- In 20                  0.67         0.00          2.56323
              P 28 -- In 18                  0.64        -0.00          2.56422
              P 32 -- In 1                   0.64        -0.00          2.56442
              P 16 -- In 6                   0.65         0.00          2.56477
              P 12 -- In 21                  0.64         0.00          2.56603
              P 11 -- In 1                   0.65         0.01          2.56792
              P 27 -- In 18                  0.65         0.01          2.56891
              P 5  -- In 4                   0.53         0.00          2.57128
              P 17 -- In 19                  0.53         0.00          2.57647
              P 33 -- In 17                  0.45         0.02          2.62542
              P 2  -- In 2                   0.42         0.02          2.65038
              P 33 -- In 2                   0.17        -0.02          2.81698
              P 2  -- In 17                  0.14        -0.03          2.84876
================================================================================

 Hirshfeld supercell size:           2           2           2
Standard grid dimensions: 240 240 240
Fine grid dimensions:     240 240 240


     Hirshfeld Analysis
     ------------------
Species   Ion     Hirshfeld Charge (e)  Spin (hbar/2)
===================================================
  P        1                -0.23        0.00
  P        2                -0.16        0.32
  P        3                -0.23        0.01
  P        4                -0.24        0.01
  P        5                -0.24        0.00
  P        6                -0.24        0.00
  P        7                -0.24        0.00
  P        8                -0.24        0.01
  P        9                -0.24        0.00
  P       10                -0.24       -0.00
  P       11                -0.23        0.02
  P       12                -0.23        0.03
  P       13                -0.24        0.00
  P       14                -0.24        0.01
  P       15                -0.24       -0.00
  P       16                -0.23        0.04
  P       17                -0.24        0.01
  P       18                -0.24        0.00
  P       19                -0.23        0.01
  P       20                -0.24        0.00
  P       21                -0.23        0.00
  P       22                -0.24       -0.00
  P       23                -0.24        0.00
  P       24                -0.24        0.00
  P       25                -0.24        0.00
  P       26                -0.24        0.01
  P       27                -0.23        0.02
  P       28                -0.24        0.00
  P       29                -0.24        0.00
  P       30                -0.24        0.00
  P       31                -0.24        0.00
  P       32                -0.24        0.00
  P       33                -0.16        0.29
  In       1                 0.25        0.00
  In       2                 0.26        0.04
  In       3                 0.25        0.00
  In       4                 0.22        0.02
  In       5                 0.24        0.00
  In       6                 0.25        0.00
  In       7                 0.23       -0.00
  In       8                 0.25        0.00
  In       9                 0.24        0.00
  In      10                 0.24        0.00
  In      11                 0.23        0.01
  In      12                 0.24        0.00
  In      13                 0.23        0.00
  In      14                 0.24        0.00
  In      15                 0.24        0.00
  In      16                 0.23        0.01
  In      17                 0.26        0.04
  In      18                 0.25        0.00
  In      19                 0.22        0.02
  In      20                 0.25        0.00
  In      21                 0.25        0.00
  In      22                 0.24        0.00
  In      23                 0.25        0.00
  In      24                 0.23        0.00
  In      25                 0.24        0.00
  In      26                 0.24        0.00
  In      27                 0.24        0.00
  In      28                 0.23        0.01
  In      29                 0.24        0.00
  In      30                 0.23        0.00
  In      31                 0.23        0.01
  In      32                 0.24        0.00
===================================================

 
 A BibTeX formatted list of references used in this run has been written to 
 P_Interstitial_Migration_Dumbbell_Dumbbell+_Singlepoints_6.bib
 
Initialisation time =     30.66 s
Calculation time    =   7821.43 s
Finalisation time   =    159.14 s
Total time          =   8011.23 s
Peak Memory Use     = 9667908 kB
 
Overall parallel efficiency rating: Terrible (34%)
 
Data was distributed by:-
G-vector (3-way); efficiency rating: Poor (38%)
k-point (36-way); efficiency rating: Good (76%)
