 +-------------------------------------------------+
 |                                                 |
 |      CCC   AA    SSS  TTTTT  EEEEE  PPPP        |
 |     C     A  A  S       T    E      P   P       |
 |     C     AAAA   SS     T    EEE    PPPP        |
 |     C     A  A     S    T    E      P           |
 |      CCC  A  A  SSS     T    EEEEE  P           |
 |                                                 |
 +-------------------------------------------------+
 |                                                 |
 | Welcome to Academic Release CASTEP version 24.1 |
 | Ab Initio Total Energy Program                  |
 |                                                 |
 | Authors:                                        |
 | M. Segall, M. Probert, C. Pickard, P. Hasnip,   |
 | S. Clark, K. Refson, J. R. Yates,               |
 | A. Bartok-Partay, M. Payne                      |
 |                                                 |
 | Contributors:                                   |
 | P. Lindan, P. Haynes, J. White, V. Milman,      |
 | N. Govind, M. Gibson, P. Tulip, V. Cocula,      |
 | B. Montanari, D. Quigley, M. Glover,            |
 | L. Bernasconi, A. Perlov, M. Plummer,           |
 | E. McNellis, J. Meyer, J. Gale, D. Jochym       |
 | J. Aarons, B. Walker, R. Gillen, D. Jones       |
 | T. Green, I. J. Bush, C. J. Armstrong,          |
 | E. J. Higgins, E. L. Brown, M. S. McFly,        |
 | J. Wilkins, B-C. Shih, P. J. P. Byrne,          |
 | R. J. Maurer, J. C. Womack, J. Dziedzic,        |
 | L. LeBlanc, T. K. Stenczel, J. Kermode,         |
 | S. Sturniolo, B. Shi, B. Durham, M. Evans,      |
 | M. J. Smith, A. Tamerus, Z. Hawkhead,           |
 | V. Ravindran, T. Hollins, S. A. Joyce,          |
 | R. T. Strong, A. M. Reilly, S. J. Donaldson     |
 |                                                 |
 | Copyright (c) 2000 - 2023                       |
 |                                                 |
 |     Distributed under license from Cambridge    |
 |     Enterprise for academic use only.           |
 |                                                 |
 | Please cite                                     |
 |                                                 |
 |     "First principles methods using CASTEP"     |
 |                                                 |
 |         Zeitschrift fuer Kristallographie       |
 |           220(5-6) pp. 567-570 (2005)           |
 |                                                 |
 | S. J. Clark, M. D. Segall, C. J. Pickard,       |
 | P. J. Hasnip, M. J. Probert, K. Refson,         |
 | M. C. Payne                                     |
 |                                                 |
 |       in all publications arising from          |
 |              your use of CASTEP                 |
 |                                                 |
 +-------------------------------------------------+
 |                                                 |
 |              http://www.castep.org              |
 |                                                 |
 +-------------------------------------------------+



 Compiled for  GNU 11.2.0 on 04-04-2024 18:39:17
 from code version 6355fd106 Castep241_branch Thu Mar 7 17:56:19 2024 +0000
 Compiler: GNU Fortran 11.2.0; Optimisation: FAST
 Comms   : MPI VERSION : CRAY MPICH version 8.1.23.14 (ANL base 3.4a2)
 MATHLIBS: default (LAPACK version 3.10.1)
 FFT Lib : fftw3 version commercial-fftw-3.3.10-sse2-avx-avx2-avx2_128
 Fundamental constants values: CODATA 2018

 Run started: Tue, 29 Jul 2025 20:35:33 +0100

 Atomic calculation performed for P: 1s2 2s2 2p6 3s2 3p3

 Converged in 47 iterations to an ae energy of -9309.074 eV

   ============================================================                
   | Pseudopotential Report - Date of generation 29-07-2025   |                
   ------------------------------------------------------------                
   | Element: P Ionic charge:  5.00 Level of theory: RSCAN    |                
   | Atomic Solver: Koelling-Harmon                           |                
   |                                                          |                
   |               Reference Electronic Structure             |                
   |         Orbital         Occupation         Energy        |                
   |            3s              2.000           -0.535        |                
   |            3p              3.000           -0.209        |                
   |                                                          |                
   |                 Pseudopotential Definition               |                
   |        Beta     l      e      Rc     scheme   norm       |                
   |          1      0   -0.535   1.807     qc      0         |                
   |          2      0    0.250   1.807     qc      0         |                
   |          3      1   -0.209   1.807     qc      0         |                
   |          4      1    0.250   1.807     qc      0         |                
   |          5      2    0.000   1.807     qc      0         |                
   |          6      2    0.250   1.807     qc      0         |                
   |         loc     3    0.000   1.807     pn      0         |                
   |                                                          |                
   | Augmentation charge Rinner = 1.263                       |                
   | Partial core correction Rc = 1.263                       |                
   ------------------------------------------------------------                
   | "3|1.8|4|4|5|30:31:32"                                   |                
   ------------------------------------------------------------                
   |      Author: Chris J. Pickard, Cambridge University      |                
   ============================================================                
 Warning: otfg_output_psp cannot write out meta-GGA pseudopotentials presently.

 Atomic calculation performed for In:
 1s2 2s2 2p6 3s2 3p6 3d10 4s2 4p6 4d10 5s2 5p1

 Converged in 84 iterations to an ae energy of -160093.328 eV

   ============================================================                
   | Pseudopotential Report - Date of generation 29-07-2025   |                
   ------------------------------------------------------------                
   | Element: In Ionic charge: 13.00 Level of theory: RSCAN   |                
   | Atomic Solver: Koelling-Harmon                           |                
   |                                                          |                
   |               Reference Electronic Structure             |                
   |         Orbital         Occupation         Energy        |                
   |            4d             10.000           -0.711        |                
   |            5s              2.000           -0.313        |                
   |            5p              1.000           -0.095        |                
   |                                                          |                
   |                 Pseudopotential Definition               |                
   |        Beta     l      e      Rc     scheme   norm       |                
   |          1      0   -0.313   2.501     qc      0         |                
   |          2      0    0.250   2.501     qc      0         |                
   |          3      1   -0.095   2.501     qc      0         |                
   |          4      1    0.250   2.501     qc      0         |                
   |          5      2   -0.711   2.207     qc      0         |                
   |          6      2    0.250   2.207     qc      0         |                
   |         loc     3    0.000   2.501     pn      0         |                
   |                                                          |                
   | Augmentation charge Rinner = 1.504                       |                
   | Partial core correction Rc = 1.504                       |                
   ------------------------------------------------------------                
   | "3|2.5|2.5|1.5|7|8|9|50:51:42U2.2U2.2"                   |                
   ------------------------------------------------------------                
   |      Author: Chris J. Pickard, Cambridge University      |                
   ============================================================                
 Warning: otfg_output_psp cannot write out meta-GGA pseudopotentials presently.

 Pseudo atomic calculation performed for P 3s2 3p3

 Converged in 23 iterations to a total energy of -208.0292 eV

 Pseudo atomic calculation performed for In 4d10 5s2 5p1

 Converged in 42 iterations to a total energy of -1747.4501 eV
 Calculation parallelised over 108 processes.
 Data is distributed by G-vector(3-way) and k-point(36-way)
 Each process may use up to 16 threads.

 ************************************ Title ************************************
 

 ***************************** General Parameters ******************************
  
 output verbosity                               : normal  (1)
 write checkpoint data to                       : P_Vacancy_Migration_5->3_Singlepoints_7.check
 type of calculation                            : single point energy
 stress calculation                             : off
 density difference calculation                 : off
 electron localisation func (ELF) calculation   : off
 Hirshfeld analysis                             : on
 polarisation (Berry phase) analysis            : off
 molecular orbital projected DOS                : off
 deltaSCF calculation                           : off
 unlimited duration calculation
 timing information                             : on
 memory usage estimate                          : on
 write extra output files                       : on
 write final potential to formatted file        : off
 write final density to formatted file          : off
 write BibTeX reference list                    : on
 write OTFG pseudopotential files               : on
 write electrostatic potential file             : on
 write bands file                               : on
 checkpoint writing                             : off
  
 output         length unit                     : A
 output           mass unit                     : amu
 output           time unit                     : ps
 output         charge unit                     : e
 output           spin unit                     : hbar/2
 output         energy unit                     : eV
 output          force unit                     : eV/A
 output       velocity unit                     : A/ps
 output       pressure unit                     : GPa
 output     inv_length unit                     : 1/A
 output      frequency unit                     : cm-1
 output force constant unit                     : eV/A**2
 output         volume unit                     : A**3
 output   IR intensity unit                     : (D/A)**2/amu
 output         dipole unit                     : D
 output         efield unit                     : eV/A/e
 output        entropy unit                     : J/mol/K
 output    efield chi2 unit                     : pm/V
  
 wavefunctions paging                           : none
 random number generator seed                   :  203533830
 data distribution                              : optimal for this architecture
 optimization strategy                          : balance speed and memory

 *********************** Exchange-Correlation Parameters ***********************
  
 using functional                               : RSCAN
 relativistic treatment                         : Koelling-Harmon
 DFT+D: Semi-empirical dispersion correction    : off

 ************************* Pseudopotential Parameters **************************
  
 pseudopotential representation                 : reciprocal space
 <beta|phi> representation                      : reciprocal space
 spin-orbit coupling                            : off

 **************************** Basis Set Parameters *****************************
  
 plane wave basis set cut-off                   :   900.0000   eV
 size of standard grid                          :     2.0000
 size of   fine   gmax                          :    30.7390   1/A
 finite basis set correction                    : none

 **************************** Electronic Parameters ****************************
  
 number of  electrons                           :  571.0    
 net charge of system                           :  0.000    
 net spin   of system                           :  1.000    
 number of  up  spins                           :  286.0    
 number of down spins                           :  285.0    
 treating system as spin-polarized
 number of bands                                :        343

 ********************* Electronic Minimization Parameters **********************
  
 Method: Treating system as metallic with density mixing treatment of electrons,
         and number of  SD  steps               :          1
         and number of  CG  steps               :          4
  
 total energy / atom convergence tol.           : 0.1000E-07   eV
 eigen-energy convergence tolerance             : 0.2203E-08   eV
 max force / atom convergence tol.              : ignored
 convergence tolerance window                   :          3   cycles
 max. number of SCF cycles                      :        100
 number of fixed-spin iterations                :         10
 smearing scheme                                : Gaussian
 smearing width                                 : 0.2000       eV
 Fermi energy convergence tolerance             : 0.2721E-13   eV
 periodic dipole correction                     : NONE

 ************************** Density Mixing Parameters **************************
  
 density-mixing scheme                          : Pulay
 max. length of mixing history                  :         20
 charge density mixing amplitude                : 0.5000    
   spin density mixing amplitude                :  2.000    
 cut-off energy for mixing                      :  900.0       eV

 *********************** Population Analysis Parameters ************************
  
 Population analysis with cutoff                :  3.000       A
 Population analysis output                     : summary and pdos components

 *******************************************************************************
  

                           -------------------------------
                                      Unit Cell
                           -------------------------------
        Real Lattice(A)                      Reciprocal Lattice(1/A)
    11.8016820    -0.0000080    -0.0000080        0.532397442   0.000000361   0.000000361
    -0.0000080    11.8016820    -0.0000080        0.000000361   0.532397442   0.000000361
    -0.0000080    -0.0000080    11.8016820        0.000000361   0.000000361   0.532397442

                       Lattice parameters(A)       Cell Angles
                    a =     11.801682          alpha =   90.000078
                    b =     11.801682          beta  =   90.000078
                    c =     11.801682          gamma =   90.000078

                       Current cell volume =          1643.734705       A**3
                                   density =             2.819410   AMU/A**3
                                           =             4.681741     g/cm^3

                           -------------------------------
                                     Cell Contents
                           -------------------------------
                         Total number of ions in cell =   63
                      Total number of species in cell =    2
                        Max number of any one species =   32

            xxxxxxxxxxxxxxxxxxxxxxxxxxxxxxxxxxxxxxxxxxxxxxxxxxxxxxxxxxxx
            x  Element    Atom        Fractional coordinates of atoms  x
            x            Number           u          v          w      x
            x----------------------------------------------------------x
            x  P            1         0.127281   0.103107   0.360171   x 
            x  P            2         0.360171   0.103107   0.127281   x 
            x  P            3         0.126496   0.374601   0.126496   x 
            x  P            4         0.125793   0.125522   0.877354   x 
            x  P            5         0.372850   0.124597   0.628122   x 
            x  P            6         0.122447   0.374713   0.627829   x 
            x  P            7         0.375856   0.376316   0.877064   x 
            x  P            8         0.124769   0.630497   0.377389   x 
            x  P            9         0.377389   0.630497   0.124769   x 
            x  P           10         0.136969   0.886591   0.136969   x 
            x  P           11         0.365115   0.893870   0.365115   x 
            x  P           12         0.125348   0.626309   0.877000   x 
            x  P           13         0.371786   0.629910   0.623907   x 
            x  P           14         0.123830   0.877472   0.625597   x 
            x  P           15         0.375521   0.871394   0.875188   x 
            x  P           16         0.628122   0.124597   0.372850   x 
            x  P           17         0.877354   0.125521   0.125793   x 
            x  P           18         0.627829   0.374713   0.122447   x 
            x  P           19         0.877064   0.376316   0.375856   x 
            x  P           20         0.625062   0.126219   0.873807   x 
            x  P           21         0.873807   0.126219   0.625062   x 
            x  P           22         0.625428   0.378567   0.625428   x 
            x  P           23         0.875577   0.375524   0.875577   x 
            x  P           24         0.623907   0.629910   0.371786   x 
            x  P           25         0.877000   0.626309   0.125348   x 
            x  P           26         0.625597   0.877472   0.123830   x 
            x  P           27         0.875188   0.871394   0.375521   x 
            x  P           28         0.626224   0.626688   0.874902   x 
            x  P           29         0.874902   0.626688   0.626223   x 
            x  P           30         0.624427   0.876677   0.624427   x 
            x  P           31         0.877615   0.877069   0.877615   x 
            x  In           1         0.007035  -0.001669   0.007035   x 
            x  In           2         0.375196   0.347102   0.375196   x 
            x  In           3         0.004780   0.246652   0.255061   x 
            x  In           4         0.255061   0.246652   0.004780   x 
            x  In           5        -0.002113   0.000378   0.497445   x 
            x  In           6         0.250399  -0.002178   0.754368   x 
            x  In           7        -0.000782   0.248786   0.753112   x 
            x  In           8         0.220912   0.222809   0.507783   x 
            x  In           9         0.001039   0.499202   0.001038   x 
            x  In          10         0.246210   0.510209   0.246210   x 
            x  In          11         0.005314   0.755942   0.246226   x 
            x  In          12         0.246226   0.755942   0.005314   x 
            x  In          13         0.000598   0.502437   0.500949   x 
            x  In          14         0.250683   0.501556   0.751368   x 
            x  In          15         0.001023   0.751547   0.751123   x 
            x  In          16         0.253481   0.762497   0.493931   x 
            x  In          17         0.497445   0.000378  -0.002113   x 
            x  In          18         0.754368  -0.002178   0.250399   x 
            x  In          19         0.507783   0.222809   0.220913   x 
            x  In          20         0.753112   0.248786  -0.000782   x 
            x  In          21         0.497448   0.001910   0.497448   x 
            x  In          22         0.750797  -0.000558   0.750797   x 
            x  In          23         0.499389   0.252682   0.749162   x 
            x  In          24         0.749162   0.252682   0.499389   x 
            x  In          25         0.500949   0.502437   0.000598   x 
            x  In          26         0.751369   0.501556   0.250682   x 
            x  In          27         0.493931   0.762497   0.253481   x 
            x  In          28         0.751123   0.751548   0.001023   x 
            x  In          29         0.500958   0.507701   0.500958   x 
            x  In          30         0.751271   0.500960   0.751271   x 
            x  In          31         0.500376   0.750269   0.748737   x 
            x  In          32         0.748737   0.750269   0.500376   x 
            xxxxxxxxxxxxxxxxxxxxxxxxxxxxxxxxxxxxxxxxxxxxxxxxxxxxxxxxxxxx


                         No user defined ionic velocities

                           -------------------------------
                                   Details of Species
                           -------------------------------

                               Mass of species in AMU
                                    P   30.9737600
                                    In  114.8180000

                          Electric Quadrupole Moment (Barn)
                                    P    1.0000000 No Isotope Defined
                                    In    0.7700000 Isotope115

                          Files used for pseudopotentials:
                                    P 3|1.8|4|4|5|30:31:32
                                    In 3|2.5|2.5|1.5|7|8|9|50:51:42U2.2U2.2

                           -------------------------------
                              k-Points For BZ Sampling
                           -------------------------------
                       MP grid size for SCF calculation is  4  4  4
                            with an offset of   0.125  0.125  0.125
                       Number of kpoints used =            36

                           -------------------------------
                               Symmetry and Constraints
                           -------------------------------

                      Maximum deviation from symmetry =  0.00000         ANG

                      Number of symmetry operations   =           1
                      Number of ionic constraints     =           3
                      Point group of crystal =     1: C1, 1, 1
                      Space group of crystal =     8: Cm, C -2y

             Set iprint > 1 for details on symmetry rotations/translations

                         Centre of mass is constrained
             Set iprint > 1 for details of linear ionic constraints

                         Number of cell constraints= 0
                         Cell constraints are:  1 2 3 4 5 6

                         External pressure/stress (GPa)
                          0.00000   0.00000   0.00000
                                    0.00000   0.00000
                                              0.00000
 
+---------------- MEMORY AND SCRATCH DISK ESTIMATES PER PROCESS --------------+
|                                                     Memory          Disk    |
| Baseline code, static data and system overhead      368.0 MB         0.0 MB |
| BLAS internal memory storage                          0.0 MB         0.0 MB |
| Model and support data                             4302.1 MB         0.0 MB |
| Electronic energy minimisation requirements        1320.9 MB         0.0 MB |
| Force calculation requirements                      127.4 MB         0.0 MB |
|                                               ----------------------------- |
| Approx. total storage required per process         5991.0 MB         0.0 MB |
|                                                                             |
| Requirements will fluctuate during execution and may exceed these estimates |
+-----------------------------------------------------------------------------+
Calculating approximate eigenstates for fixed initial Hamiltonian
Cut-off for approx. calculation is   89.988 eV
Improving approx. states at cut-off of  450.000 eV
Resetting cut-off to  900.000 eV
Calculating total energy with cut-off of  900.000 eV.
------------------------------------------------------------------------ <-- SCF
SCF loop      Energy           Fermi           Energy gain       Timer   <-- SCF
                               energy          per atom          (sec)   <-- SCF
------------------------------------------------------------------------ <-- SCF
Initial  -6.28309079E+004  0.00000000E+000                       457.85  <-- SCF
      1  -6.25832236E+004  2.50559120E+000  -3.93149652E+000     897.36  <-- SCF
      2  -6.25835180E+004  2.50538820E+000   4.67255891E-003    1212.28  <-- SCF
      3  -6.26505185E+004  2.58160629E+000   1.06349948E+000    1583.86  <-- SCF
      4  -6.26626022E+004  2.62619401E+000   1.91805674E-001    2081.17  <-- SCF
      5  -6.26703030E+004  2.72855122E+000   1.22234728E-001    2426.38  <-- SCF
      6  -6.26587968E+004  2.87389466E+000  -1.82637955E-001    2771.30  <-- SCF
      7  -6.26573376E+004  2.91878646E+000  -2.31629025E-002    3117.27  <-- SCF
      8  -6.26573176E+004  2.93811672E+000  -3.17350569E-004    3490.29  <-- SCF
      9  -6.26579766E+004  2.93892907E+000   1.04600477E-002    3843.23  <-- SCF
     10  -6.26585800E+004  2.94580133E+000   9.57847430E-003    4207.10  <-- SCF
     11  -6.26586581E+004  2.94261464E+000   1.23995568E-003    4568.85  <-- SCF
     12  -6.26586783E+004  2.94105108E+000   3.20675188E-004    4925.14  <-- SCF
     13  -6.26586916E+004  2.93788615E+000   2.11035671E-004    5274.84  <-- SCF
     14  -6.26586925E+004  2.93658721E+000   1.40885899E-005    5654.37  <-- SCF
     15  -6.26586931E+004  2.93519109E+000   9.14636737E-006    6012.46  <-- SCF
     16  -6.26586933E+004  2.93470534E+000   3.87599555E-006    6344.39  <-- SCF
     17  -6.26586942E+004  2.93278677E+000   1.40872623E-005    6705.68  <-- SCF
     18  -6.26586951E+004  2.93055727E+000   1.35074583E-005    7075.69  <-- SCF
     19  -6.26586955E+004  2.92838126E+000   6.94156286E-006    7449.61  <-- SCF
     20  -6.26586955E+004  2.92827648E+000   6.16348655E-007    7779.70  <-- SCF
     21  -6.26586956E+004  2.92799722E+000   2.76290161E-007    8100.29  <-- SCF
     22  -6.26586956E+004  2.92798630E+000   7.35705512E-008    8385.26  <-- SCF
     23  -6.26586956E+004  2.92792258E+000   4.30841901E-008    8652.30  <-- SCF
     24  -6.26586956E+004  2.92796928E+000   3.00430467E-008    8906.27  <-- SCF
     25  -6.26586956E+004  2.92795423E+000   2.21651315E-008    9152.33  <-- SCF
     26  -6.26586956E+004  2.92799751E+000   1.93023457E-008    9403.55  <-- SCF
     27  -6.26586956E+004  2.92802198E+000   1.17548048E-008    9664.85  <-- SCF
     28  -6.26586956E+004  2.92803336E+000   3.40723564E-008    9914.69  <-- SCF
     29  -6.26586956E+004  2.92803758E+000  -2.50178411E-007   10165.84  <-- SCF
     30  -6.26586956E+004  2.92804072E+000   1.40536641E-006   10420.66  <-- SCF
     31  -6.26586953E+004  2.92804436E+000  -5.34798935E-006   10665.38  <-- SCF
     32  -6.26586955E+004  2.92805071E+000   3.03650026E-006   10913.25  <-- SCF
     33  -6.26586958E+004  2.92804668E+000   4.68245951E-006   11162.09  <-- SCF
     34  -6.26586955E+004  2.92804614E+000  -5.28667722E-006   11403.32  <-- SCF
     35  -6.26586956E+004  2.92804456E+000   1.61181068E-006   11644.98  <-- SCF
     36  -6.26586956E+004  2.92804358E+000  -6.39339133E-010   11892.36  <-- SCF
     37  -6.26586955E+004  2.92804285E+000  -2.84131739E-007   12136.49  <-- SCF
     38  -6.26586955E+004  2.92804221E+000  -1.11082375E-007   12371.90  <-- SCF
     39  -6.26586955E+004  2.92804203E+000   1.23632671E-007   12615.37  <-- SCF
     40  -6.26586955E+004  2.92804212E+000  -8.81343235E-008   12851.25  <-- SCF
     41  -6.26586955E+004  2.92804225E+000   5.47551246E-008   13091.65  <-- SCF
     42  -6.26586955E+004  2.92804220E+000   3.84127915E-008   13333.75  <-- SCF
     43  -6.26586955E+004  2.92804222E+000  -1.67436142E-008   13571.85  <-- SCF
     44  -6.26586955E+004  2.92804226E+000  -1.81697628E-007   13806.89  <-- SCF
     45  -6.26586955E+004  2.92804223E+000   1.58758022E-007   14045.67  <-- SCF
     46  -6.26586955E+004  2.92804224E+000   9.06268622E-008   14285.00  <-- SCF
     47  -6.26586956E+004  2.92804222E+000   5.78811100E-008   14523.47  <-- SCF
     48  -6.26586956E+004  2.92804221E+000   1.92013871E-008   14763.04  <-- SCF
     49  -6.26586955E+004  2.92804218E+000  -4.52817097E-008   15003.56  <-- SCF
     50  -6.26586955E+004  2.92804218E+000  -1.07472614E-007   15242.40  <-- SCF
     51  -6.26586955E+004  2.92804217E+000  -3.03779386E-009   15481.43  <-- SCF
     52  -6.26586955E+004  2.92804218E+000   1.78757650E-008   15720.32  <-- SCF
     53  -6.26586955E+004  2.92804222E+000   4.79038840E-008   15964.98  <-- SCF
     54  -6.26586955E+004  2.92804223E+000   6.81710327E-008   16208.66  <-- SCF
     55  -6.26586956E+004  2.92804223E+000   7.94400969E-008   16439.88  <-- SCF
     56  -6.26586956E+004  2.92804223E+000   1.13772707E-007   16685.03  <-- SCF
     57  -6.26586956E+004  2.92804222E+000   5.84310791E-008   16925.11  <-- SCF
     58  -6.26586956E+004  2.92804222E+000   4.79942361E-008   17168.21  <-- SCF
     59  -6.26586956E+004  2.92804221E+000   1.12940093E-008   17409.28  <-- SCF
     60  -6.26586956E+004  2.92804221E+000   9.57869477E-009   17644.28  <-- SCF
     61  -6.26586956E+004  2.92804221E+000   2.17336022E-009   17881.35  <-- SCF
     62  -6.26586956E+004  2.92804222E+000  -1.16279191E-009   18117.92  <-- SCF
     63  -6.26586956E+004  2.92804222E+000  -4.09668089E-009   18358.24  <-- SCF
     64  -6.26586956E+004  2.92804222E+000  -7.13781385E-009   18603.44  <-- SCF
     65  -6.26586956E+004  2.92804222E+000  -6.37276748E-009   18839.41  <-- SCF
     66  -6.26586956E+004  2.92804222E+000  -4.33689956E-009   19078.26  <-- SCF
     67  -6.26586956E+004  2.92804222E+000   1.40674251E-009   19312.30  <-- SCF
     68  -6.26586956E+004  2.92804222E+000   1.84966409E-009   19551.21  <-- SCF
     69  -6.26586956E+004  2.92804222E+000  -1.75518725E-009   19795.02  <-- SCF
     70  -6.26586956E+004  2.92804222E+000  -1.49326444E-008   20039.06  <-- SCF
     71  -6.26586956E+004  2.92804223E+000  -6.71905163E-009   20279.62  <-- SCF
     72  -6.26586956E+004  2.92804223E+000  -1.78013228E-009   20516.00  <-- SCF
     73  -6.26586956E+004  2.92804222E+000   5.36102067E-009   20754.75  <-- SCF
     74  -6.26586956E+004  2.92804222E+000   2.47093281E-009   20991.95  <-- SCF
     75  -6.26586956E+004  2.92804223E+000  -1.28282268E-008   21233.31  <-- SCF
     76  -6.26586956E+004  2.92804223E+000  -2.41564127E-008   21465.84  <-- SCF
     77  -6.26586956E+004  2.92804215E+000  -9.36603349E-008   21703.22  <-- SCF
     78  -6.26586956E+004  2.92804217E+000  -4.39386065E-010   21938.41  <-- SCF
     79  -6.26586956E+004  2.92804218E+000   1.68946593E-008   22177.82  <-- SCF
     80  -6.26586956E+004  2.92804220E+000   1.50414597E-008   22417.00  <-- SCF
     81  -6.26586956E+004  2.92804222E+000   1.17477338E-008   22658.70  <-- SCF
     82  -6.26586956E+004  2.92804223E+000  -8.50468360E-009   22895.06  <-- SCF
     83  -6.26586956E+004  2.92804223E+000   9.44375592E-009   23137.99  <-- SCF
     84  -6.26586956E+004  2.92804223E+000   7.47408070E-009   23392.50  <-- SCF
     85  -6.26586956E+004  2.92804223E+000   2.43557765E-009   23635.11  <-- SCF
     86  -6.26586956E+004  2.92804223E+000  -2.84518681E-008   23874.27  <-- SCF
     87  -6.26586956E+004  2.92804223E+000  -5.34020041E-009   24112.18  <-- SCF
     88  -6.26586956E+004  2.92804223E+000   1.30623565E-008   24349.31  <-- SCF
     89  -6.26586956E+004  2.92804223E+000  -2.85591121E-009   24587.02  <-- SCF
     90  -6.26586956E+004  2.92804222E+000  -5.61852408E-009   24830.79  <-- SCF
     91  -6.26586956E+004  2.92804222E+000  -5.69493051E-009   25065.20  <-- SCF
     92  -6.26586956E+004  2.92804222E+000   8.76454402E-009   25306.55  <-- SCF
     93  -6.26586956E+004  2.92804222E+000  -3.53590878E-009   25544.94  <-- SCF
     94  -6.26586956E+004  2.92804222E+000  -1.65776414E-009   25792.94  <-- SCF
     95  -6.26586956E+004  2.92804222E+000  -5.02927143E-009   26032.15  <-- SCF
     96  -6.26586956E+004  2.92804222E+000  -4.02813116E-009   26272.52  <-- SCF
     97  -6.26586956E+004  2.92804222E+000  -9.19980532E-009   26507.84  <-- SCF
     98  -6.26586956E+004  2.92804223E+000  -2.12464866E-008   26752.31  <-- SCF
     99  -6.26586956E+004  2.92804224E+000  -1.66326383E-008   26996.11  <-- SCF
    100  -6.26586956E+004  2.92804224E+000  -9.96131617E-009   27233.28  <-- SCF
------------------------------------------------------------------------ <-- SCF
 *Warning* max. SCF cycles performed but system has not reached the groundstate.
  
Current total energy, E     =  -62658.42899911     eV
Current free energy (E-TS)  =  -62658.69555698     eV
(energies not corrected for finite basis set)
 
NB est. 0K energy (E-0.5TS)      =  -62658.56227804     eV
 
  ****************************************************************************
  Warning: electronic minimisation did not converge when finding ground state.
  ****************************************************************************
  Writing checkpoint file...
 
Overall parallel efficiency rating: Terrible (29%)
 
Data was distributed by:-
G-vector (3-way); efficiency rating: Terrible (32%)
k-point (36-way); efficiency rating: Good (76%)
