 +-------------------------------------------------+
 |                                                 |
 |      CCC   AA    SSS  TTTTT  EEEEE  PPPP        |
 |     C     A  A  S       T    E      P   P       |
 |     C     AAAA   SS     T    EEE    PPPP        |
 |     C     A  A     S    T    E      P           |
 |      CCC  A  A  SSS     T    EEEEE  P           |
 |                                                 |
 +-------------------------------------------------+
 |                                                 |
 | Welcome to Academic Release CASTEP version 24.1 |
 | Ab Initio Total Energy Program                  |
 |                                                 |
 | Authors:                                        |
 | M. Segall, M. Probert, C. Pickard, P. Hasnip,   |
 | S. Clark, K. Refson, J. R. Yates,               |
 | A. Bartok-Partay, M. Payne                      |
 |                                                 |
 | Contributors:                                   |
 | P. Lindan, P. Haynes, J. White, V. Milman,      |
 | N. Govind, M. Gibson, P. Tulip, V. Cocula,      |
 | B. Montanari, D. Quigley, M. Glover,            |
 | L. Bernasconi, A. Perlov, M. Plummer,           |
 | E. McNellis, J. Meyer, J. Gale, D. Jochym       |
 | J. Aarons, B. Walker, R. Gillen, D. Jones       |
 | T. Green, I. J. Bush, C. J. Armstrong,          |
 | E. J. Higgins, E. L. Brown, M. S. McFly,        |
 | J. Wilkins, B-C. Shih, P. J. P. Byrne,          |
 | R. J. Maurer, J. C. Womack, J. Dziedzic,        |
 | L. LeBlanc, T. K. Stenczel, J. Kermode,         |
 | S. Sturniolo, B. Shi, B. Durham, M. Evans,      |
 | M. J. Smith, A. Tamerus, Z. Hawkhead,           |
 | V. Ravindran, T. Hollins, S. A. Joyce,          |
 | R. T. Strong, A. M. Reilly, S. J. Donaldson     |
 |                                                 |
 | Copyright (c) 2000 - 2023                       |
 |                                                 |
 |     Distributed under license from Cambridge    |
 |     Enterprise for academic use only.           |
 |                                                 |
 | Please cite                                     |
 |                                                 |
 |     "First principles methods using CASTEP"     |
 |                                                 |
 |         Zeitschrift fuer Kristallographie       |
 |           220(5-6) pp. 567-570 (2005)           |
 |                                                 |
 | S. J. Clark, M. D. Segall, C. J. Pickard,       |
 | P. J. Hasnip, M. J. Probert, K. Refson,         |
 | M. C. Payne                                     |
 |                                                 |
 |       in all publications arising from          |
 |              your use of CASTEP                 |
 |                                                 |
 +-------------------------------------------------+
 |                                                 |
 |              http://www.castep.org              |
 |                                                 |
 +-------------------------------------------------+



 Compiled for  GNU 11.2.0 on 04-04-2024 18:39:17
 from code version 6355fd106 Castep241_branch Thu Mar 7 17:56:19 2024 +0000
 Compiler: GNU Fortran 11.2.0; Optimisation: FAST
 Comms   : MPI VERSION : CRAY MPICH version 8.1.23.14 (ANL base 3.4a2)
 MATHLIBS: default (LAPACK version 3.10.1)
 FFT Lib : fftw3 version commercial-fftw-3.3.10-sse2-avx-avx2-avx2_128
 Fundamental constants values: CODATA 2018

 Run started: Sun, 27 Apr 2025 02:54:20 +0100

 Atomic calculation performed for P: 1s2 2s2 2p6 3s2 3p3

 Converged in 47 iterations to an ae energy of -9309.074 eV

   ============================================================                
   | Pseudopotential Report - Date of generation 27-04-2025   |                
   ------------------------------------------------------------                
   | Element: P Ionic charge:  5.00 Level of theory: RSCAN    |                
   | Atomic Solver: Koelling-Harmon                           |                
   |                                                          |                
   |               Reference Electronic Structure             |                
   |         Orbital         Occupation         Energy        |                
   |            3s              2.000           -0.535        |                
   |            3p              3.000           -0.209        |                
   |                                                          |                
   |                 Pseudopotential Definition               |                
   |        Beta     l      e      Rc     scheme   norm       |                
   |          1      0   -0.535   1.807     qc      0         |                
   |          2      0    0.250   1.807     qc      0         |                
   |          3      1   -0.209   1.807     qc      0         |                
   |          4      1    0.250   1.807     qc      0         |                
   |          5      2    0.000   1.807     qc      0         |                
   |          6      2    0.250   1.807     qc      0         |                
   |         loc     3    0.000   1.807     pn      0         |                
   |                                                          |                
   | Augmentation charge Rinner = 1.263                       |                
   | Partial core correction Rc = 1.263                       |                
   ------------------------------------------------------------                
   | "3|1.8|4|4|5|30:31:32"                                   |                
   ------------------------------------------------------------                
   |      Author: Chris J. Pickard, Cambridge University      |                
   ============================================================                
 Warning: otfg_output_psp cannot write out meta-GGA pseudopotentials presently.

 Atomic calculation performed for In:
 1s2 2s2 2p6 3s2 3p6 3d10 4s2 4p6 4d10 5s2 5p1

 Converged in 84 iterations to an ae energy of -160093.328 eV

   ============================================================                
   | Pseudopotential Report - Date of generation 27-04-2025   |                
   ------------------------------------------------------------                
   | Element: In Ionic charge: 13.00 Level of theory: RSCAN   |                
   | Atomic Solver: Koelling-Harmon                           |                
   |                                                          |                
   |               Reference Electronic Structure             |                
   |         Orbital         Occupation         Energy        |                
   |            4d             10.000           -0.711        |                
   |            5s              2.000           -0.313        |                
   |            5p              1.000           -0.095        |                
   |                                                          |                
   |                 Pseudopotential Definition               |                
   |        Beta     l      e      Rc     scheme   norm       |                
   |          1      0   -0.313   2.501     qc      0         |                
   |          2      0    0.250   2.501     qc      0         |                
   |          3      1   -0.095   2.501     qc      0         |                
   |          4      1    0.250   2.501     qc      0         |                
   |          5      2   -0.711   2.207     qc      0         |                
   |          6      2    0.250   2.207     qc      0         |                
   |         loc     3    0.000   2.501     pn      0         |                
   |                                                          |                
   | Augmentation charge Rinner = 1.504                       |                
   | Partial core correction Rc = 1.504                       |                
   ------------------------------------------------------------                
   | "3|2.5|2.5|1.5|7|8|9|50:51:42U2.2U2.2"                   |                
   ------------------------------------------------------------                
   |      Author: Chris J. Pickard, Cambridge University      |                
   ============================================================                
 Warning: otfg_output_psp cannot write out meta-GGA pseudopotentials presently.

 Pseudo atomic calculation performed for P 3s2 3p3

 Converged in 23 iterations to a total energy of -208.0292 eV

 Pseudo atomic calculation performed for In 4d10 5s2 5p1

 Converged in 42 iterations to a total energy of -1747.4501 eV
 Calculation parallelised over 108 processes.
 Data is distributed by G-vector(3-way) and k-point(36-way)
 Each process may use up to 16 threads.

 ************************************ Title ************************************
 

 ***************************** General Parameters ******************************
  
 output verbosity                               : normal  (1)
 write checkpoint data to                       : P_Vacancy_Migration_5->3_Singlepoints_7.check
 type of calculation                            : single point energy
 stress calculation                             : off
 density difference calculation                 : off
 electron localisation func (ELF) calculation   : off
 Hirshfeld analysis                             : on
 polarisation (Berry phase) analysis            : off
 molecular orbital projected DOS                : off
 deltaSCF calculation                           : off
 unlimited duration calculation
 timing information                             : on
 memory usage estimate                          : on
 write extra output files                       : on
 write final potential to formatted file        : off
 write final density to formatted file          : off
 write BibTeX reference list                    : on
 write OTFG pseudopotential files               : on
 write electrostatic potential file             : on
 write bands file                               : on
 checkpoint writing                             : off
  
 output         length unit                     : A
 output           mass unit                     : amu
 output           time unit                     : ps
 output         charge unit                     : e
 output           spin unit                     : hbar/2
 output         energy unit                     : eV
 output          force unit                     : eV/A
 output       velocity unit                     : A/ps
 output       pressure unit                     : GPa
 output     inv_length unit                     : 1/A
 output      frequency unit                     : cm-1
 output force constant unit                     : eV/A**2
 output         volume unit                     : A**3
 output   IR intensity unit                     : (D/A)**2/amu
 output         dipole unit                     : D
 output         efield unit                     : eV/A/e
 output        entropy unit                     : J/mol/K
 output    efield chi2 unit                     : pm/V
  
 wavefunctions paging                           : none
 random number generator seed                   :   25420834
 data distribution                              : optimal for this architecture
 optimization strategy                          : balance speed and memory

 *********************** Exchange-Correlation Parameters ***********************
  
 using functional                               : RSCAN
 relativistic treatment                         : Koelling-Harmon
 DFT+D: Semi-empirical dispersion correction    : off

 ************************* Pseudopotential Parameters **************************
  
 pseudopotential representation                 : reciprocal space
 <beta|phi> representation                      : reciprocal space
 spin-orbit coupling                            : off

 **************************** Basis Set Parameters *****************************
  
 plane wave basis set cut-off                   :   900.0000   eV
 size of standard grid                          :     2.0000
 size of   fine   gmax                          :    30.7390   1/A
 finite basis set correction                    : none

 **************************** Electronic Parameters ****************************
  
 number of  electrons                           :  571.0    
 net charge of system                           :  0.000    
 net spin   of system                           :  1.000    
 number of  up  spins                           :  286.0    
 number of down spins                           :  285.0    
 treating system as spin-polarized
 number of bands                                :        343

 ********************* Electronic Minimization Parameters **********************
  
 Method: Treating system as metallic with density mixing treatment of electrons,
         and number of  SD  steps               :          1
         and number of  CG  steps               :          4
  
 total energy / atom convergence tol.           : 0.1000E-07   eV
 eigen-energy convergence tolerance             : 0.2203E-08   eV
 max force / atom convergence tol.              : ignored
 convergence tolerance window                   :          3   cycles
 max. number of SCF cycles                      :        100
 number of fixed-spin iterations                :         10
 smearing scheme                                : Gaussian
 smearing width                                 : 0.2000       eV
 Fermi energy convergence tolerance             : 0.2721E-13   eV
 periodic dipole correction                     : NONE

 ************************** Density Mixing Parameters **************************
  
 density-mixing scheme                          : Pulay
 max. length of mixing history                  :         20
 charge density mixing amplitude                : 0.5000    
   spin density mixing amplitude                :  2.000    
 cut-off energy for mixing                      :  900.0       eV

 *********************** Population Analysis Parameters ************************
  
 Population analysis with cutoff                :  3.000       A
 Population analysis output                     : summary and pdos components

 *******************************************************************************
  

                           -------------------------------
                                      Unit Cell
                           -------------------------------
        Real Lattice(A)                      Reciprocal Lattice(1/A)
    11.8016820    -0.0000080    -0.0000080        0.532397442   0.000000361   0.000000361
    -0.0000080    11.8016820    -0.0000080        0.000000361   0.532397442   0.000000361
    -0.0000080    -0.0000080    11.8016820        0.000000361   0.000000361   0.532397442

                       Lattice parameters(A)       Cell Angles
                    a =     11.801682          alpha =   90.000078
                    b =     11.801682          beta  =   90.000078
                    c =     11.801682          gamma =   90.000078

                       Current cell volume =          1643.734705       A**3
                                   density =             2.819410   AMU/A**3
                                           =             4.681741     g/cm^3

                           -------------------------------
                                     Cell Contents
                           -------------------------------
                         Total number of ions in cell =   63
                      Total number of species in cell =    2
                        Max number of any one species =   32

            xxxxxxxxxxxxxxxxxxxxxxxxxxxxxxxxxxxxxxxxxxxxxxxxxxxxxxxxxxxx
            x  Element    Atom        Fractional coordinates of atoms  x
            x            Number           u          v          w      x
            x----------------------------------------------------------x
            x  P            1         0.127399   0.103570   0.358108   x 
            x  P            2         0.358108   0.103570   0.127399   x 
            x  P            3         0.126381   0.373908   0.126381   x 
            x  P            4         0.125677   0.125377   0.876687   x 
            x  P            5         0.372509   0.124855   0.627463   x 
            x  P            6         0.121886   0.374090   0.625887   x 
            x  P            7         0.375556   0.376613   0.874678   x 
            x  P            8         0.125446   0.628988   0.377056   x 
            x  P            9         0.377056   0.628988   0.125446   x 
            x  P           10         0.136966   0.886429   0.136966   x 
            x  P           11         0.364400   0.894178   0.364400   x 
            x  P           12         0.125693   0.626042   0.876437   x 
            x  P           13         0.371813   0.631243   0.624448   x 
            x  P           14         0.124307   0.877501   0.625338   x 
            x  P           15         0.375649   0.871624   0.876484   x 
            x  P           16         0.627463   0.124855   0.372509   x 
            x  P           17         0.876687   0.125377   0.125677   x 
            x  P           18         0.625887   0.374091   0.121886   x 
            x  P           19         0.874678   0.376613   0.375556   x 
            x  P           20         0.624827   0.126133   0.873970   x 
            x  P           21         0.873970   0.126133   0.624827   x 
            x  P           22         0.626186   0.379335   0.626186   x 
            x  P           23         0.876427   0.375524   0.876427   x 
            x  P           24         0.624448   0.631243   0.371813   x 
            x  P           25         0.876437   0.626042   0.125693   x 
            x  P           26         0.625338   0.877501   0.124307   x 
            x  P           27         0.876484   0.871624   0.375649   x 
            x  P           28         0.626436   0.626802   0.875047   x 
            x  P           29         0.875047   0.626802   0.626436   x 
            x  P           30         0.624234   0.876796   0.624234   x 
            x  P           31         0.877615   0.877202   0.877615   x 
            x  In           1         0.007020  -0.001369   0.007020   x 
            x  In           2         0.382752   0.345883   0.382752   x 
            x  In           3         0.003060   0.247278   0.254923   x 
            x  In           4         0.254923   0.247278   0.003060   x 
            x  In           5        -0.000733   0.001250   0.497071   x 
            x  In           6         0.250914  -0.002599   0.754473   x 
            x  In           7        -0.000847   0.249002   0.752706   x 
            x  In           8         0.220748   0.222276   0.506045   x 
            x  In           9         0.001651   0.499986   0.001651   x 
            x  In          10         0.247722   0.506660   0.247722   x 
            x  In          11         0.005864   0.754967   0.246151   x 
            x  In          12         0.246151   0.754967   0.005864   x 
            x  In          13        -0.000473   0.502445   0.500103   x 
            x  In          14         0.249866   0.501189   0.749074   x 
            x  In          15         0.001243   0.751834   0.751134   x 
            x  In          16         0.253417   0.762114   0.493211   x 
            x  In          17         0.497071   0.001250  -0.000733   x 
            x  In          18         0.754473  -0.002599   0.250914   x 
            x  In          19         0.506045   0.222277   0.220748   x 
            x  In          20         0.752706   0.249002  -0.000847   x 
            x  In          21         0.497008   0.001865   0.497008   x 
            x  In          22         0.750685  -0.000544   0.750685   x 
            x  In          23         0.499889   0.252379   0.748687   x 
            x  In          24         0.748687   0.252379   0.499889   x 
            x  In          25         0.500103   0.502445  -0.000473   x 
            x  In          26         0.749074   0.501189   0.249866   x 
            x  In          27         0.493211   0.762114   0.253417   x 
            x  In          28         0.751134   0.751834   0.001243   x 
            x  In          29         0.503189   0.511142   0.503189   x 
            x  In          30         0.752320   0.500901   0.752320   x 
            x  In          31         0.500451   0.751076   0.749666   x 
            x  In          32         0.749666   0.751076   0.500451   x 
            xxxxxxxxxxxxxxxxxxxxxxxxxxxxxxxxxxxxxxxxxxxxxxxxxxxxxxxxxxxx


                         No user defined ionic velocities

                           -------------------------------
                                   Details of Species
                           -------------------------------

                               Mass of species in AMU
                                    P   30.9737600
                                    In  114.8180000

                          Electric Quadrupole Moment (Barn)
                                    P    1.0000000 No Isotope Defined
                                    In    0.7700000 Isotope115

                          Files used for pseudopotentials:
                                    P 3|1.8|4|4|5|30:31:32
                                    In 3|2.5|2.5|1.5|7|8|9|50:51:42U2.2U2.2

                           -------------------------------
                              k-Points For BZ Sampling
                           -------------------------------
                       MP grid size for SCF calculation is  4  4  4
                            with an offset of   0.125  0.125  0.125
                       Number of kpoints used =            36

                           -------------------------------
                               Symmetry and Constraints
                           -------------------------------

                      Maximum deviation from symmetry =  0.00000         ANG

                      Number of symmetry operations   =           1
                      Number of ionic constraints     =           3
                      Point group of crystal =     1: C1, 1, 1
                      Space group of crystal =     8: Cm, C -2y

             Set iprint > 1 for details on symmetry rotations/translations

                         Centre of mass is constrained
             Set iprint > 1 for details of linear ionic constraints

                         Number of cell constraints= 0
                         Cell constraints are:  1 2 3 4 5 6

                         External pressure/stress (GPa)
                          0.00000   0.00000   0.00000
                                    0.00000   0.00000
                                              0.00000
 
+---------------- MEMORY AND SCRATCH DISK ESTIMATES PER PROCESS --------------+
|                                                     Memory          Disk    |
| Baseline code, static data and system overhead      368.0 MB         0.0 MB |
| BLAS internal memory storage                          0.0 MB         0.0 MB |
| Model and support data                             4302.1 MB         0.0 MB |
| Electronic energy minimisation requirements        1320.9 MB         0.0 MB |
| Force calculation requirements                      127.4 MB         0.0 MB |
|                                               ----------------------------- |
| Approx. total storage required per process         5991.0 MB         0.0 MB |
|                                                                             |
| Requirements will fluctuate during execution and may exceed these estimates |
+-----------------------------------------------------------------------------+
Calculating approximate eigenstates for fixed initial Hamiltonian
Cut-off for approx. calculation is   89.988 eV
Improving approx. states at cut-off of  450.000 eV
Resetting cut-off to  900.000 eV
Calculating total energy with cut-off of  900.000 eV.
------------------------------------------------------------------------ <-- SCF
SCF loop      Energy           Fermi           Energy gain       Timer   <-- SCF
                               energy          per atom          (sec)   <-- SCF
------------------------------------------------------------------------ <-- SCF
Initial  -6.28305711E+004  0.00000000E+000                       438.04  <-- SCF
      1  -6.25831914E+004  2.51105994E+000  -3.92666185E+000     878.50  <-- SCF
      2  -6.25835037E+004  2.51085742E+000   4.95671632E-003    1188.01  <-- SCF
      3  -6.26505095E+004  2.58846034E+000   1.06358479E+000    1556.80  <-- SCF
      4  -6.26626240E+004  2.63249889E+000   1.92293880E-001    2038.62  <-- SCF
      5  -6.26703269E+004  2.73256275E+000   1.22268244E-001    2391.00  <-- SCF
      6  -6.26587990E+004  2.87837522E+000  -1.82982418E-001    2729.25  <-- SCF
      7  -6.26574705E+004  2.91974992E+000  -2.10877184E-002    3077.11  <-- SCF
      8  -6.26572962E+004  2.94259892E+000  -2.76629940E-003    3441.84  <-- SCF
      9  -6.26579658E+004  2.94381304E+000   1.06280936E-002    3791.75  <-- SCF
     10  -6.26585754E+004  2.95119654E+000   9.67645639E-003    4144.81  <-- SCF
     11  -6.26586583E+004  2.94784111E+000   1.31612713E-003    4496.74  <-- SCF
     12  -6.26586798E+004  2.94629663E+000   3.41575869E-004    4854.44  <-- SCF
     13  -6.26586937E+004  2.94314063E+000   2.19325255E-004    5216.53  <-- SCF
     14  -6.26586944E+004  2.94210576E+000   1.24887866E-005    5597.15  <-- SCF
     15  -6.26586948E+004  2.94101622E+000   5.55638661E-006    5966.96  <-- SCF
     16  -6.26586949E+004  2.94061858E+000   2.47908060E-006    6306.67  <-- SCF
     17  -6.26586953E+004  2.93952074E+000   6.38370362E-006    6659.06  <-- SCF
     18  -6.26586957E+004  2.93853244E+000   5.82126510E-006    7024.84  <-- SCF
     19  -6.26586960E+004  2.93755179E+000   5.03167735E-006    7395.04  <-- SCF
     20  -6.26586963E+004  2.93634567E+000   3.93898234E-006    7767.91  <-- SCF
     21  -6.26586963E+004  2.93587926E+000   6.58779364E-007    8122.86  <-- SCF
     22  -6.26586963E+004  2.93568483E+000   1.19560346E-007    8445.69  <-- SCF
     23  -6.26586963E+004  2.93563123E+000   2.52553689E-008    8715.98  <-- SCF
     24  -6.26586963E+004  2.93554395E+000   9.86291097E-009    8979.65  <-- SCF
     25  -6.26586963E+004  2.93554317E+000   8.97569289E-009    9230.04  <-- SCF
     26  -6.26586963E+004  2.93554034E+000  -2.82367909E-008    9464.28  <-- SCF
     27  -6.26586963E+004  2.93553833E+000   2.96581076E-007    9709.84  <-- SCF
     28  -6.26586961E+004  2.93552559E+000  -4.20664761E-006    9956.00  <-- SCF
     29  -6.26586967E+004  2.93551036E+000   1.02954654E-005   10202.01  <-- SCF
     30  -6.26586963E+004  2.93550844E+000  -6.75478116E-006   10445.30  <-- SCF
     31  -6.26586961E+004  2.93550329E+000  -3.38227411E-006   10684.11  <-- SCF
     32  -6.26586965E+004  2.93549981E+000   6.92589954E-006   10930.67  <-- SCF
     33  -6.26586962E+004  2.93549790E+000  -5.22411921E-006   11172.53  <-- SCF
     34  -6.26586964E+004  2.93549626E+000   3.59269427E-006   11419.06  <-- SCF
     35  -6.26586964E+004  2.93549552E+000  -9.59635468E-007   11655.62  <-- SCF
     36  -6.26586964E+004  2.93549502E+000   9.74240880E-008   11896.73  <-- SCF
     37  -6.26586964E+004  2.93549418E+000  -2.27592553E-007   12132.61  <-- SCF
     38  -6.26586963E+004  2.93549321E+000  -1.88400573E-007   12373.53  <-- SCF
     39  -6.26586963E+004  2.93549279E+000  -3.85734021E-007   12610.04  <-- SCF
     40  -6.26586963E+004  2.93549248E+000  -2.20156578E-008   12848.17  <-- SCF
     41  -6.26586963E+004  2.93549241E+000   2.26605555E-007   13091.20  <-- SCF
     42  -6.26586963E+004  2.93549248E+000   7.63402351E-008   13335.58  <-- SCF
     43  -6.26586963E+004  2.93549254E+000   3.63667098E-009   13572.30  <-- SCF
     44  -6.26586963E+004  2.93549258E+000  -1.72834286E-007   13818.06  <-- SCF
     45  -6.26586963E+004  2.93549260E+000  -1.44700811E-009   14062.59  <-- SCF
     46  -6.26586963E+004  2.93549266E+000  -3.32466170E-008   14300.31  <-- SCF
     47  -6.26586963E+004  2.93549270E+000   1.69337464E-008   14542.87  <-- SCF
     48  -6.26586963E+004  2.93549273E+000   8.88985842E-010   14784.85  <-- SCF
     49  -6.26586963E+004  2.93549275E+000   1.83919503E-008   15024.45  <-- SCF
     50  -6.26586963E+004  2.93549275E+000  -3.36948418E-008   15261.29  <-- SCF
     51  -6.26586963E+004  2.93549277E+000  -4.54971797E-008   15500.59  <-- SCF
     52  -6.26586963E+004  2.93549279E+000  -4.34469733E-008   15745.22  <-- SCF
     53  -6.26586963E+004  2.93549281E+000  -6.47117268E-009   15987.54  <-- SCF
     54  -6.26586963E+004  2.93549280E+000  -8.15152484E-009   16233.73  <-- SCF
     55  -6.26586963E+004  2.93549281E+000   3.22655113E-009   16478.07  <-- SCF
     56  -6.26586963E+004  2.93549282E+000   8.02071075E-009   16725.67  <-- SCF
     57  -6.26586963E+004  2.93549282E+000   1.12232989E-008   16976.72  <-- SCF
     58  -6.26586963E+004  2.93549282E+000  -1.47372090E-009   17226.68  <-- SCF
     59  -6.26586963E+004  2.93549282E+000   1.27474991E-009   17467.28  <-- SCF
     60  -6.26586963E+004  2.93549283E+000   1.67937007E-010   17697.45  <-- SCF
     61  -6.26586963E+004  2.93549282E+000   1.62826223E-008   17933.77  <-- SCF
     62  -6.26586963E+004  2.93549282E+000   5.88938389E-009   18171.09  <-- SCF
     63  -6.26586963E+004  2.93549283E+000   2.43754182E-009   18408.79  <-- SCF
     64  -6.26586963E+004  2.93549282E+000   4.28936651E-009   18645.62  <-- SCF
     65  -6.26586963E+004  2.93549284E+000   4.30853686E-008   18883.78  <-- SCF
     66  -6.26586963E+004  2.93549284E+000   1.73199033E-008   19127.82  <-- SCF
     67  -6.26586963E+004  2.93549284E+000   2.60288612E-008   19363.56  <-- SCF
     68  -6.26586963E+004  2.93549284E+000   1.30751236E-008   19602.83  <-- SCF
     69  -6.26586963E+004  2.93549284E+000   5.10057100E-009   19841.64  <-- SCF
     70  -6.26586963E+004  2.93549285E+000  -1.53572992E-008   20082.63  <-- SCF
     71  -6.26586963E+004  2.93549284E+000   1.46608025E-008   20314.92  <-- SCF
     72  -6.26586963E+004  2.93549284E+000  -5.81494164E-009   20549.85  <-- SCF
     73  -6.26586963E+004  2.93549284E+000   2.16275367E-009   20788.18  <-- SCF
     74  -6.26586963E+004  2.93549284E+000  -2.39020519E-009   21024.42  <-- SCF
     75  -6.26586963E+004  2.93549284E+000   2.92583586E-009   21259.52  <-- SCF
     76  -6.26586963E+004  2.93549284E+000   4.27974205E-009   21495.86  <-- SCF
     77  -6.26586963E+004  2.93549284E+000   1.93667707E-009   21733.30  <-- SCF
     78  -6.26586963E+004  2.93549285E+000   3.10339733E-010   21969.17  <-- SCF
     79  -6.26586963E+004  2.93549285E+000  -5.34805711E-009   22208.21  <-- SCF
     80  -6.26586963E+004  2.93549284E+000   6.00310965E-009   22448.20  <-- SCF
     81  -6.26586963E+004  2.93549283E+000  -6.14453029E-009   22686.66  <-- SCF
     82  -6.26586963E+004  2.93549283E+000  -1.44916870E-009   22928.92  <-- SCF
     83  -6.26586963E+004  2.93549283E+000  -2.30299580E-009   23168.72  <-- SCF
     84  -6.26586963E+004  2.93549284E+000  -9.90710492E-009   23405.91  <-- SCF
     85  -6.26586963E+004  2.93549284E+000   3.68106135E-009   23646.95  <-- SCF
     86  -6.26586963E+004  2.93549284E+000  -1.22116721E-008   23885.33  <-- SCF
     87  -6.26586963E+004  2.93549285E+000  -5.57865132E-009   24133.25  <-- SCF
     88  -6.26586963E+004  2.93549284E+000  -2.86200015E-009   24375.93  <-- SCF
     89  -6.26586963E+004  2.93549285E+000   1.42112027E-008   24613.97  <-- SCF
     90  -6.26586963E+004  2.93549287E+000   1.40615326E-009   24851.60  <-- SCF
     91  -6.26586963E+004  2.93549287E+000   7.24211157E-009   25104.47  <-- SCF
     92  -6.26586963E+004  2.93549288E+000   3.96154561E-009   25338.05  <-- SCF
     93  -6.26586963E+004  2.93549288E+000   2.07829412E-009   25578.66  <-- SCF
     94  -6.26586963E+004  2.93549288E+000   2.86023240E-009   25812.83  <-- SCF
     95  -6.26586963E+004  2.93549287E+000   6.57448831E-009   26048.98  <-- SCF
     96  -6.26586963E+004  2.93549287E+000   1.44641886E-009   26289.71  <-- SCF
     97  -6.26586963E+004  2.93549289E+000  -5.11530231E-009   26528.87  <-- SCF
     98  -6.26586963E+004  2.93549289E+000  -1.89975057E-009   26775.25  <-- SCF
     99  -6.26586963E+004  2.93549289E+000   4.08450300E-009   27021.29  <-- SCF
    100  -6.26586963E+004  2.93549289E+000   1.42756277E-009   27257.87  <-- SCF
------------------------------------------------------------------------ <-- SCF
 
Integrated Spin Density     =     1.06831     hbar/2
Integrated |Spin Density|   =     1.44533     hbar/2
 
Final energy, E             =  -62658.43275983     eV
Final free energy (E-TS)    =  -62658.69633017     eV
(energies not corrected for finite basis set)
 
NB est. 0K energy (E-0.5TS)      =  -62658.56454500     eV
 

 ************************** Forces **************************
 *                                                          *
 *               Cartesian components (eV/A)                *
 * -------------------------------------------------------- *
 *                         x            y            z      *
 *                                                          *
 * P               1      0.23120      0.13370     -0.09297 *
 * P               2     -0.09296      0.13370      0.23120 *
 * P               3      0.09774     -0.09010      0.09774 *
 * P               4      0.02374      0.07721     -0.04313 *
 * P               5      0.16830      0.10458     -0.12284 *
 * P               6      0.19663      0.13570     -0.13837 *
 * P               7     -0.06863      0.04293      0.02221 *
 * P               8      0.11927     -0.19064      0.10962 *
 * P               9      0.10962     -0.19063      0.11926 *
 * P              10     -0.00584     -0.10156     -0.00584 *
 * P              11      0.03516     -0.13573      0.03516 *
 * P              12      0.04122     -0.05979     -0.02884 *
 * P              13     -0.07811     -0.15373     -0.09773 *
 * P              14      0.01534     -0.02888     -0.00045 *
 * P              15      0.00054      0.01525     -0.01513 *
 * P              16     -0.12284      0.10458      0.16830 *
 * P              17     -0.04313      0.07721      0.02374 *
 * P              18     -0.13837      0.13570      0.19663 *
 * P              19      0.02221      0.04293     -0.06862 *
 * P              20     -0.02426     -0.02195     -0.04855 *
 * P              21     -0.04856     -0.02195     -0.02426 *
 * P              22     -0.13857     -0.13410     -0.13856 *
 * P              23      0.02106      0.02785      0.02106 *
 * P              24     -0.09774     -0.15373     -0.07812 *
 * P              25     -0.02883     -0.05978      0.04122 *
 * P              26     -0.00044     -0.02888      0.01534 *
 * P              27     -0.01513      0.01525      0.00053 *
 * P              28     -0.01781     -0.01785      0.00840 *
 * P              29      0.00840     -0.01785     -0.01781 *
 * P              30     -0.00592      0.03679     -0.00592 *
 * P              31     -0.02521      0.01451     -0.02521 *
 * In              1      0.00614     -0.20486      0.00614 *
 * In              2     -0.06954      0.29011     -0.06954 *
 * In              3     -0.02917     -0.09525      0.11043 *
 * In              4      0.11043     -0.09525     -0.02917 *
 * In              5      0.02775      0.13094      0.16940 *
 * In              6     -0.22759     -0.01144     -0.01377 *
 * In              7     -0.04874     -0.21547     -0.00588 *
 * In              8     -0.31233     -0.21775      0.23261 *
 * In              9     -0.00797      0.18007     -0.00797 *
 * In             10     -0.28093      0.24318     -0.28092 *
 * In             11      0.05475      0.11616     -0.31343 *
 * In             12     -0.31343      0.11616      0.05476 *
 * In             13     -0.05568     -0.05081     -0.04119 *
 * In             14      0.03194     -0.02575      0.07602 *
 * In             15     -0.02211      0.05215      0.05490 *
 * In             16      0.14126      0.12074     -0.03139 *
 * In             17      0.16940      0.13094      0.02775 *
 * In             18     -0.01377     -0.01144     -0.22759 *
 * In             19      0.23260     -0.21775     -0.31233 *
 * In             20     -0.00588     -0.21547     -0.04874 *
 * In             21     -0.17350     -0.31415     -0.17350 *
 * In             22      0.04742      0.02963      0.04742 *
 * In             23     -0.02551     -0.00167      0.13154 *
 * In             24      0.13155     -0.00167     -0.02552 *
 * In             25     -0.04119     -0.05081     -0.05568 *
 * In             26      0.07601     -0.02575      0.03195 *
 * In             27     -0.03140      0.12074      0.14127 *
 * In             28      0.05490      0.05215     -0.02211 *
 * In             29      0.27776      0.28350      0.27775 *
 * In             30      0.02825      0.16267      0.02825 *
 * In             31      0.13791      0.01769     -0.00743 *
 * In             32     -0.00743      0.01769      0.13792 *
 *                                                          *
 ************************************************************

 Pseudo atomic calculation performed for P 3s2 3p3

 Converged in 23 iterations to a total energy of -208.0292 eV

 Pseudo atomic calculation performed for In 4d10 5s2 5p1

 Converged in 42 iterations to a total energy of -1747.4501 eV
Charge spilling parameter for spin component 1 = 0.17%
Charge spilling parameter for spin component 2 = 0.17%

                   Orbital Populations                  
  ---------------------------------------------------------------
     Ion    Atom   Orbital              Up        Down      Spin
  ---------------------------------------------------------------
      P     1      S                    0.914     0.914     0.000
      P     1      Px                   0.622     0.613     0.009
      P     1      Py                   0.616     0.598     0.018
      P     1      Pz                   0.610     0.612    -0.002
      P     2      S                    0.914     0.914     0.000
      P     2      Px                   0.610     0.612    -0.002
      P     2      Py                   0.616     0.598     0.018
      P     2      Pz                   0.622     0.613     0.009
      P     3      S                    0.875     0.872     0.003
      P     3      Px                   0.651     0.640     0.012
      P     3      Py                   0.662     0.658     0.004
      P     3      Pz                   0.651     0.640     0.012
      P     4      S                    0.869     0.869     0.000
      P     4      Px                   0.654     0.655    -0.000
      P     4      Py                   0.655     0.655    -0.000
      P     4      Pz                   0.654     0.655    -0.001
      P     5      S                    0.874     0.872     0.002
      P     5      Px                   0.654     0.653     0.001
      P     5      Py                   0.654     0.646     0.008
      P     5      Pz                   0.651     0.645     0.007
      P     6      S                    0.874     0.873     0.001
      P     6      Px                   0.656     0.653     0.003
      P     6      Py                   0.648     0.650    -0.001
      P     6      Pz                   0.649     0.648     0.001
      P     7      S                    0.869     0.869    -0.000
      P     7      Px                   0.657     0.658    -0.001
      P     7      Py                   0.653     0.654    -0.001
      P     7      Pz                   0.652     0.653    -0.000
      P     8      S                    0.873     0.872     0.002
      P     8      Px                   0.651     0.642     0.009
      P     8      Py                   0.652     0.642     0.010
      P     8      Pz                   0.661     0.660     0.001
      P     9      S                    0.873     0.872     0.002
      P     9      Px                   0.661     0.660     0.001
      P     9      Py                   0.652     0.642     0.010
      P     9      Pz                   0.651     0.642     0.009
      P    10      S                    0.904     0.907    -0.003
      P    10      Px                   0.612     0.629    -0.017
      P    10      Py                   0.610     0.624    -0.014
      P    10      Pz                   0.612     0.629    -0.017
      P    11      S                    0.905     0.906    -0.001
      P    11      Px                   0.617     0.622    -0.005
      P    11      Py                   0.619     0.620    -0.001
      P    11      Pz                   0.617     0.622    -0.005
      P    12      S                    0.871     0.871    -0.000
      P    12      Px                   0.657     0.659    -0.002
      P    12      Py                   0.650     0.653    -0.003
      P    12      Pz                   0.648     0.651    -0.003
      P    13      S                    0.874     0.873     0.002
      P    13      Px                   0.657     0.657    -0.001
      P    13      Py                   0.653     0.639     0.013
      P    13      Pz                   0.651     0.642     0.009
      P    14      S                    0.869     0.869     0.000
      P    14      Px                   0.654     0.654    -0.000
      P    14      Py                   0.656     0.657    -0.001
      P    14      Pz                   0.654     0.654    -0.000
      P    15      S                    0.871     0.869     0.003
      P    15      Px                   0.665     0.657     0.008
      P    15      Py                   0.653     0.645     0.008
      P    15      Pz                   0.655     0.647     0.008
      P    16      S                    0.874     0.872     0.002
      P    16      Px                   0.651     0.645     0.007
      P    16      Py                   0.654     0.646     0.008
      P    16      Pz                   0.654     0.653     0.001
      P    17      S                    0.869     0.869     0.000
      P    17      Px                   0.654     0.655    -0.001
      P    17      Py                   0.655     0.655    -0.000
      P    17      Pz                   0.654     0.655    -0.000
      P    18      S                    0.874     0.873     0.001
      P    18      Px                   0.649     0.648     0.001
      P    18      Py                   0.648     0.650    -0.001
      P    18      Pz                   0.656     0.653     0.003
      P    19      S                    0.869     0.869    -0.000
      P    19      Px                   0.652     0.653    -0.000
      P    19      Py                   0.653     0.654    -0.001
      P    19      Pz                   0.657     0.658    -0.001
      P    20      S                    0.870     0.870    -0.000
      P    20      Px                   0.652     0.654    -0.002
      P    20      Py                   0.655     0.655    -0.001
      P    20      Pz                   0.651     0.653    -0.002
      P    21      S                    0.870     0.870    -0.000
      P    21      Px                   0.651     0.653    -0.002
      P    21      Py                   0.655     0.655    -0.001
      P    21      Pz                   0.652     0.654    -0.002
      P    22      S                    0.874     0.871     0.003
      P    22      Px                   0.653     0.641     0.012
      P    22      Py                   0.659     0.657     0.002
      P    22      Pz                   0.653     0.641     0.012
      P    23      S                    0.870     0.868     0.002
      P    23      Px                   0.654     0.649     0.004
      P    23      Py                   0.663     0.658     0.005
      P    23      Pz                   0.654     0.649     0.004
      P    24      S                    0.874     0.873     0.002
      P    24      Px                   0.651     0.642     0.009
      P    24      Py                   0.653     0.639     0.013
      P    24      Pz                   0.657     0.657    -0.001
      P    25      S                    0.871     0.871    -0.000
      P    25      Px                   0.648     0.651    -0.003
      P    25      Py                   0.650     0.653    -0.003
      P    25      Pz                   0.657     0.659    -0.002
      P    26      S                    0.869     0.869     0.000
      P    26      Px                   0.654     0.654    -0.000
      P    26      Py                   0.656     0.657    -0.001
      P    26      Pz                   0.654     0.654    -0.000
      P    27      S                    0.871     0.869     0.003
      P    27      Px                   0.655     0.647     0.008
      P    27      Py                   0.653     0.645     0.008
      P    27      Pz                   0.665     0.657     0.008
      P    28      S                    0.869     0.869    -0.000
      P    28      Px                   0.655     0.656    -0.001
      P    28      Py                   0.655     0.656    -0.001
      P    28      Pz                   0.654     0.655    -0.001
      P    29      S                    0.869     0.869    -0.000
      P    29      Px                   0.654     0.655    -0.001
      P    29      Py                   0.655     0.656    -0.001
      P    29      Pz                   0.655     0.656    -0.001
      P    30      S                    0.871     0.871    -0.000
      P    30      Px                   0.651     0.653    -0.002
      P    30      Py                   0.654     0.655    -0.001
      P    30      Pz                   0.651     0.653    -0.002
      P    31      S                    0.872     0.872    -0.000
      P    31      Px                   0.649     0.653    -0.004
      P    31      Py                   0.656     0.658    -0.002
      P    31      Pz                   0.649     0.653    -0.004
     In     1      Dzz                  1.000     1.000    -0.000
     In     1      Dzy                  0.998     0.999    -0.000
     In     1      Dzx                  0.998     0.998    -0.000
     In     1      Dxx-yy               1.000     1.000    -0.000
     In     1      Dxy                  0.998     0.999    -0.000
     In     1      S                    0.709     0.707     0.002
     In     1      Px                   0.239     0.239     0.000
     In     1      Py                   0.248     0.248     0.000
     In     1      Pz                   0.239     0.239     0.000
     In     1      S                   -0.238    -0.237    -0.001
     In     2      Dzz                  0.999     1.000    -0.000
     In     2      Dzy                  0.998     0.999    -0.000
     In     2      Dzx                  0.999     0.999    -0.000
     In     2      Dxx-yy               0.999     1.000    -0.000
     In     2      Dxy                  0.998     0.999    -0.000
     In     2      S                    0.803     0.808    -0.005
     In     2      Px                   0.348     0.183     0.165
     In     2      Py                   0.391     0.218     0.172
     In     2      Pz                   0.348     0.183     0.165
     In     2      S                   -0.092    -0.096     0.004
     In     3      Dzz                  1.000     1.000     0.000
     In     3      Dzy                  0.999     0.999    -0.000
     In     3      Dzx                  0.999     0.999     0.000
     In     3      Dxx-yy               1.000     1.000     0.000
     In     3      Dxy                  0.998     0.998    -0.000
     In     3      S                    0.705     0.705    -0.000
     In     3      Px                   0.236     0.237    -0.000
     In     3      Py                   0.240     0.241    -0.001
     In     3      Pz                   0.246     0.247    -0.001
     In     3      S                   -0.245    -0.240    -0.005
     In     4      Dzz                  1.000     1.000     0.000
     In     4      Dzy                  0.998     0.998    -0.000
     In     4      Dzx                  0.999     0.999     0.000
     In     4      Dxx-yy               1.000     1.000     0.000
     In     4      Dxy                  0.999     0.999    -0.000
     In     4      S                    0.705     0.705    -0.000
     In     4      Px                   0.246     0.247    -0.001
     In     4      Py                   0.240     0.241    -0.001
     In     4      Pz                   0.236     0.237    -0.000
     In     4      S                   -0.245    -0.240    -0.005
     In     5      Dzz                  1.000     1.000     0.000
     In     5      Dzy                  0.998     0.998     0.000
     In     5      Dzx                  0.998     0.998     0.000
     In     5      Dxx-yy               1.000     1.000     0.000
     In     5      Dxy                  0.999     0.999     0.000
     In     5      S                    0.703     0.703     0.001
     In     5      Px                   0.238     0.238    -0.000
     In     5      Py                   0.248     0.249    -0.001
     In     5      Pz                   0.248     0.244     0.004
     In     5      S                   -0.233    -0.232    -0.001
     In     6      Dzz                  1.000     1.000     0.000
     In     6      Dzy                  0.998     0.998    -0.000
     In     6      Dzx                  0.998     0.998     0.000
     In     6      Dxx-yy               1.000     1.000     0.000
     In     6      Dxy                  0.998     0.998     0.000
     In     6      S                    0.715     0.712     0.003
     In     6      Px                   0.247     0.241     0.006
     In     6      Py                   0.241     0.240     0.001
     In     6      Pz                   0.236     0.235     0.001
     In     6      S                   -0.280    -0.280     0.000
     In     7      Dzz                  1.000     1.000     0.000
     In     7      Dzy                  0.998     0.998     0.000
     In     7      Dzx                  0.998     0.998    -0.000
     In     7      Dxx-yy               1.000     1.000     0.000
     In     7      Dxy                  0.998     0.998     0.000
     In     7      S                    0.710     0.708     0.002
     In     7      Px                   0.240     0.240     0.000
     In     7      Py                   0.245     0.241     0.004
     In     7      Pz                   0.239     0.239    -0.000
     In     7      S                   -0.268    -0.267    -0.000
     In     8      Dzz                  1.000     1.000     0.000
     In     8      Dzy                  0.998     0.998     0.000
     In     8      Dzx                  0.998     0.998     0.000
     In     8      Dxx-yy               1.000     1.000    -0.000
     In     8      Dxy                  0.998     0.998     0.000
     In     8      S                    0.728     0.725     0.003
     In     8      Px                   0.282     0.256     0.026
     In     8      Py                   0.262     0.235     0.027
     In     8      Pz                   0.267     0.256     0.011
     In     8      S                   -0.233    -0.230    -0.002
     In     9      Dzz                  1.000     1.000     0.000
     In     9      Dzy                  0.998     0.998     0.000
     In     9      Dzx                  0.999     0.999    -0.000
     In     9      Dxx-yy               1.000     1.000     0.000
     In     9      Dxy                  0.998     0.998     0.000
     In     9      S                    0.714     0.710     0.003
     In     9      Px                   0.240     0.239     0.001
     In     9      Py                   0.244     0.237     0.007
     In     9      Pz                   0.240     0.239     0.001
     In     9      S                   -0.267    -0.267     0.000
     In    10      Dzz                  1.000     1.000    -0.000
     In    10      Dzy                  0.998     0.998     0.000
     In    10      Dzx                  0.998     0.998     0.000
     In    10      Dxx-yy               1.000     1.000    -0.000
     In    10      Dxy                  0.998     0.998     0.000
     In    10      S                    0.751     0.726     0.025
     In    10      Px                   0.266     0.231     0.034
     In    10      Py                   0.269     0.233     0.036
     In    10      Pz                   0.266     0.231     0.034
     In    10      S                   -0.275    -0.273    -0.002
     In    11      Dzz                  1.000     1.000    -0.000
     In    11      Dzy                  0.998     0.998    -0.000
     In    11      Dzx                  0.998     0.998     0.000
     In    11      Dxx-yy               1.000     1.000    -0.000
     In    11      Dxy                  0.998     0.998    -0.000
     In    11      S                    0.710     0.707     0.003
     In    11      Px                   0.239     0.238     0.000
     In    11      Py                   0.238     0.237     0.001
     In    11      Pz                   0.252     0.246     0.006
     In    11      S                   -0.233    -0.234     0.001
     In    12      Dzz                  1.000     1.000    -0.000
     In    12      Dzy                  0.998     0.998    -0.000
     In    12      Dzx                  0.998     0.998     0.000
     In    12      Dxx-yy               1.000     1.000    -0.000
     In    12      Dxy                  0.998     0.998    -0.000
     In    12      S                    0.710     0.707     0.003
     In    12      Px                   0.252     0.246     0.006
     In    12      Py                   0.238     0.237     0.001
     In    12      Pz                   0.239     0.238     0.000
     In    12      S                   -0.233    -0.234     0.001
     In    13      Dzz                  1.000     1.000     0.000
     In    13      Dzy                  0.998     0.998    -0.000
     In    13      Dzx                  0.998     0.998    -0.000
     In    13      Dxx-yy               1.000     1.000     0.000
     In    13      Dxy                  0.998     0.998    -0.000
     In    13      S                    0.710     0.710    -0.001
     In    13      Px                   0.239     0.240    -0.000
     In    13      Py                   0.239     0.240    -0.001
     In    13      Pz                   0.239     0.240    -0.000
     In    13      S                   -0.280    -0.275    -0.006
     In    14      Dzz                  1.000     1.000     0.000
     In    14      Dzy                  0.999     0.999    -0.000
     In    14      Dzx                  0.999     0.999    -0.000
     In    14      Dxx-yy               1.000     1.000     0.000
     In    14      Dxy                  0.999     0.999    -0.000
     In    14      S                    0.712     0.712    -0.000
     In    14      Px                   0.241     0.242    -0.001
     In    14      Py                   0.238     0.239    -0.001
     In    14      Pz                   0.238     0.238    -0.000
     In    14      S                   -0.262    -0.257    -0.005
     In    15      Dzz                  1.000     1.000     0.000
     In    15      Dzy                  0.998     0.998    -0.000
     In    15      Dzx                  0.998     0.998    -0.000
     In    15      Dxx-yy               1.000     1.000     0.000
     In    15      Dxy                  0.998     0.998    -0.000
     In    15      S                    0.709     0.708     0.002
     In    15      Px                   0.241     0.241     0.000
     In    15      Py                   0.241     0.241     0.000
     In    15      Pz                   0.240     0.240     0.000
     In    15      S                   -0.268    -0.269     0.000
     In    16      Dzz                  1.000     1.000     0.000
     In    16      Dzy                  0.998     0.998    -0.000
     In    16      Dzx                  0.999     0.999     0.000
     In    16      Dxx-yy               1.000     1.000     0.000
     In    16      Dxy                  0.999     0.999    -0.000
     In    16      S                    0.707     0.707    -0.001
     In    16      Px                   0.246     0.247    -0.001
     In    16      Py                   0.237     0.238    -0.000
     In    16      Pz                   0.238     0.238    -0.001
     In    16      S                   -0.250    -0.244    -0.005
     In    17      Dzz                  1.000     1.000     0.000
     In    17      Dzy                  0.999     0.999     0.000
     In    17      Dzx                  0.998     0.998     0.000
     In    17      Dxx-yy               1.000     1.000     0.000
     In    17      Dxy                  0.998     0.998     0.000
     In    17      S                    0.703     0.703     0.001
     In    17      Px                   0.248     0.244     0.004
     In    17      Py                   0.248     0.249    -0.001
     In    17      Pz                   0.238     0.238    -0.000
     In    17      S                   -0.233    -0.232    -0.001
     In    18      Dzz                  1.000     1.000     0.000
     In    18      Dzy                  0.998     0.998     0.000
     In    18      Dzx                  0.998     0.998     0.000
     In    18      Dxx-yy               1.000     1.000    -0.000
     In    18      Dxy                  0.998     0.998    -0.000
     In    18      S                    0.715     0.712     0.003
     In    18      Px                   0.236     0.235     0.001
     In    18      Py                   0.241     0.240     0.001
     In    18      Pz                   0.247     0.241     0.006
     In    18      S                   -0.280    -0.280     0.000
     In    19      Dzz                  1.000     1.000     0.000
     In    19      Dzy                  0.998     0.998     0.000
     In    19      Dzx                  0.998     0.998     0.000
     In    19      Dxx-yy               1.000     1.000    -0.000
     In    19      Dxy                  0.998     0.998     0.000
     In    19      S                    0.728     0.725     0.003
     In    19      Px                   0.267     0.256     0.011
     In    19      Py                   0.262     0.235     0.027
     In    19      Pz                   0.282     0.256     0.026
     In    19      S                   -0.233    -0.230    -0.002
     In    20      Dzz                  1.000     1.000     0.000
     In    20      Dzy                  0.998     0.998     0.000
     In    20      Dzx                  0.998     0.998    -0.000
     In    20      Dxx-yy               1.000     1.000     0.000
     In    20      Dxy                  0.998     0.998     0.000
     In    20      S                    0.710     0.708     0.002
     In    20      Px                   0.239     0.239    -0.000
     In    20      Py                   0.245     0.241     0.004
     In    20      Pz                   0.240     0.240     0.000
     In    20      S                   -0.268    -0.267    -0.000
     In    21      Dzz                  1.000     1.000     0.000
     In    21      Dzy                  0.999     0.999    -0.000
     In    21      Dzx                  0.998     0.998    -0.000
     In    21      Dxx-yy               1.000     1.000     0.000
     In    21      Dxy                  0.999     0.999    -0.000
     In    21      S                    0.702     0.703    -0.001
     In    21      Px                   0.239     0.240    -0.001
     In    21      Py                   0.245     0.246    -0.001
     In    21      Pz                   0.239     0.240    -0.001
     In    21      S                   -0.241    -0.238    -0.003
     In    22      Dzz                  1.000     1.000     0.000
     In    22      Dzy                  0.998     0.998    -0.000
     In    22      Dzx                  0.998     0.998    -0.000
     In    22      Dxx-yy               1.000     1.000     0.000
     In    22      Dxy                  0.998     0.998    -0.000
     In    22      S                    0.710     0.709     0.001
     In    22      Px                   0.239     0.239    -0.000
     In    22      Py                   0.245     0.245    -0.000
     In    22      Pz                   0.239     0.239    -0.000
     In    22      S                   -0.254    -0.253    -0.000
     In    23      Dzz                  1.000     1.000    -0.000
     In    23      Dzy                  0.998     0.998     0.000
     In    23      Dzx                  0.999     0.999     0.000
     In    23      Dxx-yy               1.000     1.000     0.000
     In    23      Dxy                  0.998     0.998    -0.000
     In    23      S                    0.708     0.709    -0.001
     In    23      Px                   0.241     0.242    -0.001
     In    23      Py                   0.239     0.240    -0.001
     In    23      Pz                   0.236     0.237    -0.001
     In    23      S                   -0.281    -0.276    -0.005
     In    24      Dzz                  1.000     1.000     0.000
     In    24      Dzy                  0.998     0.998    -0.000
     In    24      Dzx                  0.999     0.999    -0.000
     In    24      Dxx-yy               1.000     1.000     0.000
     In    24      Dxy                  0.998     0.998     0.000
     In    24      S                    0.708     0.709    -0.001
     In    24      Px                   0.236     0.237    -0.001
     In    24      Py                   0.239     0.240    -0.001
     In    24      Pz                   0.241     0.242    -0.001
     In    24      S                   -0.281    -0.276    -0.005
     In    25      Dzz                  1.000     1.000     0.000
     In    25      Dzy                  0.998     0.998    -0.000
     In    25      Dzx                  0.998     0.998    -0.000
     In    25      Dxx-yy               1.000     1.000     0.000
     In    25      Dxy                  0.998     0.998    -0.000
     In    25      S                    0.710     0.710    -0.001
     In    25      Px                   0.239     0.240    -0.000
     In    25      Py                   0.239     0.240    -0.001
     In    25      Pz                   0.239     0.240    -0.000
     In    25      S                   -0.280    -0.274    -0.006
     In    26      Dzz                  1.000     1.000    -0.000
     In    26      Dzy                  0.999     0.999    -0.000
     In    26      Dzx                  0.999     0.999    -0.000
     In    26      Dxx-yy               1.000     1.000     0.000
     In    26      Dxy                  0.999     0.999    -0.000
     In    26      S                    0.712     0.712    -0.000
     In    26      Px                   0.238     0.238    -0.000
     In    26      Py                   0.238     0.239    -0.001
     In    26      Pz                   0.241     0.242    -0.001
     In    26      S                   -0.262    -0.257    -0.005
     In    27      Dzz                  1.000     1.000     0.000
     In    27      Dzy                  0.999     0.999    -0.000
     In    27      Dzx                  0.999     0.999     0.000
     In    27      Dxx-yy               1.000     1.000     0.000
     In    27      Dxy                  0.998     0.998    -0.000
     In    27      S                    0.707     0.707    -0.001
     In    27      Px                   0.238     0.238    -0.001
     In    27      Py                   0.237     0.238    -0.000
     In    27      Pz                   0.246     0.247    -0.001
     In    27      S                   -0.250    -0.244    -0.005
     In    28      Dzz                  1.000     1.000     0.000
     In    28      Dzy                  0.998     0.998    -0.000
     In    28      Dzx                  0.998     0.998    -0.000
     In    28      Dxx-yy               1.000     1.000     0.000
     In    28      Dxy                  0.998     0.998    -0.000
     In    28      S                    0.709     0.708     0.001
     In    28      Px                   0.240     0.240     0.000
     In    28      Py                   0.241     0.241     0.000
     In    28      Pz                   0.241     0.241     0.000
     In    28      S                   -0.268    -0.269     0.000
     In    29      Dzz                  1.000     1.000    -0.000
     In    29      Dzy                  0.998     0.998     0.000
     In    29      Dzx                  0.998     0.998     0.000
     In    29      Dxx-yy               1.000     1.000    -0.000
     In    29      Dxy                  0.998     0.998     0.000
     In    29      S                    0.737     0.720     0.017
     In    29      Px                   0.268     0.242     0.025
     In    29      Py                   0.285     0.248     0.036
     In    29      Pz                   0.268     0.242     0.025
     In    29      S                   -0.255    -0.252    -0.003
     In    30      Dzz                  1.000     1.000     0.000
     In    30      Dzy                  0.998     0.998     0.000
     In    30      Dzx                  0.998     0.998    -0.000
     In    30      Dxx-yy               1.000     1.000     0.000
     In    30      Dxy                  0.998     0.998     0.000
     In    30      S                    0.710     0.708     0.003
     In    30      Px                   0.240     0.238     0.001
     In    30      Py                   0.246     0.238     0.008
     In    30      Pz                   0.240     0.238     0.001
     In    30      S                   -0.230    -0.229    -0.001
     In    31      Dzz                  1.000     1.000     0.000
     In    31      Dzy                  0.998     0.998    -0.000
     In    31      Dzx                  0.998     0.998     0.000
     In    31      Dxx-yy               1.000     1.000     0.000
     In    31      Dxy                  0.998     0.998     0.000
     In    31      S                    0.712     0.711     0.002
     In    31      Px                   0.246     0.242     0.004
     In    31      Py                   0.239     0.238     0.001
     In    31      Pz                   0.239     0.239     0.001
     In    31      S                   -0.267    -0.266    -0.000
     In    32      Dzz                  1.000     1.000     0.000
     In    32      Dzy                  0.998     0.998     0.000
     In    32      Dzx                  0.998     0.998     0.000
     In    32      Dxx-yy               1.000     1.000     0.000
     In    32      Dxy                  0.998     0.998    -0.000
     In    32      S                    0.712     0.711     0.002
     In    32      Px                   0.239     0.239     0.001
     In    32      Py                   0.239     0.238     0.001
     In    32      Pz                   0.246     0.242     0.004
     In    32      S                   -0.267    -0.266    -0.000
  ---------------------------------------------------------------
                           Total:     286.034   284.966     1.068
  ---------------------------------------------------------------

     Atomic Populations (Mulliken)
     -----------------------------
Species          Ion Spin      s       p       d       f      Total   Charge(e)   Spin(hbar/2)
==============================================================================================
  P               1   up:     0.914   1.848   0.000   0.000   2.762    -0.500        0.025
                  1   dn:     0.914   1.824   0.000   0.000   2.737
  P               2   up:     0.914   1.848   0.000   0.000   2.762    -0.499        0.025
                  2   dn:     0.914   1.824   0.000   0.000   2.737
  P               3   up:     0.875   1.965   0.000   0.000   2.839    -0.649        0.030
                  3   dn:     0.872   1.937   0.000   0.000   2.809
  P               4   up:     0.869   1.963   0.000   0.000   2.832    -0.665       -0.001
                  4   dn:     0.869   1.964   0.000   0.000   2.833
  P               5   up:     0.874   1.959   0.000   0.000   2.833    -0.649        0.018
                  5   dn:     0.872   1.944   0.000   0.000   2.815
  P               6   up:     0.874   1.953   0.000   0.000   2.827    -0.650        0.003
                  6   dn:     0.873   1.950   0.000   0.000   2.823
  P               7   up:     0.869   1.963   0.000   0.000   2.832    -0.667       -0.003
                  7   dn:     0.869   1.965   0.000   0.000   2.835
  P               8   up:     0.873   1.964   0.000   0.000   2.837    -0.653        0.021
                  8   dn:     0.872   1.944   0.000   0.000   2.816
  P               9   up:     0.873   1.964   0.000   0.000   2.837    -0.653        0.021
                  9   dn:     0.872   1.944   0.000   0.000   2.816
  P              10   up:     0.904   1.834   0.000   0.000   2.738    -0.527       -0.051
                 10   dn:     0.907   1.882   0.000   0.000   2.789
  P              11   up:     0.905   1.852   0.000   0.000   2.758    -0.527       -0.012
                 11   dn:     0.906   1.864   0.000   0.000   2.770
  P              12   up:     0.871   1.955   0.000   0.000   2.826    -0.661       -0.009
                 12   dn:     0.871   1.964   0.000   0.000   2.835
  P              13   up:     0.874   1.961   0.000   0.000   2.835    -0.646        0.024
                 13   dn:     0.873   1.939   0.000   0.000   2.811
  P              14   up:     0.869   1.964   0.000   0.000   2.832    -0.666       -0.001
                 14   dn:     0.869   1.965   0.000   0.000   2.834
  P              15   up:     0.871   1.973   0.000   0.000   2.844    -0.662        0.026
                 15   dn:     0.869   1.950   0.000   0.000   2.818
  P              16   up:     0.874   1.959   0.000   0.000   2.833    -0.649        0.018
                 16   dn:     0.872   1.944   0.000   0.000   2.815
  P              17   up:     0.869   1.963   0.000   0.000   2.832    -0.665       -0.001
                 17   dn:     0.869   1.964   0.000   0.000   2.833
  P              18   up:     0.874   1.953   0.000   0.000   2.827    -0.650        0.003
                 18   dn:     0.873   1.950   0.000   0.000   2.823
  P              19   up:     0.869   1.963   0.000   0.000   2.832    -0.667       -0.003
                 19   dn:     0.869   1.965   0.000   0.000   2.835
  P              20   up:     0.870   1.959   0.000   0.000   2.829    -0.662       -0.004
                 20   dn:     0.870   1.963   0.000   0.000   2.833
  P              21   up:     0.870   1.959   0.000   0.000   2.829    -0.662       -0.004
                 21   dn:     0.870   1.963   0.000   0.000   2.833
  P              22   up:     0.874   1.965   0.000   0.000   2.839    -0.649        0.030
                 22   dn:     0.871   1.939   0.000   0.000   2.809
  P              23   up:     0.870   1.970   0.000   0.000   2.841    -0.666        0.016
                 23   dn:     0.868   1.956   0.000   0.000   2.825
  P              24   up:     0.874   1.961   0.000   0.000   2.835    -0.646        0.024
                 24   dn:     0.873   1.939   0.000   0.000   2.811
  P              25   up:     0.871   1.955   0.000   0.000   2.826    -0.661       -0.009
                 25   dn:     0.871   1.964   0.000   0.000   2.835
  P              26   up:     0.869   1.964   0.000   0.000   2.832    -0.666       -0.001
                 26   dn:     0.869   1.965   0.000   0.000   2.834
  P              27   up:     0.871   1.973   0.000   0.000   2.844    -0.662        0.026
                 27   dn:     0.869   1.950   0.000   0.000   2.818
  P              28   up:     0.869   1.963   0.000   0.000   2.832    -0.667       -0.003
                 28   dn:     0.869   1.966   0.000   0.000   2.835
  P              29   up:     0.869   1.963   0.000   0.000   2.832    -0.667       -0.003
                 29   dn:     0.869   1.966   0.000   0.000   2.835
  P              30   up:     0.871   1.957   0.000   0.000   2.828    -0.660       -0.005
                 30   dn:     0.871   1.961   0.000   0.000   2.832
  P              31   up:     0.872   1.954   0.000   0.000   2.825    -0.661       -0.010
                 31   dn:     0.872   1.963   0.000   0.000   2.835
  In              1   up:     0.470   0.726   4.995   0.000   6.190     0.620        0.001
                  1   dn:     0.469   0.726   4.995   0.000   6.189
  In              2   up:     0.711   1.087   4.994   0.000   6.793    -0.084        0.501
                  2   dn:     0.712   0.584   4.995   0.000   6.291
  In              3   up:     0.460   0.722   4.995   0.000   6.177     0.638       -0.008
                  3   dn:     0.466   0.725   4.995   0.000   6.185
  In              4   up:     0.460   0.722   4.995   0.000   6.177     0.638       -0.008
                  4   dn:     0.466   0.725   4.995   0.000   6.185
  In              5   up:     0.470   0.734   4.994   0.000   6.198     0.606        0.003
                  5   dn:     0.471   0.730   4.994   0.000   6.196
  In              6   up:     0.436   0.724   4.994   0.000   6.154     0.703        0.011
                  6   dn:     0.432   0.716   4.994   0.000   6.143
  In              7   up:     0.442   0.724   4.994   0.000   6.161     0.684        0.005
                  7   dn:     0.441   0.720   4.994   0.000   6.155
  In              8   up:     0.495   0.811   4.993   0.000   6.300     0.466        0.065
                  8   dn:     0.495   0.747   4.993   0.000   6.234
  In              9   up:     0.447   0.724   4.994   0.000   6.165     0.680        0.011
                  9   dn:     0.444   0.716   4.994   0.000   6.154
  In             10   up:     0.476   0.801   4.994   0.000   6.271     0.586        0.128
                 10   dn:     0.453   0.696   4.994   0.000   6.143
  In             11   up:     0.477   0.729   4.994   0.000   6.200     0.611        0.012
                 11   dn:     0.473   0.721   4.994   0.000   6.189
  In             12   up:     0.477   0.729   4.994   0.000   6.200     0.611        0.012
                 12   dn:     0.473   0.721   4.994   0.000   6.189
  In             13   up:     0.429   0.718   4.995   0.000   6.142     0.709       -0.008
                 13   dn:     0.436   0.719   4.995   0.000   6.150
  In             14   up:     0.450   0.717   4.995   0.000   6.162     0.670       -0.007
                 14   dn:     0.455   0.719   4.995   0.000   6.169
  In             15   up:     0.441   0.722   4.995   0.000   6.158     0.687        0.003
                 15   dn:     0.439   0.721   4.995   0.000   6.155
  In             16   up:     0.457   0.721   4.995   0.000   6.173     0.646       -0.008
                 16   dn:     0.463   0.723   4.995   0.000   6.181
  In             17   up:     0.470   0.734   4.994   0.000   6.198     0.606        0.003
                 17   dn:     0.471   0.730   4.994   0.000   6.196
  In             18   up:     0.435   0.724   4.994   0.000   6.154     0.703        0.011
                 18   dn:     0.432   0.716   4.994   0.000   6.143
  In             19   up:     0.495   0.811   4.993   0.000   6.300     0.466        0.065
                 19   dn:     0.495   0.747   4.993   0.000   6.234
  In             20   up:     0.442   0.724   4.994   0.000   6.161     0.684        0.005
                 20   dn:     0.441   0.720   4.994   0.000   6.155
  In             21   up:     0.462   0.722   4.995   0.000   6.179     0.635       -0.007
                 21   dn:     0.465   0.725   4.995   0.000   6.186
  In             22   up:     0.457   0.723   4.995   0.000   6.174     0.652        0.000
                 22   dn:     0.456   0.723   4.995   0.000   6.174
  In             23   up:     0.427   0.717   4.995   0.000   6.138     0.714       -0.009
                 23   dn:     0.433   0.720   4.995   0.000   6.147
  In             24   up:     0.427   0.717   4.995   0.000   6.138     0.714       -0.009
                 24   dn:     0.433   0.720   4.995   0.000   6.147
  In             25   up:     0.429   0.718   4.995   0.000   6.142     0.709       -0.008
                 25   dn:     0.436   0.719   4.995   0.000   6.149
  In             26   up:     0.450   0.717   4.995   0.000   6.162     0.670       -0.007
                 26   dn:     0.455   0.719   4.995   0.000   6.169
  In             27   up:     0.457   0.721   4.995   0.000   6.173     0.646       -0.008
                 27   dn:     0.463   0.723   4.995   0.000   6.181
  In             28   up:     0.441   0.722   4.995   0.000   6.158     0.687        0.003
                 28   dn:     0.439   0.721   4.995   0.000   6.155
  In             29   up:     0.482   0.820   4.994   0.000   6.295     0.510        0.101
                 29   dn:     0.468   0.733   4.994   0.000   6.195
  In             30   up:     0.480   0.725   4.994   0.000   6.200     0.612        0.012
                 30   dn:     0.478   0.715   4.994   0.000   6.188
  In             31   up:     0.446   0.724   4.994   0.000   6.165     0.678        0.007
                 31   dn:     0.444   0.719   4.994   0.000   6.157
  In             32   up:     0.446   0.724   4.994   0.000   6.165     0.678        0.007
                 32   dn:     0.444   0.719   4.994   0.000   6.157
==============================================================================================

                 Bond                   Population        Spin       Length (A)
================================================================================
              P 1  -- In 8                   0.85        -0.00          2.49489
              P 2  -- In 19                  0.85        -0.00          2.49489
              P 27 -- In 32                  0.66        -0.00          2.53641
              P 15 -- In 31                  0.66        -0.00          2.53641
              P 1  -- In 5                   0.72         0.00          2.53662
              P 2  -- In 17                  0.72         0.00          2.53663
              P 15 -- In 6                   0.66        -0.00          2.53846
              P 27 -- In 18                  0.66        -0.00          2.53846
              P 11 -- In 16                  0.77         0.00          2.54080
              P 11 -- In 27                  0.77         0.00          2.54080
              P 10 -- In 1                   0.77         0.00          2.54111
              P 23 -- In 20                  0.66        -0.00          2.54152
              P 23 -- In 7                   0.66        -0.00          2.54152
              P 13 -- In 29                  0.71        -0.01          2.54182
              P 24 -- In 29                  0.71        -0.01          2.54182
              P 10 -- In 11                  0.78         0.00          2.54193
              P 10 -- In 12                  0.78         0.00          2.54193
              P 23 -- In 30                  0.63        -0.00          2.54557
              P 24 -- In 32                  0.64         0.00          2.54728
              P 13 -- In 31                  0.64         0.00          2.54728
              P 22 -- In 30                  0.62         0.00          2.54756
              P 15 -- In 17                  0.64        -0.00          2.54822
              P 27 -- In 5                   0.64        -0.00          2.54822
              P 9  -- In 10                  0.70        -0.01          2.54880
              P 8  -- In 10                  0.70        -0.01          2.54880
              P 17 -- In 20                  0.70        -0.00          2.54935
              P 4  -- In 7                   0.70        -0.00          2.54935
              P 1  -- In 3                   0.76         0.00          2.55199
              P 2  -- In 4                   0.76         0.00          2.55199
              P 29 -- In 30                  0.65        -0.00          2.55199
              P 28 -- In 30                  0.65        -0.00          2.55199
              P 26 -- In 28                  0.67        -0.00          2.55204
              P 14 -- In 15                  0.67        -0.00          2.55204
              P 11 -- In 21                  0.76        -0.00          2.55217
              P 7  -- In 23                  0.66        -0.00          2.55219
              P 19 -- In 24                  0.66        -0.00          2.55219
              P 18 -- In 20                  0.62         0.00          2.55292
              P 6  -- In 7                   0.62         0.00          2.55292
              P 23 -- In 9                   0.64        -0.00          2.55454
              P 30 -- In 31                  0.67        -0.00          2.55475
              P 30 -- In 32                  0.67        -0.00          2.55475
              P 29 -- In 13                  0.65         0.00          2.55637
              P 28 -- In 25                  0.65         0.00          2.55637
              P 7  -- In 25                  0.66        -0.00          2.55671
              P 19 -- In 13                  0.66        -0.00          2.55671
              P 25 -- In 9                   0.67        -0.00          2.55732
              P 12 -- In 9                   0.67        -0.00          2.55732
              P 17 -- In 18                  0.67        -0.00          2.55850
              P 4  -- In 6                   0.67        -0.00          2.55850
              P 31 -- In 15                  0.67        -0.00          2.55850
              P 31 -- In 28                  0.67        -0.00          2.55850
              P 9  -- In 25                  0.67         0.00          2.55880
              P 8  -- In 13                  0.67         0.00          2.55880
              P 3  -- In 9                   0.64         0.00          2.55883
              P 25 -- In 28                  0.66         0.00          2.55887
              P 12 -- In 15                  0.66         0.00          2.55887
              P 30 -- In 22                  0.62         0.00          2.55922
              P 29 -- In 32                  0.66        -0.00          2.55955
              P 28 -- In 31                  0.66        -0.00          2.55955
              P 3  -- In 10                  0.67        -0.01          2.56045
              P 22 -- In 24                  0.66         0.00          2.56059
              P 22 -- In 23                  0.66         0.00          2.56059
              P 26 -- In 18                  0.67        -0.00          2.56076
              P 14 -- In 6                   0.67        -0.00          2.56076
              P 21 -- In 22                  0.62        -0.00          2.56091
              P 20 -- In 22                  0.62        -0.00          2.56091
              P 19 -- In 26                  0.62        -0.00          2.56109
              P 7  -- In 14                  0.62        -0.00          2.56109
              P 28 -- In 28                  0.65         0.00          2.56148
              P 29 -- In 15                  0.65         0.00          2.56148
              P 15 -- In 12                  0.62        -0.00          2.56174
              P 27 -- In 11                  0.62        -0.00          2.56175
              P 20 -- In 20                  0.67         0.00          2.56182
              P 21 -- In 7                   0.67         0.00          2.56182
              P 17 -- In 1                   0.63        -0.00          2.56210
              P 4  -- In 1                   0.63        -0.00          2.56210
              P 16 -- In 18                  0.62         0.00          2.56293
              P 5  -- In 6                   0.62         0.00          2.56293
              P 31 -- In 22                  0.63        -0.00          2.56313
              P 5  -- In 23                  0.67         0.00          2.56352
              P 16 -- In 24                  0.67         0.00          2.56352
              P 18 -- In 19                  0.65        -0.01          2.56353
              P 6  -- In 8                   0.65        -0.01          2.56353
              P 25 -- In 26                  0.62         0.00          2.56476
              P 12 -- In 14                  0.62         0.00          2.56476
              P 20 -- In 23                  0.66         0.00          2.56516
              P 21 -- In 24                  0.66         0.00          2.56516
              P 16 -- In 19                  0.64        -0.01          2.56574
              P 5  -- In 8                   0.64        -0.01          2.56574
              P 6  -- In 13                  0.65         0.00          2.56584
              P 18 -- In 25                  0.65         0.00          2.56584
              P 8  -- In 11                  0.59         0.00          2.56688
              P 9  -- In 12                  0.59         0.00          2.56688
              P 13 -- In 14                  0.63         0.00          2.56715
              P 24 -- In 26                  0.63         0.00          2.56715
              P 26 -- In 17                  0.65         0.00          2.56944
              P 14 -- In 5                   0.65         0.00          2.56944
              P 26 -- In 27                  0.64         0.00          2.57052
              P 14 -- In 16                  0.64         0.00          2.57052
              P 4  -- In 4                   0.63         0.00          2.57304
              P 17 -- In 3                   0.63         0.00          2.57304
              P 9  -- In 27                  0.62         0.00          2.57458
              P 8  -- In 16                  0.62         0.00          2.57458
              P 21 -- In 5                   0.63         0.00          2.57527
              P 20 -- In 17                  0.63         0.00          2.57527
              P 22 -- In 29                  0.62        -0.01          2.57563
              P 5  -- In 21                  0.63         0.00          2.57604
              P 16 -- In 21                  0.63         0.00          2.57604
              P 18 -- In 26                  0.61         0.00          2.57773
              P 6  -- In 14                  0.61         0.00          2.57773
              P 7  -- In 4                   0.61        -0.00          2.57919
              P 19 -- In 3                   0.61        -0.00          2.57919
              P 3  -- In 4                   0.63         0.00          2.57932
              P 3  -- In 3                   0.63         0.00          2.57932
              P 12 -- In 12                  0.61        -0.00          2.58247
              P 25 -- In 11                  0.61        -0.00          2.58247
              P 30 -- In 21                  0.61         0.00          2.58602
              P 31 -- In 1                   0.60         0.00          2.59196
              P 24 -- In 27                  0.59         0.00          2.59552
              P 13 -- In 16                  0.59         0.00          2.59552
             In 2  -- In 29                  0.29         0.06          2.80076
             In 2  -- In 8                   0.13         0.05          2.81081
             In 2  -- In 19                  0.13         0.05          2.81081
             In 2  -- In 10                 -0.22         0.04          2.94606
================================================================================

 Hirshfeld supercell size:           2           2           2
Standard grid dimensions: 240 240 240
Fine grid dimensions:     240 240 240


     Hirshfeld Analysis
     ------------------
Species   Ion     Hirshfeld Charge (e)  Spin (hbar/2)
===================================================
  P        1                -0.20        0.02
  P        2                -0.20        0.02
  P        3                -0.23        0.03
  P        4                -0.24        0.00
  P        5                -0.23        0.02
  P        6                -0.23        0.01
  P        7                -0.24       -0.00
  P        8                -0.23        0.02
  P        9                -0.23        0.02
  P       10                -0.21       -0.04
  P       11                -0.22       -0.01
  P       12                -0.23       -0.01
  P       13                -0.23        0.02
  P       14                -0.24       -0.00
  P       15                -0.22        0.02
  P       16                -0.23        0.02
  P       17                -0.24        0.00
  P       18                -0.23        0.01
  P       19                -0.24       -0.00
  P       20                -0.24       -0.00
  P       21                -0.24       -0.00
  P       22                -0.23        0.03
  P       23                -0.23        0.01
  P       24                -0.23        0.02
  P       25                -0.23       -0.01
  P       26                -0.24       -0.00
  P       27                -0.22        0.02
  P       28                -0.23       -0.00
  P       29                -0.23       -0.00
  P       30                -0.23       -0.00
  P       31                -0.24       -0.01
  In       1                 0.23       -0.00
  In       2                 0.09        0.35
  In       3                 0.22        0.00
  In       4                 0.22        0.00
  In       5                 0.22        0.01
  In       6                 0.24        0.01
  In       7                 0.24        0.01
  In       8                 0.18        0.08
  In       9                 0.24        0.01
  In      10                 0.19        0.12
  In      11                 0.23        0.01
  In      12                 0.23        0.01
  In      13                 0.24        0.00
  In      14                 0.24        0.00
  In      15                 0.24        0.00
  In      16                 0.22        0.00
  In      17                 0.22        0.01
  In      18                 0.24        0.01
  In      19                 0.18        0.08
  In      20                 0.24        0.01
  In      21                 0.22        0.00
  In      22                 0.23       -0.00
  In      23                 0.24        0.00
  In      24                 0.24        0.00
  In      25                 0.24        0.00
  In      26                 0.24        0.00
  In      27                 0.22        0.00
  In      28                 0.24        0.00
  In      29                 0.17        0.10
  In      30                 0.24        0.01
  In      31                 0.24        0.01
  In      32                 0.24        0.01
===================================================

 
 A BibTeX formatted list of references used in this run has been written to 
 P_Vacancy_Migration_5->3_Singlepoints_7.bib
 
Initialisation time =     29.98 s
Calculation time    =  27488.11 s
Finalisation time   =    149.78 s
Total time          =  27667.87 s
Peak Memory Use     = 9567744 kB
 
Overall parallel efficiency rating: Terrible (29%)
 
Data was distributed by:-
G-vector (3-way); efficiency rating: Terrible (33%)
k-point (36-way); efficiency rating: Good (76%)
