 +-------------------------------------------------+
 |                                                 |
 |      CCC   AA    SSS  TTTTT  EEEEE  PPPP        |
 |     C     A  A  S       T    E      P   P       |
 |     C     AAAA   SS     T    EEE    PPPP        |
 |     C     A  A     S    T    E      P           |
 |      CCC  A  A  SSS     T    EEEEE  P           |
 |                                                 |
 +-------------------------------------------------+
 |                                                 |
 | Welcome to Academic Release CASTEP version 22.11|
 | Ab Initio Total Energy Program                  |
 |                                                 |
 | Authors:                                        |
 | M. Segall, M. Probert, C. Pickard, P. Hasnip,   |
 | S. Clark, K. Refson, J. R. Yates, M. Payne      |
 |                                                 |
 | Contributors:                                   |
 | P. Lindan, P. Haynes, J. White, V. Milman,      |
 | N. Govind, M. Gibson, P. Tulip, V. Cocula,      |
 | B. Montanari, D. Quigley, M. Glover,            |
 | L. Bernasconi, A. Perlov, M. Plummer,           |
 | E. McNellis, J. Meyer, J. Gale, D. Jochym       |
 | J. Aarons, B. Walker, R. Gillen, D. Jones       |
 | T. Green, I. J. Bush, C. J. Armstrong,          |
 | E. J. Higgins, E. L. Brown, M. S. McFly,        |
 | J. Wilkins, B-C. Shih, P. J. P. Byrne,          |
 | R. J. Maurer, J. C. Womack, J. Dziedzic,        |
 | A. Bartok-Partay, L. LeBlanc, T. K. Stenczel,   |
 | J. Kermode, S. Sturniolo, B. Shi, B. Durham     |
 | M. Evans, M. J. Smith                           |
 |                                                 |
 | Copyright (c) 2000 - 2021                       |
 |                                                 |
 |     Distributed under license from Cambridge    |
 |     Enterprise for academic use only.           |
 |                                                 |
 | Please cite                                     |
 |                                                 |
 |     "First principles methods using CASTEP"     |
 |                                                 |
 |         Zeitschrift fuer Kristallographie       |
 |           220(5-6) pp. 567-570 (2005)           |
 |                                                 |
 | S. J. Clark, M. D. Segall, C. J. Pickard,       |
 | P. J. Hasnip, M. J. Probert, K. Refson,         |
 | M. C. Payne                                     |
 |                                                 |
 |       in all publications arising from          |
 |              your use of CASTEP                 |
 |                                                 |
 +-------------------------------------------------+
 |                                                 |
 |              http://www.castep.org              |
 |                                                 |
 +-------------------------------------------------+



 Compiled for linux_x86_64_gfortran10-XT on Thu, 16 Mar 2023 13:12:36 +0000
 from code version Version unavailable
 Compiler: GNU Fortran 11.2.0; Optimisation: fast
 MATHLIBS: LibSci (LAPACK version 3.10.1)
 FFT Lib : fftw3 version commercial-fftw-3.3.10-sse2-avx-avx2-avx2_128
 Fundamental constants values: CODATA 2014

 Run started: Mon, 25 Mar 2024 14:56:43 +0000

 Atomic calculation performed for P: 1s2 2s2 2p6 3s2 3p3

 Converged in 47 iterations to an ae energy of -9309.074 eV

   ============================================================                
   | Pseudopotential Report - Date of generation 25-03-2024   |                
   ------------------------------------------------------------                
   | Element: P Ionic charge:  5.00 Level of theory: RSCAN    |                
   | Atomic Solver: Koelling-Harmon                           |                
   |                                                          |                
   |               Reference Electronic Structure             |                
   |         Orbital         Occupation         Energy        |                
   |            3s              2.000           -0.535        |                
   |            3p              3.000           -0.209        |                
   |                                                          |                
   |                 Pseudopotential Definition               |                
   |        Beta     l      e      Rc     scheme   norm       |                
   |          1      0   -0.535   1.807     qc      0         |                
   |          2      0    0.250   1.807     qc      0         |                
   |          3      1   -0.209   1.807     qc      0         |                
   |          4      1    0.250   1.807     qc      0         |                
   |          5      2    0.000   1.807     qc      0         |                
   |          6      2    0.250   1.807     qc      0         |                
   |         loc     3    0.000   1.807     pn      0         |                
   |                                                          |                
   | Augmentation charge Rinner = 1.263                       |                
   | Partial core correction Rc = 1.263                       |                
   ------------------------------------------------------------                
   | "3|1.8|4|4|5|30:31:32"                                   |                
   ------------------------------------------------------------                
   |      Author: Chris J. Pickard, Cambridge University      |                
   ============================================================                
 Warning: otfg_output_psp cannot write out meta-GGA pseudopotentials presently.

 Atomic calculation performed for In:
 1s2 2s2 2p6 3s2 3p6 3d10 4s2 4p6 4d10 5s2 5p1

 Converged in 84 iterations to an ae energy of -160093.327 eV

   ============================================================                
   | Pseudopotential Report - Date of generation 25-03-2024   |                
   ------------------------------------------------------------                
   | Element: In Ionic charge: 13.00 Level of theory: RSCAN   |                
   | Atomic Solver: Koelling-Harmon                           |                
   |                                                          |                
   |               Reference Electronic Structure             |                
   |         Orbital         Occupation         Energy        |                
   |            4d             10.000           -0.711        |                
   |            5s              2.000           -0.313        |                
   |            5p              1.000           -0.095        |                
   |                                                          |                
   |                 Pseudopotential Definition               |                
   |        Beta     l      e      Rc     scheme   norm       |                
   |          1      0   -0.313   2.501     qc      0         |                
   |          2      0    0.250   2.501     qc      0         |                
   |          3      1   -0.095   2.501     qc      0         |                
   |          4      1    0.250   2.501     qc      0         |                
   |          5      2   -0.711   2.207     qc      0         |                
   |          6      2    0.250   2.207     qc      0         |                
   |         loc     3    0.000   2.501     pn      0         |                
   |                                                          |                
   | Augmentation charge Rinner = 1.504                       |                
   | Partial core correction Rc = 1.504                       |                
   ------------------------------------------------------------                
   | "3|2.5|2.5|1.5|7|8|9|50:51:42U2.2U2.2"                   |                
   ------------------------------------------------------------                
   |      Author: Chris J. Pickard, Cambridge University      |                
   ============================================================                
 Warning: otfg_output_psp cannot write out meta-GGA pseudopotentials presently.

 Pseudo atomic calculation performed for P 3s2 3p3

 Converged in 23 iterations to a total energy of -208.0292 eV

 Pseudo atomic calculation performed for In 4d10 5s2 5p1

 Converged in 42 iterations to a total energy of -1747.4500 eV
 Calculation parallelised over 240 processes.
 Data is distributed by G-vector(6-way) and k-point(40-way)
 Each process may use up to 2 threads.

 ************************************ Title ************************************
 

 ***************************** General Parameters ******************************
  
 output verbosity                               : normal  (1)
 write checkpoint data to                       : StackingFaultStructs_(1_1_0)_(1_-1_0)_5.check
 type of calculation                            : geometry optimization
 stress calculation                             : off
 density difference calculation                 : off
 electron localisation func (ELF) calculation   : off
 Hirshfeld analysis                             : on
 polarisation (Berry phase) analysis            : off
 molecular orbital projected DOS                : off
 deltaSCF calculation                           : off
 unlimited duration calculation
 timing information                             : on
 memory usage estimate                          : on
 write extra output files                       : on
 write final potential to formatted file        : off
 write final density to formatted file          : off
 write BibTeX reference list                    : on
 write OTFG pseudopotential files               : on
 write electrostatic potential file             : on
 write bands file                               : on
 checkpoint writing                             : off
  
 output         length unit                     : A
 output           mass unit                     : amu
 output           time unit                     : ps
 output         charge unit                     : e
 output           spin unit                     : hbar/2
 output         energy unit                     : eV
 output          force unit                     : eV/A
 output       velocity unit                     : A/ps
 output       pressure unit                     : GPa
 output     inv_length unit                     : 1/A
 output      frequency unit                     : cm-1
 output force constant unit                     : eV/A**2
 output         volume unit                     : A**3
 output   IR intensity unit                     : (D/A)**2/amu
 output         dipole unit                     : D
 output         efield unit                     : eV/A/e
 output        entropy unit                     : J/mol/K
 output    efield chi2 unit                     : pm/V
  
 wavefunctions paging                           : none
 random number generator seed                   : randomised (145643508)
 data distribution                              : optimal for this architecture
 optimization strategy                          : balance speed and memory

 *********************** Exchange-Correlation Parameters ***********************
  
 using functional                               : RSCAN
 relativistic treatment                         : Koelling-Harmon
 DFT+D: Semi-empirical dispersion correction    : off

 ************************* Pseudopotential Parameters **************************
  
 pseudopotential representation                 : reciprocal space
 <beta|phi> representation                      : reciprocal space
 spin-orbit coupling                            : off

 **************************** Basis Set Parameters *****************************
  
 plane wave basis set cut-off                   :   900.0000   eV
 size of standard grid                          :     2.0000
 size of   fine   gmax                          :    30.7390   1/A
 finite basis set correction                    : none

 **************************** Electronic Parameters ****************************
  
 number of  electrons                           :  288.0    
 net charge of system                           :  0.000    
 treating system as non-spin-polarized
 number of bands                                :        173

 ********************* Electronic Minimization Parameters **********************
  
 Method: Treating system as metallic with density mixing treatment of electrons,
         and number of  SD  steps               :          1
         and number of  CG  steps               :          4
  
 total energy / atom convergence tol.           : 0.1000E-07   eV
 eigen-energy convergence tolerance             : 0.2222E-08   eV
 max force / atom convergence tol.              : ignored
 convergence tolerance window                   :          3   cycles
 max. number of SCF cycles                      :         50
 number of fixed-spin iterations                :         10
 smearing scheme                                : Gaussian
 smearing width                                 : 0.2000       eV
 Fermi energy convergence tolerance             : 0.2721E-13   eV
 periodic dipole correction                     : NONE

 ************************** Density Mixing Parameters **************************
  
 density-mixing scheme                          : Pulay
 max. length of mixing history                  :         15
 charge density mixing amplitude                : 0.5000    
 cut-off energy for mixing                      :  900.0       eV

 *********************** Population Analysis Parameters ************************
  
 Population analysis with cutoff                :  3.000       A
 Population analysis output                     : summary and pdos components

 ********************** Geometry Optimization Parameters ***********************
  
 optimization method                            : LBFGS
 max. no. of LBFGS updates                      : unbounded
 preconditioned LBFGS is activated
 preconditioner type                            : EXP
     stabilization constant                     :     0.1000
     parameter A                                :     3.0000
     nearest neighbor distance                  : automatic
     cut-off distance                           : automatic
     parameter mu                               : automatic
 variable cell method                           : fixed basis quality
 max. number of steps                           :         30
 estimated bulk modulus                         :  500.0       GPa
 estimated <frequency>                          :  1668.       cm-1
 geom line minimiser                            : on
 with line minimiser tolerance                  :     0.4000
 total energy convergence tolerance             : 0.2000E-04   eV/atom
        max ionic |force| tolerance             : 0.1000E-02   eV/A
 max ionic |displacement| tolerance             : 0.1000E-02   A
   max |stress component| tolerance             : 0.1000       GPa
 convergence tolerance window                   :          2   steps
 backup results every                           :          5   steps
 write geom trajectory file                     : on

 *******************************************************************************
  

                           -------------------------------
                                      Unit Cell
                           -------------------------------
        Real Lattice(A)                      Reciprocal Lattice(1/A)
     5.9012740     0.0000000     0.0000000        1.064716756   0.000000000   0.000000000
     0.0000000     8.3456610     0.0000000        0.000000000   0.752868503  -0.108586794
     0.0000000     2.4074020    16.6913220        0.000000000   0.000000000   0.376434252

                       Lattice parameters(A)       Cell Angles
                    a =      5.901274          alpha =   81.792784
                    b =      8.345661          beta  =   90.000000
                    c =     16.864039          gamma =   90.000000

                       Current cell volume =           822.048147       A**3
                                   density =             2.837630   AMU/A**3
                                           =             4.711995     g/cm^3

                           -------------------------------
                                     Cell Contents
                           -------------------------------
                         Total number of ions in cell =   32
                      Total number of species in cell =    2
                        Max number of any one species =   16

            xxxxxxxxxxxxxxxxxxxxxxxxxxxxxxxxxxxxxxxxxxxxxxxxxxxxxxxxxxxx
            x  Element    Atom        Fractional coordinates of atoms  x
            x            Number           u          v          w      x
            x----------------------------------------------------------x
            x  P            1         0.750000   0.391701   0.375437   x 
            x  P            2         0.250000   0.252541  -0.008810   x 
            x  P            3         0.750000   0.245055   0.883810   x 
            x  P            4         0.750000   0.464061   0.124590   x 
            x  P            5         0.250000   0.533536   0.750410   x 
            x  P            6         0.750000  -0.035939   0.124590   x 
            x  P            7         0.250000   0.178753   0.246988   x 
            x  P            8         0.250000   0.033536   0.750410   x 
            x  P            9         0.250000   0.678753   0.246988   x 
            x  P           10         0.750000  -0.181157   0.628012   x 
            x  P           11         0.750000  -0.108299   0.375437   x 
            x  P           12         0.750000   0.318843   0.628012   x 
            x  P           13         0.250000   0.105895   0.499563   x 
            x  P           14         0.250000   0.605895   0.499563   x 
            x  P           15         0.750000  -0.254945   0.883810   x 
            x  P           16         0.250000   0.752541  -0.008810   x 
            x  In           1         0.500000   0.142329   0.373258   x 
            x  In           2         0.000000   0.281700   0.756773   x 
            x  In           3         0.500000   0.569772   0.624792   x 
            x  In           4         0.000000  -0.218300   0.756773   x 
            x  In           5         0.500000   0.069772   0.624792   x 
            x  In           6         0.000000  -0.144733   0.501742   x 
            x  In           7         0.000000   0.355267   0.501742   x 
            x  In           8         0.500000   0.497888   0.873987   x 
            x  In           9         0.500000   0.642330   0.373258   x 
            x  In          10         0.000000   0.427825   0.250208   x 
            x  In          11         0.500000   0.715896   0.118227   x 
            x  In          12         0.500000  -0.002112   0.873987   x 
            x  In          13         0.000000  -0.072176   0.250208   x 
            x  In          14         0.500000   0.215896   0.118227   x 
            x  In          15         0.000000  -0.000292   0.001013   x 
            x  In          16         0.000000   0.499708   0.001013   x 
            xxxxxxxxxxxxxxxxxxxxxxxxxxxxxxxxxxxxxxxxxxxxxxxxxxxxxxxxxxxx


                         No user defined ionic velocities

                           -------------------------------
                                   Details of Species
                           -------------------------------

                               Mass of species in AMU
                                    P   30.9737600
                                    In  114.8180000

                          Electric Quadrupole Moment (Barn)
                                    P    1.0000000 No Isotope Defined
                                    In    0.7700000 Isotope115

                          Files used for pseudopotentials:
                                    P 3|1.8|4|4|5|30:31:32
                                    In 3|2.5|2.5|1.5|7|8|9|50:51:42U2.2U2.2

                           -------------------------------
                              k-Points For BZ Sampling
                           -------------------------------
                       MP grid size for SCF calculation is  6  6  2
                            with an offset of   0.083  0.083  0.250
                       Number of kpoints used =            40

                           -------------------------------
                               Symmetry and Constraints
                           -------------------------------

                      Cell is a supercell containing 2 primitive cells
                      Maximum deviation from symmetry =  0.00000         ANG

                      Number of symmetry operations   =           1
                      Number of ionic constraints     =          64
                      Point group of crystal =     1: C1, 1, 1
                      Space group of crystal =     4: P2_1, P 2yb

             Set iprint > 1 for details on symmetry rotations/translations

                         Centre of mass is NOT constrained
             Set iprint > 1 for details of linear ionic constraints

                         Number of cell constraints= 6
                         Cell constraints are:  0 0 0 0 0 0

                         External pressure/stress (GPa)
                          0.00000   0.00000   0.00000
                                    0.00000   0.00000
                                              0.00000
 
+---------------- MEMORY AND SCRATCH DISK ESTIMATES PER PROCESS --------------+
|                                                     Memory          Disk    |
| Baseline code, static data and system overhead      488.0 MB         0.0 MB |
| BLAS internal memory storage                          0.0 MB         0.0 MB |
| Model and support data                             1164.2 MB         0.0 MB |
| Electronic energy minimisation requirements         143.4 MB         0.0 MB |
| Force calculation requirements                       23.8 MB         0.0 MB |
|                                               ----------------------------- |
| Approx. total storage required per process         1795.6 MB         0.0 MB |
|                                                                             |
| Requirements will fluctuate during execution and may exceed these estimates |
+-----------------------------------------------------------------------------+
Calculating approximate eigenstates for fixed initial Hamiltonian
Cut-off for approx. calculation is  108.886 eV
Improving approx. states at cut-off of  450.000 eV
Resetting cut-off to  900.000 eV
Calculating total energy with cut-off of  900.000 eV.
------------------------------------------------------------------------ <-- SCF
SCF loop      Energy           Fermi           Energy gain       Timer   <-- SCF
                               energy          per atom          (sec)   <-- SCF
------------------------------------------------------------------------ <-- SCF
Initial  -3.15177675E+004  0.00000000E+000                        56.21  <-- SCF
      1  -3.13988290E+004  2.55414676E+000  -3.71682813E+000      81.44  <-- SCF
      2  -3.13988544E+004  2.55405557E+000   7.94038874E-004     102.45  <-- SCF
      3  -3.14326533E+004  2.87472466E+000   1.05621767E+000     125.43  <-- SCF
      4  -3.14383948E+004  2.93801151E+000   1.79420970E-001     153.24  <-- SCF
      5  -3.14357203E+004  3.21557200E+000  -8.35781986E-002     175.92  <-- SCF
      6  -3.14355319E+004  3.26260705E+000  -5.88731490E-003     198.73  <-- SCF
      7  -3.14353685E+004  3.31058526E+000  -5.10649813E-003     222.35  <-- SCF
      8  -3.14362133E+004  3.33816742E+000   2.64004311E-002     245.33  <-- SCF
      9  -3.14361858E+004  3.30708950E+000  -8.59860509E-004     268.40  <-- SCF
     10  -3.14362167E+004  3.31325014E+000   9.65066773E-004     291.55  <-- SCF
     11  -3.14362167E+004  3.31195761E+000  -8.75476908E-007     315.85  <-- SCF
     12  -3.14362169E+004  3.31198153E+000   6.96758253E-006     339.05  <-- SCF
     13  -3.14362169E+004  3.31202800E+000   1.63187123E-007     359.05  <-- SCF
     14  -3.14362169E+004  3.31206653E+000  -1.74321098E-008     376.02  <-- SCF
     15  -3.14362169E+004  3.31207421E+000   1.38429811E-008     393.26  <-- SCF
     16  -3.14362169E+004  3.31207525E+000   8.45880469E-009     409.74  <-- SCF
     17  -3.14362169E+004  3.31207780E+000  -8.67361491E-010     426.18  <-- SCF
------------------------------------------------------------------------ <-- SCF
 
Final energy, E             =  -31436.21430850     eV
Final free energy (E-TS)    =  -31436.21689220     eV
(energies not corrected for finite basis set)
 
NB est. 0K energy (E-0.5TS)      =  -31436.21560035     eV
 
 
+---------------- MEMORY AND SCRATCH DISK ESTIMATES PER PROCESS --------------+
|                                                     Memory          Disk    |
| Model and support data                              742.4 MB         0.0 MB |
| Electronic energy minimisation requirements         143.4 MB         0.0 MB |
| Geometry minimisation requirements                  168.8 MB         0.0 MB |
|                                               ----------------------------- |
| Approx. total storage required per process         1054.6 MB         0.0 MB |
|                                                                             |
| Requirements will fluctuate during execution and may exceed these estimates |
+-----------------------------------------------------------------------------+
 

 ******************************** Constrained Forces ********************************
 *                                                                                  *
 *                           Cartesian components (eV/A)                            *
 * -------------------------------------------------------------------------------- *
 *                         x                    y                    z              *
 *                                                                                  *
 * P               1      0.00000(cons'd)     -0.00000(cons'd)     -0.00628         *
 * P               2      0.00000(cons'd)      0.00000(cons'd)     -0.02102         *
 * P               3      0.00000(cons'd)      0.00000(cons'd)      0.01783         *
 * P               4     -0.00000(cons'd)      0.00000(cons'd)     -0.09702         *
 * P               5      0.00000(cons'd)      0.00000(cons'd)      0.09052         *
 * P               6     -0.00000(cons'd)      0.00000(cons'd)     -0.09702         *
 * P               7      0.00000(cons'd)      0.00000(cons'd)     -0.00824         *
 * P               8      0.00000(cons'd)      0.00000(cons'd)      0.09053         *
 * P               9      0.00000(cons'd)      0.00000(cons'd)     -0.00824         *
 * P              10      0.00000(cons'd)     -0.00000(cons'd)      0.00916         *
 * P              11      0.00000(cons'd)     -0.00000(cons'd)     -0.00628         *
 * P              12      0.00000(cons'd)     -0.00000(cons'd)      0.00916         *
 * P              13      0.00000(cons'd)     -0.00000(cons'd)      0.01304         *
 * P              14      0.00000(cons'd)      0.00000(cons'd)      0.01304         *
 * P              15      0.00000(cons'd)     -0.00000(cons'd)      0.01783         *
 * P              16      0.00000(cons'd)      0.00000(cons'd)     -0.02102         *
 * In              1      0.00000(cons'd)      0.00000(cons'd)     -0.02894         *
 * In              2      0.00000(cons'd)      0.00000(cons'd)     -0.03651         *
 * In              3      0.00000(cons'd)      0.00000(cons'd)     -0.02896         *
 * In              4      0.00000(cons'd)      0.00000(cons'd)     -0.03651         *
 * In              5      0.00000(cons'd)      0.00000(cons'd)     -0.02896         *
 * In              6      0.00000(cons'd)     -0.00000(cons'd)      0.02946         *
 * In              7      0.00000(cons'd)      0.00000(cons'd)      0.02946         *
 * In              8      0.00000(cons'd)      0.00000(cons'd)     -0.07693         *
 * In              9      0.00000(cons'd)      0.00000(cons'd)     -0.02894         *
 * In             10      0.00000(cons'd)      0.00000(cons'd)      0.02962         *
 * In             11      0.00000(cons'd)      0.00000(cons'd)      0.03687         *
 * In             12      0.00000(cons'd)      0.00000(cons'd)     -0.07693         *
 * In             13      0.00000(cons'd)      0.00000(cons'd)      0.02962         *
 * In             14      0.00000(cons'd)      0.00000(cons'd)      0.03686         *
 * In             15      0.00000(cons'd)      0.00000(cons'd)      0.07740         *
 * In             16      0.00000(cons'd)     -0.00000(cons'd)      0.07740         *
 *                                                                                  *
 ************************************************************************************
 EXP precond LBFGS => estimated nearest neighbor distance :  2.561       A
 EXP precond LBFGS => estimated cutoff distance :  5.121       A

 ************************************** Forces **************************************
 *                                                                                  *
 *                           Cartesian components (eV/A)                            *
 * -------------------------------------------------------------------------------- *
 *                         x                    y                    z              *
 *                                                                                  *
 * P               1      0.02325(cons'd)     -0.00151(cons'd)     -0.00628         *
 * P               2      0.55515(cons'd)      0.77648(cons'd)     -0.02102         *
 * P               3      0.55359(cons'd)     -0.77538(cons'd)      0.01783         *
 * P               4     -0.23392(cons'd)      0.08589(cons'd)     -0.09702         *
 * P               5     -0.23588(cons'd)     -0.08386(cons'd)      0.09052         *
 * P               6     -0.23392(cons'd)      0.08589(cons'd)     -0.09702         *
 * P               7      0.14799(cons'd)      0.00329(cons'd)     -0.00824         *
 * P               8     -0.23588(cons'd)     -0.08386(cons'd)      0.09053         *
 * P               9      0.14799(cons'd)      0.00329(cons'd)     -0.00824         *
 * P              10      0.14166(cons'd)     -0.00099(cons'd)      0.00916         *
 * P              11      0.02325(cons'd)     -0.00151(cons'd)     -0.00628         *
 * P              12      0.14165(cons'd)     -0.00099(cons'd)      0.00916         *
 * P              13      0.01776(cons'd)     -0.00238(cons'd)      0.01304         *
 * P              14      0.01776(cons'd)     -0.00239(cons'd)      0.01304         *
 * P              15      0.55359(cons'd)     -0.77537(cons'd)      0.01783         *
 * P              16      0.55515(cons'd)      0.77647(cons'd)     -0.02102         *
 * In              1     -0.09507(cons'd)     -0.00150(cons'd)     -0.02894         *
 * In              2     -0.24991(cons'd)     -0.06141(cons'd)     -0.03651         *
 * In              3      0.10634(cons'd)      0.00003(cons'd)     -0.02896         *
 * In              4     -0.24991(cons'd)     -0.06141(cons'd)     -0.03651         *
 * In              5      0.10634(cons'd)      0.00004(cons'd)     -0.02896         *
 * In              6     -0.09505(cons'd)      0.00130(cons'd)      0.02946         *
 * In              7     -0.09505(cons'd)      0.00130(cons'd)      0.02946         *
 * In              8     -0.24617(cons'd)     -0.25744(cons'd)     -0.07693         *
 * In              9     -0.09507(cons'd)     -0.00150(cons'd)     -0.02894         *
 * In             10      0.10633(cons'd)     -0.00054(cons'd)      0.02962         *
 * In             11     -0.24992(cons'd)      0.06088(cons'd)      0.03687         *
 * In             12     -0.24617(cons'd)     -0.25743(cons'd)     -0.07693         *
 * In             13      0.10633(cons'd)     -0.00054(cons'd)      0.02962         *
 * In             14     -0.24992(cons'd)      0.06088(cons'd)      0.03686         *
 * In             15     -0.24615(cons'd)      0.25714(cons'd)      0.07740         *
 * In             16     -0.24615(cons'd)      0.25714(cons'd)      0.07740         *
 *                                                                                  *
 ************************************************************************************
 doing test perturbation to get energy scale for EXP preconditioner

                           -------------------------------
                                     Cell Contents
                           -------------------------------

            xxxxxxxxxxxxxxxxxxxxxxxxxxxxxxxxxxxxxxxxxxxxxxxxxxxxxxxxxxxxxxxxx
            x  Element         Atom        Fractional coordinates of atoms  x
            x                 Number           u          v          w      x
            x---------------------------------------------------------------x
            x  P                 1         0.753651   0.393008   0.376005   x
            x  P                 2         0.251420   0.253742   0.992482   x
            x  P                 3         0.753651   0.246181   0.885004   x
            x  P                 4         0.753651   0.465476   0.124783   x
            x  P                 5         0.251420   0.535323   0.751464   x
            x  P                 6         0.753651   0.966587   0.124783   x
            x  P                 7         0.251420   0.179403   0.247367   x
            x  P                 8         0.251420   0.033991   0.751464   x
            x  P                 9         0.251420   0.680736   0.247367   x
            x  P                10         0.753651   0.821162   0.628921   x
            x  P                11         0.753651   0.894119   0.376005   x
            x  P                12         0.753651   0.320052   0.628921   x
            x  P                13         0.251420   0.106440   0.500305   x
            x  P                14         0.251420   0.607773   0.500305   x
            x  P                15         0.753651   0.747292   0.885004   x
            x  P                16         0.251420   0.754812   0.992482   x
            x  In                1         0.502683   0.142926   0.373822   x
            x  In                2         0.000000   0.282865   0.757834   x
            x  In                3         0.502683   0.571602   0.625697   x
            x  In                4         0.000000   0.783976   0.757834   x
            x  In                5         0.502683   0.070270   0.625697   x
            x  In                6         0.000000   0.857634   0.502487   x
            x  In                7         0.000000   0.356523   0.502487   x
            x  In                8         0.502683   0.499638   0.875172   x
            x  In                9         0.502683   0.644258   0.373822   x
            x  In               10         0.000000   0.429185   0.250592   x
            x  In               11         0.502683   0.717935   0.118410   x
            x  In               12         0.502683   1.000458   0.875172   x
            x  In               13         0.000000   0.930296   0.250592   x
            x  In               14         0.502683   0.216602   0.118410   x
            x  In               15         0.000000   1.002289   0.001014   x
            x  In               16         0.000000   0.501178   0.001014   x
            xxxxxxxxxxxxxxxxxxxxxxxxxxxxxxxxxxxxxxxxxxxxxxxxxxxxxxxxxxxxxxxxx


------------------------------------------------------------------------ <-- SCF
SCF loop      Energy           Fermi           Energy gain       Timer   <-- SCF
                               energy          per atom          (sec)   <-- SCF
------------------------------------------------------------------------ <-- SCF
Initial  -3.14347139E+004  0.00000000E+000                       456.53  <-- SCF
      1  -3.14360452E+004  3.30655725E+000   4.16037637E-002     479.32  <-- SCF
      2  -3.14362084E+004  3.30645762E+000   5.09797363E-003     507.01  <-- SCF
      3  -3.14362100E+004  3.30561986E+000   5.03903416E-005     530.78  <-- SCF
      4  -3.14362112E+004  3.30485294E+000   3.83766800E-005     554.98  <-- SCF
      5  -3.14362114E+004  3.30465235E+000   4.39151097E-006     581.96  <-- SCF
      6  -3.14362114E+004  3.30449851E+000   6.72865634E-007     606.24  <-- SCF
      7  -3.14362114E+004  3.30437637E+000  -4.75726316E-008     627.57  <-- SCF
      8  -3.14362114E+004  3.30427999E+000  -7.68442451E-008     647.45  <-- SCF
      9  -3.14362114E+004  3.30424898E+000  -9.71131645E-009     665.63  <-- SCF
     10  -3.14362114E+004  3.30423008E+000   1.24961153E-009     683.15  <-- SCF
     11  -3.14362114E+004  3.30422889E+000   5.99573781E-010     699.59  <-- SCF
------------------------------------------------------------------------ <-- SCF
 
Final energy, E             =  -31436.20851923     eV
Final free energy (E-TS)    =  -31436.21137116     eV
(energies not corrected for finite basis set)
 
NB est. 0K energy (E-0.5TS)      =  -31436.20994520     eV
 

 ************************************** Forces **************************************
 *                                                                                  *
 *                           Cartesian components (eV/A)                            *
 * -------------------------------------------------------------------------------- *
 *                         x                    y                    z              *
 *                                                                                  *
 * P               1     -0.12410(cons'd)      0.00173(cons'd)      0.00041         *
 * P               2      0.56969(cons'd)      0.80857(cons'd)     -0.10166         *
 * P               3      0.50505(cons'd)     -0.72936(cons'd)      0.03196         *
 * P               4     -0.38260(cons'd)      0.09543(cons'd)     -0.07879         *
 * P               5     -0.22111(cons'd)     -0.10617(cons'd)      0.10067         *
 * P               6     -0.32699(cons'd)      0.00154(cons'd)     -0.06932         *
 * P               7      0.20081(cons'd)      0.10003(cons'd)      0.00853         *
 * P               8     -0.17174(cons'd)      0.01840(cons'd)      0.09382         *
 * P               9      0.15259(cons'd)     -0.01341(cons'd)      0.01153         *
 * P              10      0.06470(cons'd)     -0.09045(cons'd)      0.01486         *
 * P              11     -0.06696(cons'd)     -0.08845(cons'd)      0.00092         *
 * P              12      0.00528(cons'd)      0.00664(cons'd)      0.01532         *
 * P              13      0.07454(cons'd)      0.09815(cons'd)      0.01732         *
 * P              14      0.02778(cons'd)     -0.00981(cons'd)      0.01984         *
 * P              15      0.48204(cons'd)     -0.81347(cons'd)      0.03246         *
 * P              16      0.52355(cons'd)      0.73996(cons'd)     -0.09353         *
 * In              1     -0.17602(cons'd)      0.07803(cons'd)     -0.03571         *
 * In              2     -0.08851(cons'd)     -0.06144(cons'd)     -0.06842         *
 * In              3      0.06757(cons'd)     -0.01040(cons'd)     -0.03711         *
 * In              4     -0.14552(cons'd)     -0.13270(cons'd)     -0.03785         *
 * In              5      0.02487(cons'd)      0.08174(cons'd)     -0.03701         *
 * In              6      0.02304(cons'd)     -0.06997(cons'd)      0.02127         *
 * In              7      0.07155(cons'd)      0.00417(cons'd)      0.02065         *
 * In              8     -0.30171(cons'd)     -0.24261(cons'd)     -0.09364         *
 * In              9     -0.13639(cons'd)     -0.01063(cons'd)     -0.03500         *
 * In             10      0.27478(cons'd)      0.00285(cons'd)      0.02248         *
 * In             11     -0.23574(cons'd)      0.05710(cons'd)      0.12014         *
 * In             12     -0.35130(cons'd)     -0.31885(cons'd)     -0.08995         *
 * In             13      0.22453(cons'd)     -0.07115(cons'd)      0.02242         *
 * In             14     -0.27309(cons'd)      0.14191(cons'd)      0.12102         *
 * In             15     -0.16597(cons'd)      0.22459(cons'd)      0.05058         *
 * In             16     -0.12463(cons'd)      0.30802(cons'd)      0.05182         *
 *                                                                                  *
 ************************************************************************************
 EXP precond LBFGS => estimated parameter mu :  1.477       eV/A**2
 LBFGS: finished iteration     0 with enthalpy= -3.14362169E+004 eV
  
 +-----------+-----------------+-----------------+------------+-----+ <-- LBFGS
 | Parameter |      value      |    tolerance    |    units   | OK? | <-- LBFGS
 +-----------+-----------------+-----------------+------------+-----+ <-- LBFGS
 |  dE/ion   |   0.000000E+000 |   2.000000E-005 |         eV | No  | <-- LBFGS
 |  |F|max   |   9.943185E-001 |   1.000000E-003 |       eV/A | No  | <-- LBFGS
 |  |dR|max  |   2.816033E-015 |   1.000000E-003 |          A | No  | <-- LBFGS
 +-----------+-----------------+-----------------+------------+-----+ <-- LBFGS
  

================================================================================
 Starting LBFGS iteration          1 ...
================================================================================
  
 +------------+-------------+-------------+-----------------+ <-- min LBFGS
 |    Step    |   lambda    |   F.delta'  |    enthalpy     | <-- min LBFGS
 +------------+-------------+-------------+-----------------+ <-- min LBFGS
 |  previous  |    0.000000 |    0.148180 |   -31436.216892 | <-- min LBFGS
 +------------+-------------+-------------+-----------------+ <-- min LBFGS
  

--------------------------------------------------------------------------------
 LBFGS: starting iteration         1 with trial guess (lambda=  1.000000)
--------------------------------------------------------------------------------

                           -------------------------------
                                     Cell Contents
                           -------------------------------

            xxxxxxxxxxxxxxxxxxxxxxxxxxxxxxxxxxxxxxxxxxxxxxxxxxxxxxxxxxxxxxxxx
            x  Element         Atom        Fractional coordinates of atoms  x
            x                 Number           u          v          w      x
            x---------------------------------------------------------------x
            x  P                 1         0.750000   0.391723   0.375359   x
            x  P                 2         0.250000   0.252572  -0.008915   x
            x  P                 3         0.750000   0.245046   0.883842   x
            x  P                 4         0.750000   0.464252   0.123925   x
            x  P                 5         0.250000   0.533364   0.751007   x
            x  P                 6         0.750000  -0.035748   0.123925   x
            x  P                 7         0.250000   0.178787   0.246870   x
            x  P                 8         0.250000   0.033363   0.751007   x
            x  P                 9         0.250000   0.678788   0.246870   x
            x  P                10         0.750000  -0.181199   0.628158   x
            x  P                11         0.750000  -0.108277   0.375359   x
            x  P                12         0.750000   0.318801   0.628158   x
            x  P                13         0.250000   0.105843   0.499745   x
            x  P                14         0.250000   0.605843   0.499745   x
            x  P                15         0.750000  -0.254954   0.883842   x
            x  P                16         0.250000   0.752572  -0.008915   x
            x  In                1         0.500000   0.142396   0.373027   x
            x  In                2         0.000000   0.281707   0.756748   x
            x  In                3         0.500000   0.569776   0.624777   x
            x  In                4         0.000000  -0.218293   0.756748   x
            x  In                5         0.500000   0.069776   0.624777   x
            x  In                6         0.000000  -0.144821   0.502047   x
            x  In                7         0.000000   0.355179   0.502047   x
            x  In                8         0.500000   0.498021   0.873527   x
            x  In                9         0.500000   0.642396   0.373027   x
            x  In               10         0.000000   0.427813   0.250249   x
            x  In               11         0.500000   0.715899   0.118218   x
            x  In               12         0.500000  -0.001979   0.873527   x
            x  In               13         0.000000  -0.072187   0.250249   x
            x  In               14         0.500000   0.215899   0.118218   x
            x  In               15         0.000000  -0.000408   0.001416   x
            x  In               16         0.000000   0.499592   0.001416   x
            xxxxxxxxxxxxxxxxxxxxxxxxxxxxxxxxxxxxxxxxxxxxxxxxxxxxxxxxxxxxxxxxx


------------------------------------------------------------------------ <-- SCF
SCF loop      Energy           Fermi           Energy gain       Timer   <-- SCF
                               energy          per atom          (sec)   <-- SCF
------------------------------------------------------------------------ <-- SCF
Initial  -3.14349227E+004  0.00000000E+000                       718.23  <-- SCF
      1  -3.14360402E+004  3.31495197E+000   3.49217962E-002     741.03  <-- SCF
      2  -3.14362164E+004  3.31485521E+000   5.50732269E-003     768.75  <-- SCF
      3  -3.14362181E+004  3.31759246E+000   5.06740450E-005     792.58  <-- SCF
      4  -3.14362192E+004  3.32051442E+000   3.54431757E-005     816.87  <-- SCF
      5  -3.14362193E+004  3.32125674E+000   3.29110206E-006     844.32  <-- SCF
      6  -3.14362193E+004  3.32218282E+000   2.99088516E-007     868.59  <-- SCF
      7  -3.14362193E+004  3.32283617E+000  -4.39085417E-007     891.32  <-- SCF
      8  -3.14362193E+004  3.32338484E+000  -2.28730340E-007     912.45  <-- SCF
      9  -3.14362193E+004  3.32351230E+000  -3.62393144E-009     931.28  <-- SCF
     10  -3.14362193E+004  3.32355703E+000   2.94682490E-009     948.42  <-- SCF
     11  -3.14362193E+004  3.32356041E+000   7.06108819E-010     964.90  <-- SCF
------------------------------------------------------------------------ <-- SCF
 
Final energy, E             =  -31436.21700988     eV
Final free energy (E-TS)    =  -31436.21929438     eV
(energies not corrected for finite basis set)
 
NB est. 0K energy (E-0.5TS)      =  -31436.21815213     eV
 

 ******************************** Constrained Forces ********************************
 *                                                                                  *
 *                           Cartesian components (eV/A)                            *
 * -------------------------------------------------------------------------------- *
 *                         x                    y                    z              *
 *                                                                                  *
 * P               1      0.00000(cons'd)      0.00000(cons'd)      0.02027         *
 * P               2      0.00000(cons'd)      0.00000(cons'd)     -0.00744         *
 * P               3      0.00000(cons'd)      0.00000(cons'd)      0.00808         *
 * P               4      0.00000(cons'd)      0.00000(cons'd)      0.04761         *
 * P               5     -0.00000(cons'd)     -0.00000(cons'd)     -0.04784         *
 * P               6     -0.00000(cons'd)      0.00000(cons'd)      0.04761         *
 * P               7      0.00000(cons'd)      0.00000(cons'd)     -0.00258         *
 * P               8     -0.00000(cons'd)     -0.00000(cons'd)     -0.04784         *
 * P               9      0.00000(cons'd)      0.00000(cons'd)     -0.00258         *
 * P              10      0.00000(cons'd)     -0.00000(cons'd)      0.00185         *
 * P              11      0.00000(cons'd)      0.00000(cons'd)      0.02027         *
 * P              12      0.00000(cons'd)      0.00000(cons'd)      0.00185         *
 * P              13      0.00000(cons'd)      0.00000(cons'd)     -0.02355         *
 * P              14      0.00000(cons'd)     -0.00000(cons'd)     -0.02355         *
 * P              15      0.00000(cons'd)      0.00000(cons'd)      0.00808         *
 * P              16      0.00000(cons'd)      0.00000(cons'd)     -0.00745         *
 * In              1      0.00000(cons'd)      0.00000(cons'd)      0.00075         *
 * In              2      0.00000(cons'd)      0.00000(cons'd)     -0.00024         *
 * In              3      0.00000(cons'd)     -0.00000(cons'd)      0.02299         *
 * In              4      0.00000(cons'd)      0.00000(cons'd)     -0.00022         *
 * In              5      0.00000(cons'd)      0.00000(cons'd)      0.02300         *
 * In              6      0.00000(cons'd)      0.00000(cons'd)      0.00037         *
 * In              7      0.00000(cons'd)      0.00000(cons'd)      0.00036         *
 * In              8      0.00000(cons'd)      0.00000(cons'd)      0.00258         *
 * In              9      0.00000(cons'd)      0.00000(cons'd)      0.00074         *
 * In             10      0.00000(cons'd)      0.00000(cons'd)     -0.02207         *
 * In             11      0.00000(cons'd)      0.00000(cons'd)      0.00160         *
 * In             12      0.00000(cons'd)      0.00000(cons'd)      0.00259         *
 * In             13      0.00000(cons'd)      0.00000(cons'd)     -0.02208         *
 * In             14      0.00000(cons'd)      0.00000(cons'd)      0.00162         *
 * In             15      0.00000(cons'd)      0.00000(cons'd)     -0.00239         *
 * In             16      0.00000(cons'd)     -0.00000(cons'd)     -0.00241         *
 *                                                                                  *
 ************************************************************************************
  
 +------------+-------------+-------------+-----------------+ <-- min LBFGS
 |    Step    |   lambda    |   F.delta'  |    enthalpy     | <-- min LBFGS
 +------------+-------------+-------------+-----------------+ <-- min LBFGS
 |  previous  |    0.000000 |    0.148180 |   -31436.216892 | <-- min LBFGS
 | trial step |    1.000000 |   -0.047708 |   -31436.219294 | <-- min LBFGS
 +------------+-------------+-------------+-----------------+ <-- min LBFGS
  
 LBFGS: finished iteration     1 with enthalpy= -3.14362193E+004 eV
  
 +-----------+-----------------+-----------------+------------+-----+ <-- LBFGS
 | Parameter |      value      |    tolerance    |    units   | OK? | <-- LBFGS
 +-----------+-----------------+-----------------+------------+-----+ <-- LBFGS
 |  dE/ion   |   7.506798E-005 |   2.000000E-005 |         eV | No  | <-- LBFGS
 |  |F|max   |   4.783946E-002 |   1.000000E-003 |       eV/A | No  | <-- LBFGS
 |  |dR|max  |   1.110522E-002 |   1.000000E-003 |          A | No  | <-- LBFGS
 +-----------+-----------------+-----------------+------------+-----+ <-- LBFGS
  

================================================================================
 Starting LBFGS iteration          2 ...
================================================================================
  
 +------------+-------------+-------------+-----------------+ <-- min LBFGS
 |    Step    |   lambda    |   F.delta'  |    enthalpy     | <-- min LBFGS
 +------------+-------------+-------------+-----------------+ <-- min LBFGS
 |  previous  |    0.000000 |    0.055062 |   -31436.219294 | <-- min LBFGS
 +------------+-------------+-------------+-----------------+ <-- min LBFGS
  

--------------------------------------------------------------------------------
 LBFGS: starting iteration         2 with trial guess (lambda=  1.000000)
--------------------------------------------------------------------------------

                           -------------------------------
                                     Cell Contents
                           -------------------------------

            xxxxxxxxxxxxxxxxxxxxxxxxxxxxxxxxxxxxxxxxxxxxxxxxxxxxxxxxxxxxxxxxx
            x  Element         Atom        Fractional coordinates of atoms  x
            x                 Number           u          v          w      x
            x---------------------------------------------------------------x
            x  P                 1         0.750000   0.391690   0.375476   x
            x  P                 2         0.250000   0.252574  -0.008922   x
            x  P                 3         0.750000   0.245041   0.883857   x
            x  P                 4         0.750000   0.464170   0.124210   x
            x  P                 5         0.250000   0.533446   0.750722   x
            x  P                 6         0.750000  -0.035830   0.124210   x
            x  P                 7         0.250000   0.178779   0.246899   x
            x  P                 8         0.250000   0.033446   0.750722   x
            x  P                 9         0.250000   0.678779   0.246899   x
            x  P                10         0.750000  -0.181190   0.628126   x
            x  P                11         0.750000  -0.108310   0.375476   x
            x  P                12         0.750000   0.318810   0.628126   x
            x  P                13         0.250000   0.105882   0.499610   x
            x  P                14         0.250000   0.605882   0.499610   x
            x  P                15         0.750000  -0.254959   0.883857   x
            x  P                16         0.250000   0.752574  -0.008922   x
            x  In                1         0.500000   0.142391   0.373046   x
            x  In                2         0.000000   0.281747   0.756610   x
            x  In                3         0.500000   0.569772   0.624789   x
            x  In                4         0.000000  -0.218253   0.756610   x
            x  In                5         0.500000   0.069772   0.624789   x
            x  In                6         0.000000  -0.144815   0.502024   x
            x  In                7         0.000000   0.355186   0.502024   x
            x  In                8         0.500000   0.498044   0.873448   x
            x  In                9         0.500000   0.642391   0.373045   x
            x  In               10         0.000000   0.427816   0.250238   x
            x  In               11         0.500000   0.715856   0.118366   x
            x  In               12         0.500000  -0.001956   0.873448   x
            x  In               13         0.000000  -0.072184   0.250238   x
            x  In               14         0.500000   0.215856   0.118366   x
            x  In               15         0.000000  -0.000433   0.001502   x
            x  In               16         0.000000   0.499567   0.001502   x
            xxxxxxxxxxxxxxxxxxxxxxxxxxxxxxxxxxxxxxxxxxxxxxxxxxxxxxxxxxxxxxxxx


------------------------------------------------------------------------ <-- SCF
SCF loop      Energy           Fermi           Energy gain       Timer   <-- SCF
                               energy          per atom          (sec)   <-- SCF
------------------------------------------------------------------------ <-- SCF
Initial  -3.14362012E+004  0.00000000E+000                       983.47  <-- SCF
      1  -3.14362193E+004  3.32354404E+000   5.64952413E-004    1006.39  <-- SCF
      2  -3.14362199E+004  3.32354310E+000   1.95242627E-005    1034.23  <-- SCF
      3  -3.14362199E+004  3.32323408E+000  -4.81101985E-007    1058.02  <-- SCF
      4  -3.14362199E+004  3.32285945E+000  -5.48054133E-008    1082.20  <-- SCF
      5  -3.14362199E+004  3.32266560E+000  -1.40954943E-008    1101.00  <-- SCF
      6  -3.14362199E+004  3.32253365E+000  -2.11908052E-008    1119.31  <-- SCF
      7  -3.14362199E+004  3.32237674E+000  -1.56989336E-008    1138.01  <-- SCF
      8  -3.14362199E+004  3.32231011E+000  -1.54446803E-009    1155.20  <-- SCF
      9  -3.14362199E+004  3.32229816E+000   2.89636093E-010    1171.63  <-- SCF
------------------------------------------------------------------------ <-- SCF
 
Final energy, E             =  -31436.21759159     eV
Final free energy (E-TS)    =  -31436.21989643     eV
(energies not corrected for finite basis set)
 
NB est. 0K energy (E-0.5TS)      =  -31436.21874401     eV
 

 ******************************** Constrained Forces ********************************
 *                                                                                  *
 *                           Cartesian components (eV/A)                            *
 * -------------------------------------------------------------------------------- *
 *                         x                    y                    z              *
 *                                                                                  *
 * P               1      0.00000(cons'd)     -0.00000(cons'd)      0.00031         *
 * P               2      0.00000(cons'd)      0.00000(cons'd)      0.00083         *
 * P               3      0.00000(cons'd)      0.00000(cons'd)     -0.00081         *
 * P               4      0.00000(cons'd)      0.00000(cons'd)      0.00808         *
 * P               5     -0.00000(cons'd)     -0.00000(cons'd)     -0.00703         *
 * P               6      0.00000(cons'd)      0.00000(cons'd)      0.00809         *
 * P               7      0.00000(cons'd)      0.00000(cons'd)      0.00171         *
 * P               8     -0.00000(cons'd)     -0.00000(cons'd)     -0.00703         *
 * P               9      0.00000(cons'd)      0.00000(cons'd)      0.00171         *
 * P              10      0.00000(cons'd)      0.00000(cons'd)     -0.00190         *
 * P              11      0.00000(cons'd)     -0.00000(cons'd)      0.00031         *
 * P              12      0.00000(cons'd)     -0.00000(cons'd)     -0.00190         *
 * P              13      0.00000(cons'd)     -0.00000(cons'd)     -0.00047         *
 * P              14      0.00000(cons'd)      0.00000(cons'd)     -0.00047         *
 * P              15      0.00000(cons'd)     -0.00000(cons'd)     -0.00080         *
 * P              16      0.00000(cons'd)      0.00000(cons'd)      0.00083         *
 * In              1      0.00000(cons'd)      0.00000(cons'd)     -0.00460         *
 * In              2      0.00000(cons'd)      0.00000(cons'd)      0.01021         *
 * In              3     -0.00000(cons'd)     -0.00000(cons'd)     -0.00560         *
 * In              4      0.00000(cons'd)      0.00000(cons'd)      0.01020         *
 * In              5      0.00000(cons'd)     -0.00000(cons'd)     -0.00560         *
 * In              6      0.00000(cons'd)      0.00000(cons'd)      0.00463         *
 * In              7      0.00000(cons'd)     -0.00000(cons'd)      0.00463         *
 * In              8      0.00000(cons'd)      0.00000(cons'd)     -0.00939         *
 * In              9      0.00000(cons'd)      0.00000(cons'd)     -0.00459         *
 * In             10      0.00000(cons'd)      0.00000(cons'd)      0.00492         *
 * In             11      0.00000(cons'd)      0.00000(cons'd)     -0.00982         *
 * In             12      0.00000(cons'd)      0.00000(cons'd)     -0.00939         *
 * In             13      0.00000(cons'd)      0.00000(cons'd)      0.00492         *
 * In             14      0.00000(cons'd)      0.00000(cons'd)     -0.00983         *
 * In             15      0.00000(cons'd)      0.00000(cons'd)      0.00891         *
 * In             16      0.00000(cons'd)      0.00000(cons'd)      0.00892         *
 *                                                                                  *
 ************************************************************************************
  
 +------------+-------------+-------------+-----------------+ <-- min LBFGS
 |    Step    |   lambda    |   F.delta'  |    enthalpy     | <-- min LBFGS
 +------------+-------------+-------------+-----------------+ <-- min LBFGS
 |  previous  |    0.000000 |    0.055062 |   -31436.219294 | <-- min LBFGS
 | trial step |    1.000000 |    0.004705 |   -31436.219896 | <-- min LBFGS
 +------------+-------------+-------------+-----------------+ <-- min LBFGS
  
 LBFGS: finished iteration     2 with enthalpy= -3.14362199E+004 eV
  
 +-----------+-----------------+-----------------+------------+-----+ <-- LBFGS
 | Parameter |      value      |    tolerance    |    units   | OK? | <-- LBFGS
 +-----------+-----------------+-----------------+------------+-----+ <-- LBFGS
 |  dE/ion   |   1.881415E-005 |   2.000000E-005 |         eV | Yes | <-- LBFGS
 |  |F|max   |   1.021076E-002 |   1.000000E-003 |       eV/A | No  | <-- LBFGS
 |  |dR|max  |   4.759540E-003 |   1.000000E-003 |          A | No  | <-- LBFGS
 +-----------+-----------------+-----------------+------------+-----+ <-- LBFGS
  

================================================================================
 Starting LBFGS iteration          3 ...
================================================================================
  
 +------------+-------------+-------------+-----------------+ <-- min LBFGS
 |    Step    |   lambda    |   F.delta'  |    enthalpy     | <-- min LBFGS
 +------------+-------------+-------------+-----------------+ <-- min LBFGS
 |  previous  |    0.000000 |    0.016328 |   -31436.219896 | <-- min LBFGS
 +------------+-------------+-------------+-----------------+ <-- min LBFGS
  

--------------------------------------------------------------------------------
 LBFGS: starting iteration         3 with trial guess (lambda=  1.000000)
--------------------------------------------------------------------------------

                           -------------------------------
                                     Cell Contents
                           -------------------------------

            xxxxxxxxxxxxxxxxxxxxxxxxxxxxxxxxxxxxxxxxxxxxxxxxxxxxxxxxxxxxxxxxx
            x  Element         Atom        Fractional coordinates of atoms  x
            x                 Number           u          v          w      x
            x---------------------------------------------------------------x
            x  P                 1         0.750000   0.391681   0.375506   x
            x  P                 2         0.250000   0.252567  -0.008901   x
            x  P                 3         0.750000   0.245047   0.883838   x
            x  P                 4         0.750000   0.464135   0.124334   x
            x  P                 5         0.250000   0.533479   0.750606   x
            x  P                 6         0.750000  -0.035866   0.124334   x
            x  P                 7         0.250000   0.178766   0.246943   x
            x  P                 8         0.250000   0.033479   0.750606   x
            x  P                 9         0.250000   0.678766   0.246943   x
            x  P                10         0.750000  -0.181176   0.628078   x
            x  P                11         0.750000  -0.108319   0.375506   x
            x  P                12         0.750000   0.318824   0.628078   x
            x  P                13         0.250000   0.105892   0.499575   x
            x  P                14         0.250000   0.605892   0.499575   x
            x  P                15         0.750000  -0.254953   0.883838   x
            x  P                16         0.250000   0.752568  -0.008901   x
            x  In                1         0.500000   0.142398   0.373020   x
            x  In                2         0.000000   0.281743   0.756624   x
            x  In                3         0.500000   0.569796   0.624708   x
            x  In                4         0.000000  -0.218257   0.756624   x
            x  In                5         0.500000   0.069796   0.624708   x
            x  In                6         0.000000  -0.144821   0.502046   x
            x  In                7         0.000000   0.355179   0.502046   x
            x  In                8         0.500000   0.498077   0.873335   x
            x  In                9         0.500000   0.642398   0.373020   x
            x  In               10         0.000000   0.427794   0.250314   x
            x  In               11         0.500000   0.715858   0.118359   x
            x  In               12         0.500000  -0.001924   0.873335   x
            x  In               13         0.000000  -0.072206   0.250314   x
            x  In               14         0.500000   0.215858   0.118359   x
            x  In               15         0.000000  -0.000466   0.001615   x
            x  In               16         0.000000   0.499534   0.001615   x
            xxxxxxxxxxxxxxxxxxxxxxxxxxxxxxxxxxxxxxxxxxxxxxxxxxxxxxxxxxxxxxxxx


------------------------------------------------------------------------ <-- SCF
SCF loop      Energy           Fermi           Energy gain       Timer   <-- SCF
                               energy          per atom          (sec)   <-- SCF
------------------------------------------------------------------------ <-- SCF
Initial  -3.14362294E+004  0.00000000E+000                      1190.20  <-- SCF
      1  -3.14362196E+004  3.32246604E+000  -3.05771921E-004    1213.05  <-- SCF
      2  -3.14362200E+004  3.32246580E+000   1.24073826E-005    1241.19  <-- SCF
      3  -3.14362200E+004  3.32238481E+000   6.10948475E-008    1264.50  <-- SCF
      4  -3.14362200E+004  3.32224603E+000   3.68638301E-008    1285.42  <-- SCF
      5  -3.14362200E+004  3.32215935E+000   4.93232092E-009    1303.02  <-- SCF
      6  -3.14362200E+004  3.32209071E+000  -3.10034363E-009    1320.15  <-- SCF
------------------------------------------------------------------------ <-- SCF
 
Final energy, E             =  -31436.21774217     eV
Final free energy (E-TS)    =  -31436.22002682     eV
(energies not corrected for finite basis set)
 
NB est. 0K energy (E-0.5TS)      =  -31436.21888450     eV
 

 ******************************** Constrained Forces ********************************
 *                                                                                  *
 *                           Cartesian components (eV/A)                            *
 * -------------------------------------------------------------------------------- *
 *                         x                    y                    z              *
 *                                                                                  *
 * P               1      0.00000(cons'd)     -0.00000(cons'd)      0.00163         *
 * P               2      0.00000(cons'd)      0.00000(cons'd)     -0.00165         *
 * P               3      0.00000(cons'd)      0.00000(cons'd)      0.00188         *
 * P               4     -0.00000(cons'd)      0.00000(cons'd)     -0.00062         *
 * P               5     -0.00000(cons'd)      0.00000(cons'd)      0.00049         *
 * P               6      0.00000(cons'd)      0.00000(cons'd)     -0.00063         *
 * P               7      0.00000(cons'd)      0.00000(cons'd)     -0.00540         *
 * P               8     -0.00000(cons'd)     -0.00000(cons'd)      0.00049         *
 * P               9      0.00000(cons'd)      0.00000(cons'd)     -0.00540         *
 * P              10      0.00000(cons'd)      0.00000(cons'd)      0.00622         *
 * P              11      0.00000(cons'd)     -0.00000(cons'd)      0.00163         *
 * P              12      0.00000(cons'd)     -0.00000(cons'd)      0.00622         *
 * P              13      0.00000(cons'd)     -0.00000(cons'd)     -0.00131         *
 * P              14      0.00000(cons'd)     -0.00000(cons'd)     -0.00131         *
 * P              15      0.00000(cons'd)      0.00000(cons'd)      0.00188         *
 * P              16      0.00000(cons'd)      0.00000(cons'd)     -0.00164         *
 * In              1      0.00000(cons'd)      0.00000(cons'd)     -0.00080         *
 * In              2      0.00000(cons'd)      0.00000(cons'd)      0.00342         *
 * In              3      0.00000(cons'd)      0.00000(cons'd)     -0.00545         *
 * In              4      0.00000(cons'd)      0.00000(cons'd)      0.00342         *
 * In              5     -0.00000(cons'd)      0.00000(cons'd)     -0.00545         *
 * In              6      0.00000(cons'd)     -0.00000(cons'd)      0.00037         *
 * In              7      0.00000(cons'd)      0.00000(cons'd)      0.00037         *
 * In              8      0.00000(cons'd)      0.00000(cons'd)     -0.00802         *
 * In              9      0.00000(cons'd)      0.00000(cons'd)     -0.00080         *
 * In             10      0.00000(cons'd)      0.00000(cons'd)      0.00535         *
 * In             11      0.00000(cons'd)      0.00000(cons'd)     -0.00406         *
 * In             12      0.00000(cons'd)      0.00000(cons'd)     -0.00803         *
 * In             13      0.00000(cons'd)      0.00000(cons'd)      0.00535         *
 * In             14      0.00000(cons'd)      0.00000(cons'd)     -0.00406         *
 * In             15      0.00000(cons'd)      0.00000(cons'd)      0.00796         *
 * In             16      0.00000(cons'd)      0.00000(cons'd)      0.00796         *
 *                                                                                  *
 ************************************************************************************
  
 +------------+-------------+-------------+-----------------+ <-- min LBFGS
 |    Step    |   lambda    |   F.delta'  |    enthalpy     | <-- min LBFGS
 +------------+-------------+-------------+-----------------+ <-- min LBFGS
 |  previous  |    0.000000 |    0.016328 |   -31436.219896 | <-- min LBFGS
 | trial step |    1.000000 |    0.006439 |   -31436.220027 | <-- min LBFGS
 +------------+-------------+-------------+-----------------+ <-- min LBFGS
  

--------------------------------------------------------------------------------
 LBFGS: improving iteration         3 with line minimization (lambda=  1.651102)
--------------------------------------------------------------------------------

                           -------------------------------
                                     Cell Contents
                           -------------------------------

            xxxxxxxxxxxxxxxxxxxxxxxxxxxxxxxxxxxxxxxxxxxxxxxxxxxxxxxxxxxxxxxxx
            x  Element         Atom        Fractional coordinates of atoms  x
            x                 Number           u          v          w      x
            x---------------------------------------------------------------x
            x  P                 1         0.750000   0.391675   0.375525   x
            x  P                 2         0.250000   0.252563  -0.008887   x
            x  P                 3         0.750000   0.245050   0.883826   x
            x  P                 4         0.750000   0.464111   0.124414   x
            x  P                 5         0.250000   0.533501   0.750531   x
            x  P                 6         0.750000  -0.035889   0.124414   x
            x  P                 7         0.250000   0.178758   0.246972   x
            x  P                 8         0.250000   0.033501   0.750531   x
            x  P                 9         0.250000   0.678758   0.246972   x
            x  P                10         0.750000  -0.181167   0.628047   x
            x  P                11         0.750000  -0.108325   0.375525   x
            x  P                12         0.750000   0.318833   0.628047   x
            x  P                13         0.250000   0.105899   0.499551   x
            x  P                14         0.250000   0.605899   0.499551   x
            x  P                15         0.750000  -0.254950   0.883826   x
            x  P                16         0.250000   0.752564  -0.008887   x
            x  In                1         0.500000   0.142403   0.373004   x
            x  In                2         0.000000   0.281740   0.756633   x
            x  In                3         0.500000   0.569811   0.624656   x
            x  In                4         0.000000  -0.218260   0.756633   x
            x  In                5         0.500000   0.069811   0.624656   x
            x  In                6         0.000000  -0.144825   0.502061   x
            x  In                7         0.000000   0.355175   0.502061   x
            x  In                8         0.500000   0.498098   0.873261   x
            x  In                9         0.500000   0.642403   0.373004   x
            x  In               10         0.000000   0.427780   0.250363   x
            x  In               11         0.500000   0.715859   0.118354   x
            x  In               12         0.500000  -0.001902   0.873261   x
            x  In               13         0.000000  -0.072220   0.250363   x
            x  In               14         0.500000   0.215859   0.118354   x
            x  In               15         0.000000  -0.000487   0.001689   x
            x  In               16         0.000000   0.499513   0.001689   x
            xxxxxxxxxxxxxxxxxxxxxxxxxxxxxxxxxxxxxxxxxxxxxxxxxxxxxxxxxxxxxxxxx


------------------------------------------------------------------------ <-- SCF
SCF loop      Energy           Fermi           Energy gain       Timer   <-- SCF
                               energy          per atom          (sec)   <-- SCF
------------------------------------------------------------------------ <-- SCF
Initial  -3.14362262E+004  0.00000000E+000                      1338.74  <-- SCF
      1  -3.14362199E+004  3.32214641E+000  -1.97231801E-004    1361.68  <-- SCF
      2  -3.14362201E+004  3.32214631E+000   5.26482856E-006    1389.77  <-- SCF
      3  -3.14362201E+004  3.32208475E+000   1.97343107E-008    1411.99  <-- SCF
      4  -3.14362201E+004  3.32198370E+000   1.07204024E-008    1431.03  <-- SCF
      5  -3.14362201E+004  3.32191934E+000   1.04311530E-009    1447.88  <-- SCF
      6  -3.14362201E+004  3.32186113E+000  -2.35073139E-009    1465.21  <-- SCF
------------------------------------------------------------------------ <-- SCF
 
Final energy, E             =  -31436.21778809     eV
Final free energy (E-TS)    =  -31436.22006096     eV
(energies not corrected for finite basis set)
 
NB est. 0K energy (E-0.5TS)      =  -31436.21892452     eV
 

 ******************************** Constrained Forces ********************************
 *                                                                                  *
 *                           Cartesian components (eV/A)                            *
 * -------------------------------------------------------------------------------- *
 *                         x                    y                    z              *
 *                                                                                  *
 * P               1      0.00000(cons'd)      0.00000(cons'd)      0.00250         *
 * P               2      0.00000(cons'd)      0.00000(cons'd)     -0.00319         *
 * P               3      0.00000(cons'd)     -0.00000(cons'd)      0.00355         *
 * P               4      0.00000(cons'd)      0.00000(cons'd)     -0.00598         *
 * P               5     -0.00000(cons'd)     -0.00000(cons'd)      0.00516         *
 * P               6      0.00000(cons'd)      0.00000(cons'd)     -0.00598         *
 * P               7      0.00000(cons'd)      0.00000(cons'd)     -0.01009         *
 * P               8     -0.00000(cons'd)     -0.00000(cons'd)      0.00516         *
 * P               9      0.00000(cons'd)      0.00000(cons'd)     -0.01008         *
 * P              10      0.00000(cons'd)     -0.00000(cons'd)      0.01154         *
 * P              11      0.00000(cons'd)      0.00000(cons'd)      0.00250         *
 * P              12      0.00000(cons'd)      0.00000(cons'd)      0.01154         *
 * P              13      0.00000(cons'd)      0.00000(cons'd)     -0.00189         *
 * P              14      0.00000(cons'd)     -0.00000(cons'd)     -0.00189         *
 * P              15      0.00000(cons'd)     -0.00000(cons'd)      0.00354         *
 * P              16      0.00000(cons'd)      0.00000(cons'd)     -0.00319         *
 * In              1      0.00000(cons'd)      0.00000(cons'd)      0.00133         *
 * In              2      0.00000(cons'd)      0.00000(cons'd)     -0.00055         *
 * In              3     -0.00000(cons'd)      0.00000(cons'd)     -0.00608         *
 * In              4      0.00000(cons'd)      0.00000(cons'd)     -0.00054         *
 * In              5      0.00000(cons'd)      0.00000(cons'd)     -0.00608         *
 * In              6      0.00000(cons'd)      0.00000(cons'd)     -0.00208         *
 * In              7      0.00000(cons'd)      0.00000(cons'd)     -0.00208         *
 * In              8      0.00000(cons'd)      0.00000(cons'd)     -0.00793         *
 * In              9      0.00000(cons'd)      0.00000(cons'd)      0.00133         *
 * In             10      0.00000(cons'd)      0.00000(cons'd)      0.00628         *
 * In             11      0.00000(cons'd)      0.00000(cons'd)     -0.00069         *
 * In             12      0.00000(cons'd)      0.00000(cons'd)     -0.00793         *
 * In             13      0.00000(cons'd)      0.00000(cons'd)      0.00628         *
 * In             14      0.00000(cons'd)      0.00000(cons'd)     -0.00068         *
 * In             15      0.00000(cons'd)      0.00000(cons'd)      0.00812         *
 * In             16      0.00000(cons'd)      0.00000(cons'd)      0.00811         *
 *                                                                                  *
 ************************************************************************************
  
 +------------+-------------+-------------+-----------------+ <-- min LBFGS
 |    Step    |   lambda    |   F.delta'  |    enthalpy     | <-- min LBFGS
 +------------+-------------+-------------+-----------------+ <-- min LBFGS
 |  previous  |    0.000000 |    0.016328 |   -31436.219896 | <-- min LBFGS
 | trial step |    1.000000 |    0.006439 |   -31436.220027 | <-- min LBFGS
 |  line step |    1.651102 |    0.001142 |   -31436.220061 | <-- min LBFGS
 +------------+-------------+-------------+-----------------+ <-- min LBFGS
  
 LBFGS: finished iteration     3 with enthalpy= -3.14362201E+004 eV
  
 +-----------+-----------------+-----------------+------------+-----+ <-- LBFGS
 | Parameter |      value      |    tolerance    |    units   | OK? | <-- LBFGS
 +-----------+-----------------+-----------------+------------+-----+ <-- LBFGS
 |  dE/ion   |   5.141409E-006 |   2.000000E-005 |         eV | Yes | <-- LBFGS
 |  |F|max   |   1.154218E-002 |   1.000000E-003 |       eV/A | No  | <-- LBFGS
 |  |dR|max  |   3.408444E-003 |   1.000000E-003 |          A | No  | <-- LBFGS
 +-----------+-----------------+-----------------+------------+-----+ <-- LBFGS
  

================================================================================
 Starting LBFGS iteration          4 ...
[...]
 * In             12      0.00000(cons'd)      0.00000(cons'd)     -0.00025         *
 * In             13      0.00000(cons'd)      0.00000(cons'd)      0.00035         *
 * In             14      0.00000(cons'd)     -0.00000(cons'd)     -0.00073         *
 * In             15      0.00000(cons'd)      0.00000(cons'd)      0.00058         *
 * In             16      0.00000(cons'd)      0.00000(cons'd)      0.00058         *
 *                                                                                  *
 ************************************************************************************

 Pseudo atomic calculation performed for P 3s2 3p3

 Converged in 23 iterations to a total energy of -208.0292 eV

 Pseudo atomic calculation performed for In 4d10 5s2 5p1

 Converged in 42 iterations to a total energy of -1747.4500 eV
Charge spilling parameter for spin component 1 = 0.18%

            Orbital Populations       
     Ion    Atom   Orbital             Charge
  -------------------------------------------
      P     1      S                    1.738
      P     1      Px                   1.313
      P     1      Py                   1.314
      P     1      Pz                   1.308
      P     2      S                    1.785
      P     2      Px                   1.296
      P     2      Py                   1.206
      P     2      Pz                   1.354
      P     3      S                    1.784
      P     3      Px                   1.296
      P     3      Py                   1.206
      P     3      Pz                   1.354
      P     4      S                    1.739
      P     4      Px                   1.314
      P     4      Py                   1.326
      P     4      Pz                   1.289
      P     5      S                    1.739
      P     5      Px                   1.314
      P     5      Py                   1.326
      P     5      Pz                   1.289
      P     6      S                    1.739
      P     6      Px                   1.314
      P     6      Py                   1.326
      P     6      Pz                   1.289
      P     7      S                    1.740
      P     7      Px                   1.310
      P     7      Py                   1.305
      P     7      Pz                   1.311
      P     8      S                    1.739
      P     8      Px                   1.314
      P     8      Py                   1.326
      P     8      Pz                   1.289
      P     9      S                    1.740
      P     9      Px                   1.310
      P     9      Py                   1.305
      P     9      Pz                   1.311
      P    10      S                    1.740
      P    10      Px                   1.310
      P    10      Py                   1.305
      P    10      Pz                   1.311
      P    11      S                    1.738
      P    11      Px                   1.313
      P    11      Py                   1.314
      P    11      Pz                   1.308
      P    12      S                    1.740
      P    12      Px                   1.310
      P    12      Py                   1.305
      P    12      Pz                   1.311
      P    13      S                    1.738
      P    13      Px                   1.313
      P    13      Py                   1.314
      P    13      Pz                   1.308
      P    14      S                    1.738
      P    14      Px                   1.313
      P    14      Py                   1.314
      P    14      Pz                   1.308
      P    15      S                    1.784
      P    15      Px                   1.296
      P    15      Py                   1.206
      P    15      Pz                   1.354
      P    16      S                    1.785
      P    16      Px                   1.296
      P    16      Py                   1.206
      P    16      Pz                   1.354
     In     1      Dzz                  1.998
     In     1      Dzy                  1.999
     In     1      Dzx                  1.997
     In     1      Dxx-yy               1.999
     In     1      Dxy                  1.997
     In     1      S                    1.427
     In     1      Px                   0.481
     In     1      Py                   0.481
     In     1      Pz                   0.481
     In     1      S                   -0.522
     In     2      Dzz                  1.998
     In     2      Dzy                  1.999
     In     2      Dzx                  1.997
     In     2      Dxx-yy               1.999
     In     2      Dxy                  1.997
     In     2      S                    1.429
     In     2      Px                   0.480
     In     2      Py                   0.471
     In     2      Pz                   0.492
     In     2      S                   -0.486
     In     3      Dzz                  1.998
     In     3      Dzy                  1.999
     In     3      Dzx                  1.997
     In     3      Dxx-yy               1.999
     In     3      Dxy                  1.997
     In     3      S                    1.433
     In     3      Px                   0.479
     In     3      Py                   0.486
     In     3      Pz                   0.475
     In     3      S                   -0.527
     In     4      Dzz                  1.998
     In     4      Dzy                  1.999
     In     4      Dzx                  1.997
     In     4      Dxx-yy               1.999
     In     4      Dxy                  1.997
     In     4      S                    1.429
     In     4      Px                   0.480
     In     4      Py                   0.471
     In     4      Pz                   0.492
     In     4      S                   -0.486
     In     5      Dzz                  1.998
     In     5      Dzy                  1.999
     In     5      Dzx                  1.997
     In     5      Dxx-yy               1.999
     In     5      Dxy                  1.997
     In     5      S                    1.433
     In     5      Px                   0.479
     In     5      Py                   0.486
     In     5      Pz                   0.475
     In     5      S                   -0.527
     In     6      Dzz                  1.998
     In     6      Dzy                  1.999
     In     6      Dzx                  1.997
     In     6      Dxx-yy               1.999
     In     6      Dxy                  1.997
     In     6      S                    1.427
     In     6      Px                   0.481
     In     6      Py                   0.481
     In     6      Pz                   0.481
     In     6      S                   -0.522
     In     7      Dzz                  1.998
     In     7      Dzy                  1.999
     In     7      Dzx                  1.997
     In     7      Dxx-yy               1.999
     In     7      Dxy                  1.997
     In     7      S                    1.427
     In     7      Px                   0.481
     In     7      Py                   0.481
     In     7      Pz                   0.481
     In     7      S                   -0.522
     In     8      Dzz                  1.998
     In     8      Dzy                  1.999
     In     8      Dzx                  1.998
     In     8      Dxx-yy               1.999
     In     8      Dxy                  1.997
     In     8      S                    1.385
     In     8      Px                   0.454
     In     8      Py                   0.489
     In     8      Pz                   0.408
     In     8      S                   -0.423
     In     9      Dzz                  1.998
     In     9      Dzy                  1.999
     In     9      Dzx                  1.997
     In     9      Dxx-yy               1.999
     In     9      Dxy                  1.997
     In     9      S                    1.427
     In     9      Px                   0.481
     In     9      Py                   0.481
     In     9      Pz                   0.481
     In     9      S                   -0.522
     In    10      Dzz                  1.998
     In    10      Dzy                  1.999
     In    10      Dzx                  1.997
     In    10      Dxx-yy               1.999
     In    10      Dxy                  1.997
     In    10      S                    1.433
     In    10      Px                   0.478
     In    10      Py                   0.486
     In    10      Pz                   0.475
     In    10      S                   -0.526
     In    11      Dzz                  1.998
     In    11      Dzy                  1.999
     In    11      Dzx                  1.997
     In    11      Dxx-yy               1.999
     In    11      Dxy                  1.997
     In    11      S                    1.429
     In    11      Px                   0.480
     In    11      Py                   0.471
     In    11      Pz                   0.492
     In    11      S                   -0.486
     In    12      Dzz                  1.998
     In    12      Dzy                  1.999
     In    12      Dzx                  1.998
     In    12      Dxx-yy               1.999
     In    12      Dxy                  1.997
     In    12      S                    1.385
     In    12      Px                   0.454
     In    12      Py                   0.489
     In    12      Pz                   0.408
     In    12      S                   -0.423
     In    13      Dzz                  1.998
     In    13      Dzy                  1.999
     In    13      Dzx                  1.997
     In    13      Dxx-yy               1.999
     In    13      Dxy                  1.997
     In    13      S                    1.433
     In    13      Px                   0.478
     In    13      Py                   0.486
     In    13      Pz                   0.475
     In    13      S                   -0.526
     In    14      Dzz                  1.998
     In    14      Dzy                  1.999
     In    14      Dzx                  1.997
     In    14      Dxx-yy               1.999
     In    14      Dxy                  1.997
     In    14      S                    1.429
     In    14      Px                   0.480
     In    14      Py                   0.471
     In    14      Pz                   0.492
     In    14      S                   -0.486
     In    15      Dzz                  1.998
     In    15      Dzy                  1.999
     In    15      Dzx                  1.998
     In    15      Dxx-yy               1.999
     In    15      Dxy                  1.997
     In    15      S                    1.385
     In    15      Px                   0.454
     In    15      Py                   0.489
     In    15      Pz                   0.408
     In    15      S                   -0.423
     In    16      Dzz                  1.998
     In    16      Dzy                  1.999
     In    16      Dzx                  1.998
     In    16      Dxx-yy               1.999
     In    16      Dxy                  1.997
     In    16      S                    1.385
     In    16      Px                   0.454
     In    16      Py                   0.489
     In    16      Pz                   0.408
     In    16      S                   -0.423
  -------------------------------------------
                           Total:     288.000
  -------------------------------------------

     Atomic Populations (Mulliken)
     -----------------------------
Species          Ion     s       p       d       f      Total   Charge (e)
==========================================================================
  P               1     1.738   3.935   0.000   0.000   5.673    -0.673
  P               2     1.785   3.856   0.000   0.000   5.641    -0.641
  P               3     1.784   3.856   0.000   0.000   5.641    -0.641
  P               4     1.739   3.929   0.000   0.000   5.668    -0.668
  P               5     1.739   3.929   0.000   0.000   5.668    -0.668
  P               6     1.739   3.929   0.000   0.000   5.668    -0.668
  P               7     1.740   3.926   0.000   0.000   5.666    -0.666
  P               8     1.739   3.929   0.000   0.000   5.668    -0.668
  P               9     1.740   3.926   0.000   0.000   5.666    -0.666
  P              10     1.740   3.926   0.000   0.000   5.666    -0.666
  P              11     1.738   3.935   0.000   0.000   5.673    -0.673
  P              12     1.740   3.926   0.000   0.000   5.666    -0.666
  P              13     1.738   3.935   0.000   0.000   5.673    -0.673
  P              14     1.738   3.935   0.000   0.000   5.673    -0.673
  P              15     1.784   3.856   0.000   0.000   5.641    -0.641
  P              16     1.785   3.856   0.000   0.000   5.641    -0.641
  In              1     0.905   1.443   9.990   0.000  12.338     0.662
  In              2     0.943   1.443   9.990   0.000  12.375     0.625
  In              3     0.906   1.440   9.989   0.000  12.335     0.665
  In              4     0.943   1.443   9.990   0.000  12.375     0.625
  In              5     0.906   1.440   9.989   0.000  12.335     0.665
  In              6     0.905   1.443   9.990   0.000  12.338     0.662
  In              7     0.905   1.443   9.990   0.000  12.338     0.662
  In              8     0.962   1.351   9.991   0.000  12.304     0.696
  In              9     0.905   1.443   9.990   0.000  12.338     0.662
  In             10     0.906   1.440   9.989   0.000  12.335     0.665
  In             11     0.943   1.443   9.990   0.000  12.375     0.625
  In             12     0.962   1.351   9.991   0.000  12.304     0.696
  In             13     0.906   1.440   9.989   0.000  12.335     0.665
  In             14     0.943   1.443   9.990   0.000  12.375     0.625
  In             15     0.962   1.351   9.991   0.000  12.304     0.696
  In             16     0.962   1.351   9.991   0.000  12.304     0.696
==========================================================================

                 Bond                   Population      Length (A)
======================================================================
              P 6  -- In 15                  0.69        2.52292
              P 4  -- In 16                  0.69        2.52292
              P 5  -- In 8                   0.69        2.52295
              P 8  -- In 12                  0.69        2.52295
              P 13 -- In 6                   0.62        2.55573
              P 14 -- In 7                   0.62        2.55573
              P 14 -- In 6                   0.62        2.55573
              P 13 -- In 7                   0.62        2.55573
              P 11 -- In 1                   0.62        2.55573
              P 1  -- In 9                   0.62        2.55573
              P 11 -- In 9                   0.62        2.55573
              P 1  -- In 1                   0.62        2.55573
              P 10 -- In 5                   0.63        2.55606
              P 12 -- In 3                   0.63        2.55606
              P 10 -- In 3                   0.63        2.55606
              P 12 -- In 5                   0.63        2.55606
              P 9  -- In 10                  0.63        2.55606
              P 7  -- In 13                  0.63        2.55606
              P 9  -- In 13                  0.63        2.55606
              P 7  -- In 10                  0.63        2.55606
              P 14 -- In 3                   0.61        2.55627
              P 13 -- In 5                   0.61        2.55627
              P 11 -- In 13                  0.61        2.55717
              P 1  -- In 10                  0.61        2.55717
              P 4  -- In 11                  0.58        2.55748
              P 6  -- In 14                  0.58        2.55748
              P 6  -- In 11                  0.57        2.55748
              P 4  -- In 14                  0.57        2.55749
              P 8  -- In 4                   0.58        2.55750
              P 5  -- In 2                   0.58        2.55750
              P 5  -- In 4                   0.57        2.55750
              P 8  -- In 2                   0.57        2.55751
              P 15 -- In 12                  0.64        2.56178
              P 3  -- In 8                   0.64        2.56178
              P 15 -- In 8                   0.69        2.56178
              P 3  -- In 12                  0.69        2.56178
              P 16 -- In 16                  0.64        2.56180
              P 2  -- In 15                  0.64        2.56180
              P 16 -- In 15                  0.69        2.56180
              P 2  -- In 16                  0.69        2.56180
              P 5  -- In 3                   0.60        2.56787
              P 8  -- In 5                   0.60        2.56787
              P 6  -- In 13                  0.60        2.56898
              P 4  -- In 10                  0.60        2.56898
              P 10 -- In 6                   0.61        2.56931
              P 12 -- In 7                   0.61        2.56931
              P 9  -- In 9                   0.61        2.57000
              P 7  -- In 1                   0.61        2.57000
              P 11 -- In 6                   0.60        2.57639
              P 1  -- In 7                   0.60        2.57639
              P 13 -- In 1                   0.60        2.57671
              P 14 -- In 9                   0.60        2.57671
              P 3  -- In 2                   0.61        2.58509
              P 15 -- In 4                   0.61        2.58509
              P 2  -- In 14                  0.60        2.58575
              P 16 -- In 11                  0.60        2.58575
              P 10 -- In 4                   0.55        2.60428
              P 12 -- In 2                   0.55        2.60428
              P 9  -- In 11                  0.55        2.60488
              P 7  -- In 14                  0.55        2.60488
======================================================================


     Hirshfeld Analysis
     ------------------
Species   Ion     Hirshfeld Charge (e)
======================================
  P        1                -0.24
  P        2                -0.26
  P        3                -0.26
  P        4                -0.23
  P        5                -0.23
  P        6                -0.23
  P        7                -0.24
  P        8                -0.23
  P        9                -0.24
  P       10                -0.24
  P       11                -0.24
  P       12                -0.24
  P       13                -0.24
  P       14                -0.24
  P       15                -0.26
  P       16                -0.26
  In       1                 0.24
  In       2                 0.22
  In       3                 0.24
  In       4                 0.22
  In       5                 0.24
  In       6                 0.24
  In       7                 0.24
  In       8                 0.27
  In       9                 0.24
  In      10                 0.24
  In      11                 0.22
  In      12                 0.27
  In      13                 0.24
  In      14                 0.22
  In      15                 0.27
  In      16                 0.27
======================================

 
 A BibTeX formatted list of references used in this run has been written to 
 StackingFaultStructs_(1_1_0)_(1_-1_0)_5.bib
 
Initialisation time =     22.50 s
Calculation time    =   2079.93 s
Finalisation time   =      1.77 s
Total time          =   2104.20 s
Peak Memory Use     = 2762532 kB
 
Overall parallel efficiency rating: Mediocre (56%)
 
Data was distributed by:-
G-vector (6-way); efficiency rating: Mediocre (58%)
k-point (40-way); efficiency rating: Excellent (92%)
