 +-------------------------------------------------+
 |                                                 |
 |      CCC   AA    SSS  TTTTT  EEEEE  PPPP        |
 |     C     A  A  S       T    E      P   P       |
 |     C     AAAA   SS     T    EEE    PPPP        |
 |     C     A  A     S    T    E      P           |
 |      CCC  A  A  SSS     T    EEEEE  P           |
 |                                                 |
 +-------------------------------------------------+
 |                                                 |
 | Welcome to Academic Release CASTEP version 22.11|
 | Ab Initio Total Energy Program                  |
 |                                                 |
 | Authors:                                        |
 | M. Segall, M. Probert, C. Pickard, P. Hasnip,   |
 | S. Clark, K. Refson, J. R. Yates, M. Payne      |
 |                                                 |
 | Contributors:                                   |
 | P. Lindan, P. Haynes, J. White, V. Milman,      |
 | N. Govind, M. Gibson, P. Tulip, V. Cocula,      |
 | B. Montanari, D. Quigley, M. Glover,            |
 | L. Bernasconi, A. Perlov, M. Plummer,           |
 | E. McNellis, J. Meyer, J. Gale, D. Jochym       |
 | J. Aarons, B. Walker, R. Gillen, D. Jones       |
 | T. Green, I. J. Bush, C. J. Armstrong,          |
 | E. J. Higgins, E. L. Brown, M. S. McFly,        |
 | J. Wilkins, B-C. Shih, P. J. P. Byrne,          |
 | R. J. Maurer, J. C. Womack, J. Dziedzic,        |
 | A. Bartok-Partay, L. LeBlanc, T. K. Stenczel,   |
 | J. Kermode, S. Sturniolo, B. Shi, B. Durham     |
 | M. Evans, M. J. Smith                           |
 |                                                 |
 | Copyright (c) 2000 - 2021                       |
 |                                                 |
 |     Distributed under license from Cambridge    |
 |     Enterprise for academic use only.           |
 |                                                 |
 | Please cite                                     |
 |                                                 |
 |     "First principles methods using CASTEP"     |
 |                                                 |
 |         Zeitschrift fuer Kristallographie       |
 |           220(5-6) pp. 567-570 (2005)           |
 |                                                 |
 | S. J. Clark, M. D. Segall, C. J. Pickard,       |
 | P. J. Hasnip, M. J. Probert, K. Refson,         |
 | M. C. Payne                                     |
 |                                                 |
 |       in all publications arising from          |
 |              your use of CASTEP                 |
 |                                                 |
 +-------------------------------------------------+
 |                                                 |
 |              http://www.castep.org              |
 |                                                 |
 +-------------------------------------------------+



 Compiled for linux_x86_64_gfortran10-XT on Thu, 16 Mar 2023 13:12:36 +0000
 from code version Version unavailable
 Compiler: GNU Fortran 11.2.0; Optimisation: fast
 MATHLIBS: LibSci (LAPACK version 3.10.1)
 FFT Lib : fftw3 version commercial-fftw-3.3.10-sse2-avx-avx2-avx2_128
 Fundamental constants values: CODATA 2014

 Run started: Mon, 25 Mar 2024 18:54:34 +0000

 Atomic calculation performed for P: 1s2 2s2 2p6 3s2 3p3

 Converged in 47 iterations to an ae energy of -9309.074 eV

   ============================================================                
   | Pseudopotential Report - Date of generation 25-03-2024   |                
   ------------------------------------------------------------                
   | Element: P Ionic charge:  5.00 Level of theory: RSCAN    |                
   | Atomic Solver: Koelling-Harmon                           |                
   |                                                          |                
   |               Reference Electronic Structure             |                
   |         Orbital         Occupation         Energy        |                
   |            3s              2.000           -0.535        |                
   |            3p              3.000           -0.209        |                
   |                                                          |                
   |                 Pseudopotential Definition               |                
   |        Beta     l      e      Rc     scheme   norm       |                
   |          1      0   -0.535   1.807     qc      0         |                
   |          2      0    0.250   1.807     qc      0         |                
   |          3      1   -0.209   1.807     qc      0         |                
   |          4      1    0.250   1.807     qc      0         |                
   |          5      2    0.000   1.807     qc      0         |                
   |          6      2    0.250   1.807     qc      0         |                
   |         loc     3    0.000   1.807     pn      0         |                
   |                                                          |                
   | Augmentation charge Rinner = 1.263                       |                
   | Partial core correction Rc = 1.263                       |                
   ------------------------------------------------------------                
   | "3|1.8|4|4|5|30:31:32"                                   |                
   ------------------------------------------------------------                
   |      Author: Chris J. Pickard, Cambridge University      |                
   ============================================================                
 Warning: otfg_output_psp cannot write out meta-GGA pseudopotentials presently.

 Atomic calculation performed for In:
 1s2 2s2 2p6 3s2 3p6 3d10 4s2 4p6 4d10 5s2 5p1

 Converged in 84 iterations to an ae energy of -160093.327 eV

   ============================================================                
   | Pseudopotential Report - Date of generation 25-03-2024   |                
   ------------------------------------------------------------                
   | Element: In Ionic charge: 13.00 Level of theory: RSCAN   |                
   | Atomic Solver: Koelling-Harmon                           |                
   |                                                          |                
   |               Reference Electronic Structure             |                
   |         Orbital         Occupation         Energy        |                
   |            4d             10.000           -0.711        |                
   |            5s              2.000           -0.313        |                
   |            5p              1.000           -0.095        |                
   |                                                          |                
   |                 Pseudopotential Definition               |                
   |        Beta     l      e      Rc     scheme   norm       |                
   |          1      0   -0.313   2.501     qc      0         |                
   |          2      0    0.250   2.501     qc      0         |                
   |          3      1   -0.095   2.501     qc      0         |                
   |          4      1    0.250   2.501     qc      0         |                
   |          5      2   -0.711   2.207     qc      0         |                
   |          6      2    0.250   2.207     qc      0         |                
   |         loc     3    0.000   2.501     pn      0         |                
   |                                                          |                
   | Augmentation charge Rinner = 1.504                       |                
   | Partial core correction Rc = 1.504                       |                
   ------------------------------------------------------------                
   | "3|2.5|2.5|1.5|7|8|9|50:51:42U2.2U2.2"                   |                
   ------------------------------------------------------------                
   |      Author: Chris J. Pickard, Cambridge University      |                
   ============================================================                
 Warning: otfg_output_psp cannot write out meta-GGA pseudopotentials presently.

 Pseudo atomic calculation performed for P 3s2 3p3

 Converged in 23 iterations to a total energy of -208.0292 eV

 Pseudo atomic calculation performed for In 4d10 5s2 5p1

 Converged in 42 iterations to a total energy of -1747.4500 eV
 Calculation parallelised over 252 processes.
 Data is distributed by G-vector(7-way) and k-point(36-way)
 Each process may use up to 2 threads.

 ************************************ Title ************************************
 

 ***************************** General Parameters ******************************
  
 output verbosity                               : normal  (1)
 write checkpoint data to                       : StackingFaultStructs_(1_1_1)_(1_1_-2)_3.check
 type of calculation                            : geometry optimization
 stress calculation                             : off
 density difference calculation                 : off
 electron localisation func (ELF) calculation   : off
 Hirshfeld analysis                             : on
 polarisation (Berry phase) analysis            : off
 molecular orbital projected DOS                : off
 deltaSCF calculation                           : off
 unlimited duration calculation
 timing information                             : on
 memory usage estimate                          : on
 write extra output files                       : on
 write final potential to formatted file        : off
 write final density to formatted file          : off
 write BibTeX reference list                    : on
 write OTFG pseudopotential files               : on
 write electrostatic potential file             : on
 write bands file                               : on
 checkpoint writing                             : off
  
 output         length unit                     : A
 output           mass unit                     : amu
 output           time unit                     : ps
 output         charge unit                     : e
 output           spin unit                     : hbar/2
 output         energy unit                     : eV
 output          force unit                     : eV/A
 output       velocity unit                     : A/ps
 output       pressure unit                     : GPa
 output     inv_length unit                     : 1/A
 output      frequency unit                     : cm-1
 output force constant unit                     : eV/A**2
 output         volume unit                     : A**3
 output   IR intensity unit                     : (D/A)**2/amu
 output         dipole unit                     : D
 output         efield unit                     : eV/A/e
 output        entropy unit                     : J/mol/K
 output    efield chi2 unit                     : pm/V
  
 wavefunctions paging                           : none
 random number generator seed                   : randomised (185434477)
 data distribution                              : optimal for this architecture
 optimization strategy                          : balance speed and memory

 *********************** Exchange-Correlation Parameters ***********************
  
 using functional                               : RSCAN
 relativistic treatment                         : Koelling-Harmon
 DFT+D: Semi-empirical dispersion correction    : off

 ************************* Pseudopotential Parameters **************************
  
 pseudopotential representation                 : reciprocal space
 <beta|phi> representation                      : reciprocal space
 spin-orbit coupling                            : off

 **************************** Basis Set Parameters *****************************
  
 plane wave basis set cut-off                   :   900.0000   eV
 size of standard grid                          :     2.0000
 size of   fine   gmax                          :    30.7390   1/A
 finite basis set correction                    : none

 **************************** Electronic Parameters ****************************
  
 number of  electrons                           :  432.0    
 net charge of system                           :  0.000    
 treating system as non-spin-polarized
 number of bands                                :        259

 ********************* Electronic Minimization Parameters **********************
  
 Method: Treating system as metallic with density mixing treatment of electrons,
         and number of  SD  steps               :          1
         and number of  CG  steps               :          4
  
 total energy / atom convergence tol.           : 0.1000E-07   eV
 eigen-energy convergence tolerance             : 0.2222E-08   eV
 max force / atom convergence tol.              : ignored
 convergence tolerance window                   :          3   cycles
 max. number of SCF cycles                      :         50
 number of fixed-spin iterations                :         10
 smearing scheme                                : Gaussian
 smearing width                                 : 0.2000       eV
 Fermi energy convergence tolerance             : 0.2721E-13   eV
 periodic dipole correction                     : NONE

 ************************** Density Mixing Parameters **************************
  
 density-mixing scheme                          : Pulay
 max. length of mixing history                  :         15
 charge density mixing amplitude                : 0.5000    
 cut-off energy for mixing                      :  900.0       eV

 *********************** Population Analysis Parameters ************************
  
 Population analysis with cutoff                :  3.000       A
 Population analysis output                     : summary and pdos components

 ********************** Geometry Optimization Parameters ***********************
  
 optimization method                            : LBFGS
 max. no. of LBFGS updates                      : unbounded
 preconditioned LBFGS is activated
 preconditioner type                            : EXP
     stabilization constant                     :     0.1000
     parameter A                                :     3.0000
     nearest neighbor distance                  : automatic
     cut-off distance                           : automatic
     parameter mu                               : automatic
 variable cell method                           : fixed basis quality
 max. number of steps                           :         30
 estimated bulk modulus                         :  500.0       GPa
 estimated <frequency>                          :  1668.       cm-1
 geom line minimiser                            : on
 with line minimiser tolerance                  :     0.4000
 total energy convergence tolerance             : 0.2000E-04   eV/atom
        max ionic |force| tolerance             : 0.1000E-02   eV/A
 max ionic |displacement| tolerance             : 0.1000E-02   A
   max |stress component| tolerance             : 0.1000       GPa
 convergence tolerance window                   :          2   steps
 backup results every                           :          5   steps
 write geom trajectory file                     : on

 *******************************************************************************
  

                           -------------------------------
                                      Unit Cell
                           -------------------------------
        Real Lattice(A)                      Reciprocal Lattice(1/A)
     8.3456610     0.0000000     0.0000000        0.752868503   0.000000000   0.000000000
     0.0000000    14.4551090     0.0000000        0.000000000   0.434668829  -0.106392908
     0.0000000     2.5018460    10.2213060        0.000000000   0.000000000   0.614714529

                       Lattice parameters(A)       Cell Angles
                    a =      8.345661          alpha =   76.246254
                    b =     14.455109          beta  =   90.000000
                    c =     10.523038          gamma =   90.000000

                       Current cell volume =          1233.072183       A**3
                                   density =             2.837630   AMU/A**3
                                           =             4.711995     g/cm^3

                           -------------------------------
                                     Cell Contents
                           -------------------------------
                         Total number of ions in cell =   48
                      Total number of species in cell =    2
                        Max number of any one species =   24

            xxxxxxxxxxxxxxxxxxxxxxxxxxxxxxxxxxxxxxxxxxxxxxxxxxxxxxxxxxxx
            x  Element    Atom        Fractional coordinates of atoms  x
            x            Number           u          v          w      x
            x----------------------------------------------------------x
            x  P            1         0.000000   0.366077   0.773775   x 
            x  P            2         0.000000   0.761342   0.415952   x 
            x  P            3         0.250000   0.616077   0.773775   x 
            x  P            4         0.750000   0.616077   0.773775   x 
            x  P            5         0.250000   0.116077   0.773775   x 
            x  P            6         0.750000   0.116077   0.773775   x 
            x  P            7         0.500000   0.153529   0.075909   x 
            x  P            8         0.500000   0.366077   0.773775   x 
            x  P            9         0.000000   0.653528   0.075909   x 
            x  P           10         0.000000   0.153529   0.075909   x 
            x  P           11         0.250000   0.403528   0.075909   x 
            x  P           12         0.000000   0.261342   0.415952   x 
            x  P           13         0.250000   0.011342   0.415952   x 
            x  P           14         0.000000  -0.133923   0.773775   x 
            x  P           15         0.500000  -0.133923   0.773775   x 
            x  P           16         0.750000   0.403528   0.075909   x 
            x  P           17         0.500000   0.653528   0.075909   x 
            x  P           18         0.750000   0.903529   0.075909   x 
            x  P           19         0.250000   0.903529   0.075909   x 
            x  P           20         0.500000   0.761342   0.415952   x 
            x  P           21         0.500000   0.261342   0.415952   x 
            x  P           22         0.750000   0.511342   0.415952   x 
            x  P           23         0.750000   0.011342   0.415952   x 
            x  P           24         0.250000   0.511342   0.415952   x 
            x  In           1         0.500000   0.717191   0.671044   x 
            x  In           2         0.750000  -0.032809   0.671044   x 
            x  In           3         0.250000   0.752771  -0.016011   x 
            x  In           4         0.750000   0.752771  -0.016011   x 
            x  In           5         0.250000  -0.032809   0.671044   x 
            x  In           6         0.500000   0.217191   0.671044   x 
            x  In           7         0.500000   0.502771  -0.016011   x 
            x  In           8         0.250000   0.859667   0.329330   x 
            x  In           9         0.500000   0.609667   0.329330   x 
            x  In          10         0.750000   0.252771  -0.016011   x 
            x  In          11         0.750000   0.359667   0.329330   x 
            x  In          12         0.000000   0.109667   0.329330   x 
            x  In          13         0.000000   0.002771  -0.016011   x 
            x  In          14         0.000000   0.609667   0.329330   x 
            x  In          15         0.250000   0.467191   0.671044   x 
            x  In          16         0.000000   0.502771  -0.016011   x 
            x  In          17         0.250000   0.252771  -0.016011   x 
            x  In          18         0.000000   0.717191   0.671044   x 
            x  In          19         0.000000   0.217191   0.671044   x 
            x  In          20         0.750000   0.859667   0.329330   x 
            x  In          21         0.250000   0.359667   0.329330   x 
            x  In          22         0.500000   0.002771  -0.016011   x 
            x  In          23         0.500000   0.109667   0.329330   x 
            x  In          24         0.750000   0.467191   0.671044   x 
            xxxxxxxxxxxxxxxxxxxxxxxxxxxxxxxxxxxxxxxxxxxxxxxxxxxxxxxxxxxx


                         No user defined ionic velocities

                           -------------------------------
                                   Details of Species
                           -------------------------------

                               Mass of species in AMU
                                    P   30.9737600
                                    In  114.8180000

                          Electric Quadrupole Moment (Barn)
                                    P    1.0000000 No Isotope Defined
                                    In    0.7700000 Isotope115

                          Files used for pseudopotentials:
                                    P 3|1.8|4|4|5|30:31:32
                                    In 3|2.5|2.5|1.5|7|8|9|50:51:42U2.2U2.2

                           -------------------------------
                              k-Points For BZ Sampling
                           -------------------------------
                       MP grid size for SCF calculation is  4  4  4
                            with an offset of   0.125  0.125  0.125
                       Number of kpoints used =            36

                           -------------------------------
                               Symmetry and Constraints
                           -------------------------------

                      Cell is a supercell containing 8 primitive cells
                      Maximum deviation from symmetry =  0.00000         ANG

                      Number of symmetry operations   =           1
                      Number of ionic constraints     =          96
                      Point group of crystal =     1: C1, 1, 1
                      Space group of crystal =     8: Cm, C -2y

             Set iprint > 1 for details on symmetry rotations/translations

                         Centre of mass is NOT constrained
             Set iprint > 1 for details of linear ionic constraints

                         Number of cell constraints= 6
                         Cell constraints are:  0 0 0 0 0 0

                         External pressure/stress (GPa)
                          0.00000   0.00000   0.00000
                                    0.00000   0.00000
                                              0.00000
 
+---------------- MEMORY AND SCRATCH DISK ESTIMATES PER PROCESS --------------+
|                                                     Memory          Disk    |
| Baseline code, static data and system overhead      488.0 MB         0.0 MB |
| BLAS internal memory storage                          0.0 MB         0.0 MB |
| Model and support data                             1459.6 MB         0.0 MB |
| Electronic energy minimisation requirements         243.2 MB         0.0 MB |
| Force calculation requirements                       29.4 MB         0.0 MB |
|                                               ----------------------------- |
| Approx. total storage required per process         2190.8 MB         0.0 MB |
|                                                                             |
| Requirements will fluctuate during execution and may exceed these estimates |
+-----------------------------------------------------------------------------+
Calculating approximate eigenstates for fixed initial Hamiltonian
Cut-off for approx. calculation is   89.988 eV
Improving approx. states at cut-off of  450.000 eV
Resetting cut-off to  900.000 eV
Calculating total energy with cut-off of  900.000 eV.
------------------------------------------------------------------------ <-- SCF
SCF loop      Energy           Fermi           Energy gain       Timer   <-- SCF
                               energy          per atom          (sec)   <-- SCF
------------------------------------------------------------------------ <-- SCF
Initial  -4.72991931E+004  0.00000000E+000                        92.81  <-- SCF
      1  -4.70949343E+004  2.41643503E+000  -4.25539150E+000     160.25  <-- SCF
      2  -4.70952615E+004  2.41607787E+000   6.81490378E-003     212.09  <-- SCF
      3  -4.71466062E+004  2.67590998E+000   1.06968226E+000     271.66  <-- SCF
      4  -4.71563759E+004  2.73759451E+000   2.03535924E-001     343.77  <-- SCF
      5  -4.71513459E+004  2.97963969E+000  -1.04793016E-001     402.51  <-- SCF
      6  -4.71508528E+004  3.02628625E+000  -1.02728169E-002     461.76  <-- SCF
      7  -4.71506601E+004  3.06168861E+000  -4.01480895E-003     522.90  <-- SCF
      8  -4.71517730E+004  3.09285218E+000   2.31871356E-002     582.44  <-- SCF
      9  -4.71517927E+004  3.06610884E+000   4.09847280E-004     641.83  <-- SCF
     10  -4.71519914E+004  3.07403785E+000   4.14021475E-003     700.82  <-- SCF
     11  -4.71519945E+004  3.06777215E+000   6.36051065E-005     761.87  <-- SCF
     12  -4.71519953E+004  3.06729811E+000   1.66024742E-005     822.12  <-- SCF
     13  -4.71519953E+004  3.06716391E+000   3.70749667E-008     875.51  <-- SCF
     14  -4.71519953E+004  3.06715238E+000   3.07663652E-007     927.04  <-- SCF
     15  -4.71519953E+004  3.06741397E+000  -1.11653618E-008     976.86  <-- SCF
     16  -4.71519953E+004  3.06737456E+000  -1.70494731E-009    1018.55  <-- SCF
     17  -4.71519953E+004  3.06735488E+000   1.27352230E-010    1060.23  <-- SCF
------------------------------------------------------------------------ <-- SCF
 
Final energy, E             =  -47151.96010622     eV
Final free energy (E-TS)    =  -47151.99531129     eV
(energies not corrected for finite basis set)
 
NB est. 0K energy (E-0.5TS)      =  -47151.97770876     eV
 
 
+---------------- MEMORY AND SCRATCH DISK ESTIMATES PER PROCESS --------------+
|                                                     Memory          Disk    |
| Model and support data                              934.3 MB         0.0 MB |
| Electronic energy minimisation requirements         243.2 MB         0.0 MB |
| Geometry minimisation requirements                  290.1 MB         0.0 MB |
|                                               ----------------------------- |
| Approx. total storage required per process         1467.5 MB         0.0 MB |
|                                                                             |
| Requirements will fluctuate during execution and may exceed these estimates |
+-----------------------------------------------------------------------------+
 

 ******************************** Constrained Forces ********************************
 *                                                                                  *
 *                           Cartesian components (eV/A)                            *
 * -------------------------------------------------------------------------------- *
 *                         x                    y                    z              *
 *                                                                                  *
 * P               1      0.00000(cons'd)      0.00000(cons'd)     -0.20781         *
 * P               2      0.00000(cons'd)      0.00000(cons'd)      0.07728         *
 * P               3      0.00000(cons'd)      0.00000(cons'd)     -0.20809         *
 * P               4      0.00000(cons'd)      0.00000(cons'd)     -0.20809         *
 * P               5      0.00000(cons'd)     -0.00000(cons'd)     -0.20809         *
 * P               6      0.00000(cons'd)      0.00000(cons'd)     -0.20809         *
 * P               7     -0.00000(cons'd)      0.00000(cons'd)     -0.03970         *
 * P               8     -0.00000(cons'd)      0.00000(cons'd)     -0.20781         *
 * P               9      0.00000(cons'd)     -0.00000(cons'd)     -0.03970         *
 * P              10      0.00000(cons'd)     -0.00000(cons'd)     -0.03970         *
 * P              11      0.00000(cons'd)     -0.00000(cons'd)     -0.04233         *
 * P              12      0.00000(cons'd)      0.00000(cons'd)      0.07728         *
 * P              13      0.00000(cons'd)      0.00000(cons'd)      0.07789         *
 * P              14      0.00000(cons'd)     -0.00000(cons'd)     -0.20781         *
 * P              15     -0.00000(cons'd)      0.00000(cons'd)     -0.20781         *
 * P              16     -0.00000(cons'd)     -0.00000(cons'd)     -0.04232         *
 * P              17     -0.00000(cons'd)     -0.00000(cons'd)     -0.03970         *
 * P              18      0.00000(cons'd)      0.00000(cons'd)     -0.04232         *
 * P              19      0.00000(cons'd)      0.00000(cons'd)     -0.04233         *
 * P              20     -0.00000(cons'd)      0.00000(cons'd)      0.07728         *
 * P              21     -0.00000(cons'd)     -0.00000(cons'd)      0.07728         *
 * P              22      0.00000(cons'd)     -0.00000(cons'd)      0.07789         *
 * P              23      0.00000(cons'd)      0.00000(cons'd)      0.07789         *
 * P              24      0.00000(cons'd)      0.00000(cons'd)      0.07789         *
 * In              1      0.00000(cons'd)     -0.00000(cons'd)     -0.09224         *
 * In              2      0.00000(cons'd)      0.00000(cons'd)     -0.09219         *
 * In              3     -0.00000(cons'd)      0.00000(cons'd)      0.24502         *
 * In              4      0.00000(cons'd)      0.00000(cons'd)      0.24502         *
 * In              5      0.00000(cons'd)      0.00000(cons'd)     -0.09219         *
 * In              6      0.00000(cons'd)      0.00000(cons'd)     -0.09223         *
 * In              7      0.00000(cons'd)      0.00000(cons'd)      0.24504         *
 * In              8      0.00000(cons'd)      0.00000(cons'd)      0.01857         *
 * In              9      0.00000(cons'd)      0.00000(cons'd)      0.01853         *
 * In             10      0.00000(cons'd)      0.00000(cons'd)      0.24502         *
 * In             11     -0.00000(cons'd)      0.00000(cons'd)      0.01857         *
 * In             12     -0.00000(cons'd)      0.00000(cons'd)      0.01853         *
 * In             13      0.00000(cons'd)     -0.00000(cons'd)      0.24504         *
 * In             14      0.00000(cons'd)      0.00000(cons'd)      0.01853         *
 * In             15     -0.00000(cons'd)      0.00000(cons'd)     -0.09219         *
 * In             16      0.00000(cons'd)      0.00000(cons'd)      0.24504         *
 * In             17      0.00000(cons'd)      0.00000(cons'd)      0.24502         *
 * In             18      0.00000(cons'd)      0.00000(cons'd)     -0.09224         *
 * In             19      0.00000(cons'd)      0.00000(cons'd)     -0.09223         *
 * In             20      0.00000(cons'd)      0.00000(cons'd)      0.01857         *
 * In             21      0.00000(cons'd)      0.00000(cons'd)      0.01857         *
 * In             22      0.00000(cons'd)     -0.00000(cons'd)      0.24504         *
 * In             23      0.00000(cons'd)      0.00000(cons'd)      0.01853         *
 * In             24      0.00000(cons'd)      0.00000(cons'd)     -0.09219         *
 *                                                                                  *
 ************************************************************************************
 EXP precond LBFGS => estimated nearest neighbor distance :  2.628       A
 EXP precond LBFGS => estimated cutoff distance :  5.256       A

 ************************************** Forces **************************************
 *                                                                                  *
 *                           Cartesian components (eV/A)                            *
 * -------------------------------------------------------------------------------- *
 *                         x                    y                    z              *
 *                                                                                  *
 * P               1      0.00000(cons'd)     -0.10692(cons'd)     -0.20781         *
 * P               2      0.00000(cons'd)     -0.01449(cons'd)      0.07728         *
 * P               3      0.00000(cons'd)     -0.10494(cons'd)     -0.20809         *
 * P               4     -0.00000(cons'd)     -0.10494(cons'd)     -0.20809         *
 * P               5      0.00000(cons'd)     -0.10493(cons'd)     -0.20809         *
 * P               6     -0.00000(cons'd)     -0.10494(cons'd)     -0.20809         *
 * P               7     -0.00000(cons'd)     -0.01898(cons'd)     -0.03970         *
 * P               8     -0.00000(cons'd)     -0.10692(cons'd)     -0.20781         *
 * P               9      0.00000(cons'd)     -0.01897(cons'd)     -0.03970         *
 * P              10      0.00000(cons'd)     -0.01898(cons'd)     -0.03970         *
 * P              11      0.00000(cons'd)     -0.01739(cons'd)     -0.04233         *
 * P              12      0.00000(cons'd)     -0.01449(cons'd)      0.07728         *
 * P              13      0.00000(cons'd)     -0.01495(cons'd)      0.07789         *
 * P              14      0.00000(cons'd)     -0.10692(cons'd)     -0.20781         *
 * P              15     -0.00000(cons'd)     -0.10692(cons'd)     -0.20781         *
 * P              16     -0.00000(cons'd)     -0.01739(cons'd)     -0.04232         *
 * P              17     -0.00000(cons'd)     -0.01897(cons'd)     -0.03970         *
 * P              18     -0.00000(cons'd)     -0.01740(cons'd)     -0.04232         *
 * P              19      0.00000(cons'd)     -0.01739(cons'd)     -0.04233         *
 * P              20     -0.00000(cons'd)     -0.01449(cons'd)      0.07728         *
 * P              21     -0.00000(cons'd)     -0.01449(cons'd)      0.07728         *
 * P              22     -0.00000(cons'd)     -0.01496(cons'd)      0.07789         *
 * P              23     -0.00000(cons'd)     -0.01495(cons'd)      0.07789         *
 * P              24      0.00000(cons'd)     -0.01496(cons'd)      0.07789         *
 * In              1     -0.00000(cons'd)      0.06436(cons'd)     -0.09224         *
 * In              2     -0.00000(cons'd)      0.06429(cons'd)     -0.09219         *
 * In              3      0.00000(cons'd)      0.07770(cons'd)      0.24502         *
 * In              4     -0.00000(cons'd)      0.07770(cons'd)      0.24502         *
 * In              5      0.00000(cons'd)      0.06429(cons'd)     -0.09219         *
 * In              6     -0.00000(cons'd)      0.06436(cons'd)     -0.09223         *
 * In              7     -0.00000(cons'd)      0.07773(cons'd)      0.24504         *
 * In              8      0.00000(cons'd)     -0.00323(cons'd)      0.01857         *
 * In              9     -0.00000(cons'd)     -0.00319(cons'd)      0.01853         *
 * In             10     -0.00000(cons'd)      0.07771(cons'd)      0.24502         *
 * In             11      0.00000(cons'd)     -0.00322(cons'd)      0.01857         *
 * In             12      0.00000(cons'd)     -0.00319(cons'd)      0.01853         *
 * In             13      0.00000(cons'd)      0.07774(cons'd)      0.24504         *
 * In             14     -0.00000(cons'd)     -0.00319(cons'd)      0.01853         *
 * In             15      0.00000(cons'd)      0.06429(cons'd)     -0.09219         *
 * In             16      0.00000(cons'd)      0.07773(cons'd)      0.24504         *
 * In             17      0.00000(cons'd)      0.07770(cons'd)      0.24502         *
 * In             18      0.00000(cons'd)      0.06436(cons'd)     -0.09224         *
 * In             19      0.00000(cons'd)      0.06436(cons'd)     -0.09223         *
 * In             20     -0.00000(cons'd)     -0.00323(cons'd)      0.01857         *
 * In             21      0.00000(cons'd)     -0.00322(cons'd)      0.01857         *
 * In             22     -0.00000(cons'd)      0.07773(cons'd)      0.24504         *
 * In             23     -0.00000(cons'd)     -0.00319(cons'd)      0.01853         *
 * In             24     -0.00000(cons'd)      0.06429(cons'd)     -0.09219         *
 *                                                                                  *
 ************************************************************************************
 doing test perturbation to get energy scale for EXP preconditioner

                           -------------------------------
                                     Cell Contents
                           -------------------------------

            xxxxxxxxxxxxxxxxxxxxxxxxxxxxxxxxxxxxxxxxxxxxxxxxxxxxxxxxxxxxxxxxx
            x  Element         Atom        Fractional coordinates of atoms  x
            x                 Number           u          v          w      x
            x---------------------------------------------------------------x
            x  P                 1         0.000000   0.366614   0.775710   x
            x  P                 2         0.000000   0.762491   0.417089   x
            x  P                 3         0.251030   0.616982   0.775710   x
            x  P                 4         0.752650   0.616982   0.775710   x
            x  P                 5         0.251030   0.116192   0.775710   x
            x  P                 6         0.752650   0.116192   0.775710   x
            x  P                 7         0.501947   0.153793   0.076124   x
            x  P                 8         0.501947   0.366614   0.775710   x
            x  P                 9         0.000000   0.654616   0.076124   x
            x  P                10         0.000000   0.153793   0.076124   x
            x  P                11         0.251030   0.404227   0.076124   x
            x  P                12         0.000000   0.261740   0.417089   x
            x  P                13         0.251030   0.011296   0.417089   x
            x  P                14         0.000000   0.867272   0.775710   x
            x  P                15         0.501947   0.867272   0.775710   x
            x  P                16         0.752650   0.404227   0.076124   x
            x  P                17         0.501947   0.654616   0.076124   x
            x  P                18         0.752650   0.904934   0.076124   x
            x  P                19         0.251030   0.904934   0.076124   x
            x  P                20         0.501947   0.762491   0.417089   x
            x  P                21         0.501947   0.261740   0.417089   x
            x  P                22         0.752650   0.512146   0.417089   x
            x  P                23         0.752650   0.011296   0.417089   x
            x  P                24         0.251030   0.512146   0.417089   x
            x  In                1         0.501947   0.718237   0.672776   x
            x  In                2         0.752650   0.968498   0.672776   x
            x  In                3         0.251030   0.753828   0.986261   x
            x  In                4         0.752650   0.753828   0.986261   x
            x  In                5         0.251030   0.968498   0.672776   x
            x  In                6         0.501947   0.217486   0.672776   x
            x  In                7         0.501947   0.503511   0.986261   x
            x  In                8         0.251030   0.860952   0.330242   x
            x  In                9         0.501947   0.610634   0.330242   x
            x  In               10         0.752650   0.253124   0.986261   x
            x  In               11         0.752650   0.360245   0.330242   x
            x  In               12         0.000000   0.109811   0.330242   x
            x  In               13         0.000000   0.002691   0.986261   x
            x  In               14         0.000000   0.610634   0.330242   x
            x  In               15         0.251030   0.467893   0.672776   x
            x  In               16         0.000000   0.503511   0.986261   x
            x  In               17         0.251030   0.253124   0.986261   x
            x  In               18         0.000000   0.718237   0.672776   x
            x  In               19         0.000000   0.217486   0.672776   x
            x  In               20         0.752650   0.860952   0.330242   x
            x  In               21         0.251030   0.360245   0.330242   x
            x  In               22         0.501947   0.002691   0.986261   x
            x  In               23         0.501947   0.109811   0.330242   x
            x  In               24         0.752650   0.467893   0.672776   x
            xxxxxxxxxxxxxxxxxxxxxxxxxxxxxxxxxxxxxxxxxxxxxxxxxxxxxxxxxxxxxxxxx


------------------------------------------------------------------------ <-- SCF
SCF loop      Energy           Fermi           Energy gain       Timer   <-- SCF
                               energy          per atom          (sec)   <-- SCF
------------------------------------------------------------------------ <-- SCF
Initial  -4.71492488E+004  0.00000000E+000                      1121.40  <-- SCF
      1  -4.71516377E+004  3.07681264E+000   4.97689788E-002    1183.17  <-- SCF
      2  -4.71519700E+004  3.07673120E+000   6.92257383E-003    1255.40  <-- SCF
      3  -4.71519734E+004  3.07754931E+000   6.99438306E-005    1316.69  <-- SCF
      4  -4.71519752E+004  3.07780756E+000   3.75368910E-005    1382.23  <-- SCF
      5  -4.71519756E+004  3.07779631E+000   9.24896521E-006    1445.59  <-- SCF
      6  -4.71519757E+004  3.07777791E+000   1.30338162E-006    1508.75  <-- SCF
      7  -4.71519757E+004  3.07781394E+000   9.87461862E-008    1563.70  <-- SCF
      8  -4.71519757E+004  3.07782576E+000   5.32069366E-009    1610.90  <-- SCF
      9  -4.71519757E+004  3.07782831E+000  -3.66073211E-011    1653.41  <-- SCF
------------------------------------------------------------------------ <-- SCF
 
Final energy, E             =  -47151.94145887     eV
Final free energy (E-TS)    =  -47151.97568882     eV
(energies not corrected for finite basis set)
 
NB est. 0K energy (E-0.5TS)      =  -47151.95857385     eV
 

 ************************************** Forces **************************************
 *                                                                                  *
 *                           Cartesian components (eV/A)                            *
 * -------------------------------------------------------------------------------- *
 *                         x                    y                    z              *
 *                                                                                  *
 * P               1      0.07282(cons'd)     -0.14781(cons'd)     -0.22659         *
 * P               2      0.13672(cons'd)     -0.06626(cons'd)      0.09140         *
 * P               3      0.01445(cons'd)     -0.08339(cons'd)     -0.25359         *
 * P               4     -0.06156(cons'd)     -0.14755(cons'd)     -0.22417         *
 * P               5      0.01517(cons'd)     -0.00894(cons'd)     -0.24724         *
 * P               6     -0.06028(cons'd)     -0.07232(cons'd)     -0.21781         *
 * P               7     -0.02114(cons'd)      0.03607(cons'd)      0.03500         *
 * P               8     -0.02512(cons'd)     -0.09417(cons'd)     -0.25157         *
 * P               9      0.13342(cons'd)     -0.02764(cons'd)      0.09108         *
 * P              10      0.13316(cons'd)     -0.01280(cons'd)      0.08033         *
 * P              11      0.00661(cons'd)      0.03069(cons'd)      0.03898         *
 * P              12      0.13646(cons'd)     -0.05759(cons'd)      0.09607         *
 * P              13      0.00810(cons'd)      0.13804(cons'd)      0.08939         *
 * P              14      0.07307(cons'd)     -0.13953(cons'd)     -0.21767         *
 * P              15     -0.02413(cons'd)     -0.08535(cons'd)     -0.24257         *
 * P              16     -0.11878(cons'd)     -0.02736(cons'd)      0.09334         *
 * P              17     -0.02136(cons'd)      0.02114(cons'd)      0.04564         *
 * P              18     -0.12312(cons'd)     -0.11282(cons'd)      0.13731         *
 * P              19      0.00678(cons'd)     -0.05249(cons'd)      0.08033         *
 * P              20     -0.02315(cons'd)     -0.01264(cons'd)      0.05190         *
 * P              21     -0.02374(cons'd)     -0.00508(cons'd)      0.05675         *
 * P              22     -0.11871(cons'd)     -0.06129(cons'd)      0.09872         *
 * P              23     -0.11845(cons'd)      0.07627(cons'd)      0.13577         *
 * P              24      0.00793(cons'd)      0.00182(cons'd)      0.05173         *
 * In              1     -0.02355(cons'd)      0.04965(cons'd)     -0.08060         *
 * In              2     -0.07044(cons'd)      0.01551(cons'd)     -0.13958         *
 * In              3      0.01008(cons'd)      0.02106(cons'd)      0.20050         *
 * In              4     -0.09120(cons'd)      0.09660(cons'd)      0.14445         *
 * In              5      0.01440(cons'd)     -0.01246(cons'd)     -0.10058         *
 * In              6     -0.02350(cons'd)      0.06765(cons'd)     -0.08083         *
 * In              7     -0.02106(cons'd)      0.03219(cons'd)      0.19595         *
 * In              8      0.00091(cons'd)     -0.13365(cons'd)      0.01856         *
 * In              9     -0.01166(cons'd)     -0.01759(cons'd)      0.04330         *
 * In             10     -0.09078(cons'd)      0.10785(cons'd)      0.15289         *
 * In             11     -0.09931(cons'd)      0.03872(cons'd)     -0.00009         *
 * In             12      0.10834(cons'd)      0.04568(cons'd)     -0.00416         *
 * In             13      0.10544(cons'd)      0.14966(cons'd)      0.10814         *
 * In             14      0.10841(cons'd)      0.03311(cons'd)      0.00628         *
 * In             15      0.01445(cons'd)      0.05552(cons'd)     -0.07831         *
 * In             16      0.09996(cons'd)      0.09566(cons'd)      0.14901         *
 * In             17      0.01018(cons'd)      0.03252(cons'd)      0.20906         *
 * In             18      0.07791(cons'd)      0.07379(cons'd)     -0.11358         *
 * In             19      0.07784(cons'd)      0.09160(cons'd)     -0.11374         *
 * In             20     -0.09935(cons'd)     -0.07364(cons'd)     -0.02524         *
 * In             21      0.00100(cons'd)     -0.02127(cons'd)      0.04374         *
 * In             22     -0.02118(cons'd)      0.08411(cons'd)      0.15679         *
 * In             23     -0.01173(cons'd)     -0.00492(cons'd)      0.03285         *
 * In             24     -0.07033(cons'd)      0.08365(cons'd)     -0.11735         *
 *                                                                                  *
 ************************************************************************************
 EXP precond LBFGS => estimated parameter mu :  1.222       eV/A**2
 LBFGS: finished iteration     0 with enthalpy= -4.71519953E+004 eV
  
 +-----------+-----------------+-----------------+------------+-----+ <-- LBFGS
 | Parameter |      value      |    tolerance    |    units   | OK? | <-- LBFGS
 +-----------+-----------------+-----------------+------------+-----+ <-- LBFGS
 |  dE/ion   |   0.000000E+000 |   2.000000E-005 |         eV | No  | <-- LBFGS
 |  |F|max   |   2.801650E-001 |   1.000000E-003 |       eV/A | No  | <-- LBFGS
 |  |dR|max  |   3.089333E-015 |   1.000000E-003 |          A | No  | <-- LBFGS
 +-----------+-----------------+-----------------+------------+-----+ <-- LBFGS
  

================================================================================
 Starting LBFGS iteration          1 ...
================================================================================
  
 +------------+-------------+-------------+-----------------+ <-- min LBFGS
 |    Step    |   lambda    |   F.delta'  |    enthalpy     | <-- min LBFGS
 +------------+-------------+-------------+-----------------+ <-- min LBFGS
 |  previous  |    0.000000 |    0.333226 |   -47151.995311 | <-- min LBFGS
 +------------+-------------+-------------+-----------------+ <-- min LBFGS
  

--------------------------------------------------------------------------------
 LBFGS: starting iteration         1 with trial guess (lambda=  1.000000)
--------------------------------------------------------------------------------

                           -------------------------------
                                     Cell Contents
                           -------------------------------

            xxxxxxxxxxxxxxxxxxxxxxxxxxxxxxxxxxxxxxxxxxxxxxxxxxxxxxxxxxxxxxxxx
            x  Element         Atom        Fractional coordinates of atoms  x
            x                 Number           u          v          w      x
            x---------------------------------------------------------------x
            x  P                 1         0.000000   0.366605   0.770726   x
            x  P                 2         0.000000   0.761173   0.416924   x
            x  P                 3         0.250000   0.616606   0.770723   x
            x  P                 4         0.750000   0.616606   0.770723   x
            x  P                 5         0.250000   0.116606   0.770723   x
            x  P                 6         0.750000   0.116606   0.770723   x
            x  P                 7         0.500000   0.153393   0.076692   x
            x  P                 8         0.500000   0.366605   0.770726   x
            x  P                 9         0.000000   0.653393   0.076692   x
            x  P                10         0.000000   0.153393   0.076692   x
            x  P                11         0.250000   0.403398   0.076663   x
            x  P                12         0.000000   0.261173   0.416924   x
            x  P                13         0.250000   0.011172   0.416932   x
            x  P                14         0.000000  -0.133395   0.770726   x
            x  P                15         0.500000  -0.133395   0.770726   x
            x  P                16         0.750000   0.403398   0.076663   x
            x  P                17         0.500000   0.653393   0.076692   x
            x  P                18         0.750000   0.903398   0.076663   x
            x  P                19         0.250000   0.903398   0.076663   x
            x  P                20         0.500000   0.761173   0.416924   x
            x  P                21         0.500000   0.261173   0.416924   x
            x  P                22         0.750000   0.511172   0.416932   x
            x  P                23         0.750000   0.011172   0.416932   x
            x  P                24         0.250000   0.511172   0.416932   x
            x  In                1         0.500000   0.717583   0.668778   x
            x  In                2         0.750000  -0.032417   0.668779   x
            x  In                3         0.250000   0.752311  -0.013352   x
            x  In                4         0.750000   0.752311  -0.013352   x
            x  In                5         0.250000  -0.032417   0.668779   x
            x  In                6         0.500000   0.217583   0.668778   x
            x  In                7         0.500000   0.502312  -0.013356   x
            x  In                8         0.250000   0.859509   0.330244   x
            x  In                9         0.500000   0.609508   0.330248   x
            x  In               10         0.750000   0.252311  -0.013352   x
            x  In               11         0.750000   0.359509   0.330244   x
            x  In               12        -0.000000   0.109508   0.330248   x
            x  In               13         0.000000   0.002312  -0.013356   x
            x  In               14         0.000000   0.609508   0.330248   x
            x  In               15         0.250000   0.467583   0.668779   x
            x  In               16         0.000000   0.502312  -0.013356   x
            x  In               17         0.250000   0.252311  -0.013352   x
            x  In               18         0.000000   0.717583   0.668778   x
            x  In               19         0.000000   0.217583   0.668778   x
            x  In               20         0.750000   0.859509   0.330244   x
            x  In               21         0.250000   0.359509   0.330244   x
            x  In               22         0.500000   0.002312  -0.013356   x
            x  In               23         0.500000   0.109508   0.330248   x
            x  In               24         0.750000   0.467583   0.668779   x
            xxxxxxxxxxxxxxxxxxxxxxxxxxxxxxxxxxxxxxxxxxxxxxxxxxxxxxxxxxxxxxxxx


------------------------------------------------------------------------ <-- SCF
SCF loop      Energy           Fermi           Energy gain       Timer   <-- SCF
                               energy          per atom          (sec)   <-- SCF
------------------------------------------------------------------------ <-- SCF
Initial  -4.71492834E+004  0.00000000E+000                      1690.51  <-- SCF
      1  -4.71516248E+004  3.09218546E+000   4.87787381E-002    1752.32  <-- SCF
      2  -4.71520679E+004  3.09198515E+000   9.23063394E-003    1824.06  <-- SCF
      3  -4.71520688E+004  3.09348658E+000   1.96855603E-005    1886.00  <-- SCF
      4  -4.71520697E+004  3.09488845E+000   1.87653032E-005    1949.24  <-- SCF
      5  -4.71520700E+004  3.09544319E+000   5.08730600E-006    2014.67  <-- SCF
      6  -4.71520700E+004  3.09607717E+000   6.53296958E-007    2076.84  <-- SCF
      7  -4.71520700E+004  3.09638928E+000  -1.55633447E-007    2137.36  <-- SCF
      8  -4.71520700E+004  3.09651069E+000  -2.20435366E-008    2189.52  <-- SCF
      9  -4.71520700E+004  3.09652626E+000   2.83590729E-009    2231.94  <-- SCF
     10  -4.71520700E+004  3.09654679E+000   4.52048855E-010    2274.28  <-- SCF
     11  -4.71520700E+004  3.09655084E+000   3.09744340E-010    2316.02  <-- SCF
------------------------------------------------------------------------ <-- SCF
 
Final energy, E             =  -47152.03865166     eV
Final free energy (E-TS)    =  -47152.06998278     eV
(energies not corrected for finite basis set)
 
NB est. 0K energy (E-0.5TS)      =  -47152.05431722     eV
 

 ******************************** Constrained Forces ********************************
 *                                                                                  *
 *                           Cartesian components (eV/A)                            *
 * -------------------------------------------------------------------------------- *
 *                         x                    y                    z              *
 *                                                                                  *
 * P               1      0.00000(cons'd)      0.00000(cons'd)     -0.12542         *
 * P               2      0.00000(cons'd)     -0.00000(cons'd)     -0.12087         *
 * P               3      0.00000(cons'd)      0.00000(cons'd)     -0.12787         *
 * P               4      0.00000(cons'd)     -0.00000(cons'd)     -0.12787         *
 * P               5      0.00000(cons'd)     -0.00000(cons'd)     -0.12787         *
 * P               6      0.00000(cons'd)      0.00000(cons'd)     -0.12788         *
 * P               7      0.00000(cons'd)     -0.00000(cons'd)     -0.00939         *
 * P               8      0.00000(cons'd)      0.00000(cons'd)     -0.12541         *
 * P               9      0.00000(cons'd)      0.00000(cons'd)     -0.00940         *
 * P              10      0.00000(cons'd)      0.00000(cons'd)     -0.00939         *
 * P              11      0.00000(cons'd)     -0.00000(cons'd)     -0.00973         *
 * P              12      0.00000(cons'd)      0.00000(cons'd)     -0.12088         *
 * P              13      0.00000(cons'd)      0.00000(cons'd)     -0.12119         *
 * P              14      0.00000(cons'd)     -0.00000(cons'd)     -0.12542         *
 * P              15      0.00000(cons'd)      0.00000(cons'd)     -0.12541         *
 * P              16      0.00000(cons'd)     -0.00000(cons'd)     -0.00974         *
 * P              17      0.00000(cons'd)      0.00000(cons'd)     -0.00939         *
 * P              18      0.00000(cons'd)      0.00000(cons'd)     -0.00974         *
 * P              19      0.00000(cons'd)      0.00000(cons'd)     -0.00974         *
 * P              20      0.00000(cons'd)      0.00000(cons'd)     -0.12087         *
 * P              21      0.00000(cons'd)     -0.00000(cons'd)     -0.12088         *
 * P              22      0.00000(cons'd)     -0.00000(cons'd)     -0.12118         *
 * P              23      0.00000(cons'd)      0.00000(cons'd)     -0.12118         *
 * P              24      0.00000(cons'd)      0.00000(cons'd)     -0.12118         *
 * In              1      0.00000(cons'd)      0.00000(cons'd)      0.13063         *
 * In              2      0.00000(cons'd)      0.00000(cons'd)      0.13104         *
 * In              3      0.00000(cons'd)      0.00000(cons'd)      0.10400         *
 * In              4      0.00000(cons'd)      0.00000(cons'd)      0.10400         *
 * In              5      0.00000(cons'd)      0.00000(cons'd)      0.13101         *
 * In              6      0.00000(cons'd)      0.00000(cons'd)      0.13063         *
 * In              7      0.00000(cons'd)      0.00000(cons'd)      0.10393         *
 * In              8      0.00000(cons'd)      0.00000(cons'd)      0.02195         *
 * In              9      0.00000(cons'd)      0.00000(cons'd)      0.02292         *
 * In             10      0.00000(cons'd)      0.00000(cons'd)      0.10400         *
 * In             11      0.00000(cons'd)      0.00000(cons'd)      0.02196         *
 * In             12      0.00000(cons'd)      0.00000(cons'd)      0.02294         *
 * In             13      0.00000(cons'd)      0.00000(cons'd)      0.10394         *
 * In             14      0.00000(cons'd)      0.00000(cons'd)      0.02294         *
 * In             15     -0.00000(cons'd)      0.00000(cons'd)      0.13100         *
 * In             16      0.00000(cons'd)     -0.00000(cons'd)      0.10393         *
 * In             17      0.00000(cons'd)      0.00000(cons'd)      0.10400         *
 * In             18      0.00000(cons'd)      0.00000(cons'd)      0.13064         *
 * In             19      0.00000(cons'd)      0.00000(cons'd)      0.13063         *
 * In             20      0.00000(cons'd)      0.00000(cons'd)      0.02196         *
 * In             21      0.00000(cons'd)      0.00000(cons'd)      0.02194         *
 * In             22      0.00000(cons'd)      0.00000(cons'd)      0.10393         *
 * In             23      0.00000(cons'd)      0.00000(cons'd)      0.02292         *
 * In             24      0.00000(cons'd)      0.00000(cons'd)      0.13103         *
 *                                                                                  *
 ************************************************************************************
  
 +------------+-------------+-------------+-----------------+ <-- min LBFGS
 |    Step    |   lambda    |   F.delta'  |    enthalpy     | <-- min LBFGS
 +------------+-------------+-------------+-----------------+ <-- min LBFGS
 |  previous  |    0.000000 |    0.333226 |   -47151.995311 | <-- min LBFGS
 | trial step |    1.000000 |    0.055950 |   -47152.069983 | <-- min LBFGS
 +------------+-------------+-------------+-----------------+ <-- min LBFGS
  
 LBFGS: finished iteration     1 with enthalpy= -4.71520700E+004 eV
  
 +-----------+-----------------+-----------------+------------+-----+ <-- LBFGS
 | Parameter |      value      |    tolerance    |    units   | OK? | <-- LBFGS
 +-----------+-----------------+-----------------+------------+-----+ <-- LBFGS
 |  dE/ion   |   1.555656E-003 |   2.000000E-005 |         eV | No  | <-- LBFGS
 |  |F|max   |   1.310378E-001 |   1.000000E-003 |       eV/A | No  | <-- LBFGS
 |  |dR|max  |   3.119251E-002 |   1.000000E-003 |          A | No  | <-- LBFGS
 +-----------+-----------------+-----------------+------------+-----+ <-- LBFGS
  

================================================================================
 Starting LBFGS iteration          2 ...
================================================================================
  
 +------------+-------------+-------------+-----------------+ <-- min LBFGS
 |    Step    |   lambda    |   F.delta'  |    enthalpy     | <-- min LBFGS
 +------------+-------------+-------------+-----------------+ <-- min LBFGS
 |  previous  |    0.000000 |    0.203590 |   -47152.069983 | <-- min LBFGS
 +------------+-------------+-------------+-----------------+ <-- min LBFGS
  

--------------------------------------------------------------------------------
 LBFGS: starting iteration         2 with trial guess (lambda=  1.000000)
--------------------------------------------------------------------------------

                           -------------------------------
                                     Cell Contents
                           -------------------------------

            xxxxxxxxxxxxxxxxxxxxxxxxxxxxxxxxxxxxxxxxxxxxxxxxxxxxxxxxxxxxxxxxx
            x  Element         Atom        Fractional coordinates of atoms  x
            x                 Number           u          v          w      x
            x---------------------------------------------------------------x
            x  P                 1         0.000000   0.367031   0.768266   x
            x  P                 2         0.000000   0.761412   0.415546   x
            x  P                 3         0.250000   0.617037   0.768229   x
            x  P                 4         0.750000   0.617037   0.768229   x
            x  P                 5         0.250000   0.117037   0.768229   x
            x  P                 6         0.750000   0.117037   0.768229   x
            x  P                 7         0.500000   0.153260   0.077462   x
            x  P                 8         0.500000   0.367031   0.768266   x
            x  P                 9         0.000000   0.653260   0.077462   x
            x  P                10         0.000000   0.153260   0.077462   x
            x  P                11         0.250000   0.403268   0.077414   x
            x  P                12         0.000000   0.261412   0.415546   x
            x  P                13         0.250000   0.011410   0.415557   x
            x  P                14         0.000000  -0.132969   0.768266   x
            x  P                15         0.500000  -0.132969   0.768266   x
            x  P                16         0.750000   0.403268   0.077414   x
            x  P                17         0.500000   0.653260   0.077462   x
            x  P                18         0.750000   0.903268   0.077414   x
            x  P                19         0.250000   0.903268   0.077414   x
            x  P                20         0.500000   0.761412   0.415546   x
            x  P                21         0.500000   0.261412   0.415546   x
            x  P                22         0.750000   0.511410   0.415557   x
            x  P                23         0.750000   0.011410   0.415557   x
            x  P                24         0.250000   0.511410   0.415557   x
            x  In                1         0.500000   0.717550   0.668970   x
            x  In                2         0.750000  -0.032452   0.668980   x
            x  In                3         0.250000   0.751819  -0.010507   x
            x  In                4         0.750000   0.751819  -0.010507   x
            x  In                5         0.250000  -0.032452   0.668980   x
            x  In                6         0.500000   0.217550   0.668970   x
            x  In                7         0.500000   0.501820  -0.010516   x
            x  In                8         0.250000   0.859501   0.330290   x
            x  In                9         0.500000   0.609498   0.330309   x
            x  In               10         0.750000   0.251819  -0.010507   x
            x  In               11         0.750000   0.359501   0.330290   x
            x  In               12        -0.000000   0.109498   0.330309   x
            x  In               13         0.000000   0.001820  -0.010516   x
            x  In               14         0.000000   0.609498   0.330309   x
            x  In               15         0.250000   0.467548   0.668980   x
            x  In               16         0.000000   0.501820  -0.010516   x
            x  In               17         0.250000   0.251819  -0.010507   x
            x  In               18         0.000000   0.717550   0.668970   x
            x  In               19         0.000000   0.217550   0.668970   x
            x  In               20         0.750000   0.859501   0.330290   x
            x  In               21         0.250000   0.359501   0.330289   x
            x  In               22         0.500000   0.001820  -0.010516   x
            x  In               23         0.500000   0.109498   0.330309   x
            x  In               24         0.750000   0.467548   0.668980   x
            xxxxxxxxxxxxxxxxxxxxxxxxxxxxxxxxxxxxxxxxxxxxxxxxxxxxxxxxxxxxxxxxx


------------------------------------------------------------------------ <-- SCF
SCF loop      Energy           Fermi           Energy gain       Timer   <-- SCF
                               energy          per atom          (sec)   <-- SCF
------------------------------------------------------------------------ <-- SCF
Initial  -4.71528149E+004  0.00000000E+000                      2353.06  <-- SCF
      1  -4.71519822E+004  3.11885696E+000  -1.73490236E-002    2415.59  <-- SCF
      2  -4.71521102E+004  3.11878722E+000   2.66672973E-003    2487.71  <-- SCF
      3  -4.71521066E+004  3.11949181E+000  -7.32691266E-005    2549.30  <-- SCF
      4  -4.71521056E+004  3.11931781E+000  -2.24358363E-005    2614.93  <-- SCF
      5  -4.71521052E+004  3.11904107E+000  -7.87540671E-006    2677.11  <-- SCF
      6  -4.71521051E+004  3.11890762E+000  -1.62988683E-006    2740.42  <-- SCF
      7  -4.71521051E+004  3.11889222E+000  -3.25674712E-007    2797.52  <-- SCF
      8  -4.71521051E+004  3.11884711E+000  -4.15499539E-008    2849.73  <-- SCF
      9  -4.71521051E+004  3.11883865E+000   8.34878938E-010    2892.33  <-- SCF
     10  -4.71521051E+004  3.11883567E+000   5.28228175E-010    2933.60  <-- SCF
     11  -4.71521051E+004  3.11883452E+000   1.72853583E-010    2974.86  <-- SCF
------------------------------------------------------------------------ <-- SCF
 
Final energy, E             =  -47152.07539984     eV
Final free energy (E-TS)    =  -47152.10509401     eV
(energies not corrected for finite basis set)
 
NB est. 0K energy (E-0.5TS)      =  -47152.09024692     eV
 

 ******************************** Constrained Forces ********************************
 *                                                                                  *
 *                           Cartesian components (eV/A)                            *
 * -------------------------------------------------------------------------------- *
 *                         x                    y                    z              *
 *                                                                                  *
 * P               1      0.00000(cons'd)     -0.00000(cons'd)     -0.02479         *
 * P               2      0.00000(cons'd)     -0.00000(cons'd)     -0.01726         *
 * P               3      0.00000(cons'd)     -0.00000(cons'd)     -0.02396         *
 * P               4      0.00000(cons'd)      0.00000(cons'd)     -0.02396         *
 * P               5      0.00000(cons'd)     -0.00000(cons'd)     -0.02396         *
 * P               6     -0.00000(cons'd)      0.00000(cons'd)     -0.02396         *
 * P               7     -0.00000(cons'd)      0.00000(cons'd)     -0.04863         *
 * P               8      0.00000(cons'd)     -0.00000(cons'd)     -0.02479         *
 * P               9      0.00000(cons'd)      0.00000(cons'd)     -0.04861         *
 * P              10      0.00000(cons'd)     -0.00000(cons'd)     -0.04861         *
 * P              11      0.00000(cons'd)     -0.00000(cons'd)     -0.04739         *
 * P              12      0.00000(cons'd)     -0.00000(cons'd)     -0.01725         *
 * P              13      0.00000(cons'd)      0.00000(cons'd)     -0.01641         *
 * P              14      0.00000(cons'd)     -0.00000(cons'd)     -0.02479         *
 * P              15     -0.00000(cons'd)      0.00000(cons'd)     -0.02479         *
 * P              16      0.00000(cons'd)     -0.00000(cons'd)     -0.04738         *
 * P              17     -0.00000(cons'd)     -0.00000(cons'd)     -0.04862         *
 * P              18      0.00000(cons'd)     -0.00000(cons'd)     -0.04737         *
 * P              19      0.00000(cons'd)      0.00000(cons'd)     -0.04738         *
 * P              20     -0.00000(cons'd)      0.00000(cons'd)     -0.01726         *
 * P              21      0.00000(cons'd)      0.00000(cons'd)     -0.01725         *
 * P              22      0.00000(cons'd)     -0.00000(cons'd)     -0.01640         *
 * P              23     -0.00000(cons'd)      0.00000(cons'd)     -0.01640         *
 * P              24      0.00000(cons'd)      0.00000(cons'd)     -0.01641         *
 * In              1      0.00000(cons'd)      0.00000(cons'd)      0.02338         *
 * In              2      0.00000(cons'd)     -0.00000(cons'd)      0.02340         *
 * In              3      0.00000(cons'd)      0.00000(cons'd)      0.00469         *
 * In              4     -0.00000(cons'd)      0.00000(cons'd)      0.00469         *
 * In              5      0.00000(cons'd)      0.00000(cons'd)      0.02342         *
 * In              6      0.00000(cons'd)      0.00000(cons'd)      0.02338         *
 * In              7      0.00000(cons'd)      0.00000(cons'd)      0.00472         *
 * In              8     -0.00000(cons'd)      0.00000(cons'd)      0.06069         *
 * In              9      0.00000(cons'd)      0.00000(cons'd)      0.06152         *
 * In             10     -0.00000(cons'd)      0.00000(cons'd)      0.00469         *
 * In             11      0.00000(cons'd)      0.00000(cons'd)      0.06069         *
 * In             12      0.00000(cons'd)      0.00000(cons'd)      0.06150         *
 * In             13     -0.00000(cons'd)      0.00000(cons'd)      0.00471         *
 * In             14      0.00000(cons'd)      0.00000(cons'd)      0.06150         *
 * In             15      0.00000(cons'd)      0.00000(cons'd)      0.02343         *
 * In             16     -0.00000(cons'd)      0.00000(cons'd)      0.00471         *
 * In             17      0.00000(cons'd)     -0.00000(cons'd)      0.00469         *
 * In             18      0.00000(cons'd)      0.00000(cons'd)      0.02337         *
 * In             19      0.00000(cons'd)      0.00000(cons'd)      0.02338         *
 * In             20      0.00000(cons'd)      0.00000(cons'd)      0.06068         *
 * In             21      0.00000(cons'd)      0.00000(cons'd)      0.06071         *
 * In             22      0.00000(cons'd)      0.00000(cons'd)      0.00472         *
 * In             23      0.00000(cons'd)      0.00000(cons'd)      0.06152         *
 * In             24      0.00000(cons'd)      0.00000(cons'd)      0.02341         *
 *                                                                                  *
 ************************************************************************************
  
 +------------+-------------+-------------+-----------------+ <-- min LBFGS
 |    Step    |   lambda    |   F.delta'  |    enthalpy     | <-- min LBFGS
 +------------+-------------+-------------+-----------------+ <-- min LBFGS
 |  previous  |    0.000000 |    0.203590 |   -47152.069983 | <-- min LBFGS
 | trial step |    1.000000 |    0.017470 |   -47152.105094 | <-- min LBFGS
 +------------+-------------+-------------+-----------------+ <-- min LBFGS
  
 LBFGS: finished iteration     2 with enthalpy= -4.71521051E+004 eV
  
 +-----------+-----------------+-----------------+------------+-----+ <-- LBFGS
 | Parameter |      value      |    tolerance    |    units   | OK? | <-- LBFGS
 +-----------+-----------------+-----------------+------------+-----+ <-- LBFGS
 |  dE/ion   |   7.314840E-004 |   2.000000E-005 |         eV | No  | <-- LBFGS
 |  |F|max   |   6.152466E-002 |   1.000000E-003 |       eV/A | No  | <-- LBFGS
 |  |dR|max  |   2.908411E-002 |   1.000000E-003 |          A | No  | <-- LBFGS
 +-----------+-----------------+-----------------+------------+-----+ <-- LBFGS
  

================================================================================
 Starting LBFGS iteration          3 ...
================================================================================
  
 +------------+-------------+-------------+-----------------+ <-- min LBFGS
 |    Step    |   lambda    |   F.delta'  |    enthalpy     | <-- min LBFGS
 +------------+-------------+-------------+-----------------+ <-- min LBFGS
 |  previous  |    0.000000 |    0.081294 |   -47152.105094 | <-- min LBFGS
 +------------+-------------+-------------+-----------------+ <-- min LBFGS
  

--------------------------------------------------------------------------------
 LBFGS: starting iteration         3 with trial guess (lambda=  1.000000)
--------------------------------------------------------------------------------

                           -------------------------------
                                     Cell Contents
                           -------------------------------

            xxxxxxxxxxxxxxxxxxxxxxxxxxxxxxxxxxxxxxxxxxxxxxxxxxxxxxxxxxxxxxxxx
            x  Element         Atom        Fractional coordinates of atoms  x
            x                 Number           u          v          w      x
            x---------------------------------------------------------------x
            x  P                 1         0.000000   0.367168   0.767475   x
            x  P                 2         0.000000   0.761409   0.415563   x
            x  P                 3         0.250000   0.617173   0.767443   x
            x  P                 4         0.750000   0.617173   0.767443   x
            x  P                 5         0.250000   0.117173   0.767443   x
            x  P                 6         0.750000   0.117173   0.767443   x
            x  P                 7         0.500000   0.153350   0.076941   x
            x  P                 8         0.500000   0.367168   0.767475   x
            x  P                 9         0.000000   0.653350   0.076941   x
            x  P                10         0.000000   0.153350   0.076941   x
            x  P                11         0.250000   0.403357   0.076902   x
            x  P                12         0.000000   0.261409   0.415563   x
            x  P                13         0.250000   0.011405   0.415585   x
            x  P                14         0.000000  -0.132832   0.767475   x
            x  P                15         0.500000  -0.132832   0.767475   x
            x  P                16         0.750000   0.403357   0.076902   x
            x  P                17         0.500000   0.653350   0.076941   x
            x  P                18         0.750000   0.903357   0.076903   x
            x  P                19         0.250000   0.903357   0.076903   x
            x  P                20         0.500000   0.761409   0.415563   x
            x  P                21         0.500000   0.261409   0.415563   x
            x  P                22         0.750000   0.511405   0.415585   x
            x  P                23         0.750000   0.011405   0.415585   x
            x  P                24         0.250000   0.511405   0.415585   x
            x  In                1         0.500000   0.717517   0.669159   x
            x  In                2         0.750000  -0.032485   0.669172   x
            x  In                3         0.250000   0.751779  -0.010279   x
            x  In                4         0.750000   0.751779  -0.010279   x
            x  In                5         0.250000  -0.032485   0.669172   x
            x  In                6         0.500000   0.217517   0.669159   x
            x  In                7         0.500000   0.501780  -0.010286   x
            x  In                8         0.250000   0.859353   0.331147   x
            x  In                9         0.500000   0.609347   0.331178   x
            x  In               10         0.750000   0.251779  -0.010279   x
            x  In               11         0.750000   0.359353   0.331147   x
            x  In               12        -0.000000   0.109347   0.331178   x
            x  In               13        -0.000000   0.001780  -0.010286   x
            x  In               14         0.000000   0.609347   0.331178   x
            x  In               15         0.250000   0.467515   0.669171   x
            x  In               16        -0.000000   0.501780  -0.010286   x
            x  In               17         0.250000   0.251779  -0.010279   x
            x  In               18         0.000000   0.717517   0.669159   x
            x  In               19         0.000000   0.217517   0.669159   x
            x  In               20         0.750000   0.859353   0.331147   x
            x  In               21         0.250000   0.359353   0.331147   x
            x  In               22         0.500000   0.001780  -0.010286   x
            x  In               23         0.500000   0.109347   0.331178   x
            x  In               24         0.750000   0.467515   0.669172   x
            xxxxxxxxxxxxxxxxxxxxxxxxxxxxxxxxxxxxxxxxxxxxxxxxxxxxxxxxxxxxxxxxx


------------------------------------------------------------------------ <-- SCF
SCF loop      Energy           Fermi           Energy gain       Timer   <-- SCF
                               energy          per atom          (sec)   <-- SCF
------------------------------------------------------------------------ <-- SCF
Initial  -4.71523897E+004  0.00000000E+000                      3011.94  <-- SCF
      1  -4.71520946E+004  3.12940681E+000  -6.14752852E-003    3074.03  <-- SCF
      2  -4.71521076E+004  3.12939985E+000   2.71541619E-004    3145.95  <-- SCF
      3  -4.71521075E+004  3.13028695E+000  -1.20562384E-006    3207.40  <-- SCF
      4  -4.71521075E+004  3.13085401E+000  -7.51009503E-008    3272.72  <-- SCF
      5  -4.71521075E+004  3.13105291E+000   9.25487214E-008    3330.09  <-- SCF
      6  -4.71521075E+004  3.13123079E+000   1.78383351E-009    3383.95  <-- SCF
      7  -4.71521075E+004  3.13128036E+000  -2.43296896E-009    3428.03  <-- SCF
------------------------------------------------------------------------ <-- SCF
 
Final energy, E             =  -47152.07913171     eV
Final free energy (E-TS)    =  -47152.10754624     eV
(energies not corrected for finite basis set)
 
NB est. 0K energy (E-0.5TS)      =  -47152.09333897     eV
 

[...]
     In     7      S                   -0.402
     In     8      Dzz                  1.997
     In     8      Dzy                  1.998
     In     8      Dzx                  1.998
     In     8      Dxx-yy               1.998
     In     8      Dxy                  1.998
     In     8      S                    1.449
     In     8      Px                   0.486
     In     8      Py                   0.487
     In     8      Pz                   0.475
     In     8      S                   -0.488
     In     9      Dzz                  1.997
     In     9      Dzy                  1.998
     In     9      Dzx                  1.998
     In     9      Dxx-yy               1.998
     In     9      Dxy                  1.998
     In     9      S                    1.449
     In     9      Px                   0.486
     In     9      Py                   0.487
     In     9      Pz                   0.475
     In     9      S                   -0.488
     In    10      Dzz                  1.999
     In    10      Dzy                  1.999
     In    10      Dzx                  1.999
     In    10      Dxx-yy               1.998
     In    10      Dxy                  1.998
     In    10      S                    1.377
     In    10      Px                   0.477
     In    10      Py                   0.475
     In    10      Pz                   0.340
     In    10      S                   -0.402
     In    11      Dzz                  1.997
     In    11      Dzy                  1.998
     In    11      Dzx                  1.998
     In    11      Dxx-yy               1.998
     In    11      Dxy                  1.998
     In    11      S                    1.449
     In    11      Px                   0.486
     In    11      Py                   0.487
     In    11      Pz                   0.475
     In    11      S                   -0.488
     In    12      Dzz                  1.997
     In    12      Dzy                  1.998
     In    12      Dzx                  1.998
     In    12      Dxx-yy               1.998
     In    12      Dxy                  1.998
     In    12      S                    1.449
     In    12      Px                   0.486
     In    12      Py                   0.487
     In    12      Pz                   0.475
     In    12      S                   -0.488
     In    13      Dzz                  1.999
     In    13      Dzy                  1.999
     In    13      Dzx                  1.999
     In    13      Dxx-yy               1.998
     In    13      Dxy                  1.998
     In    13      S                    1.377
     In    13      Px                   0.477
     In    13      Py                   0.475
     In    13      Pz                   0.340
     In    13      S                   -0.402
     In    14      Dzz                  1.997
     In    14      Dzy                  1.998
     In    14      Dzx                  1.998
     In    14      Dxx-yy               1.998
     In    14      Dxy                  1.998
     In    14      S                    1.449
     In    14      Px                   0.486
     In    14      Py                   0.487
     In    14      Pz                   0.475
     In    14      S                   -0.488
     In    15      Dzz                  1.998
     In    15      Dzy                  1.999
     In    15      Dzx                  1.999
     In    15      Dxx-yy               1.998
     In    15      Dxy                  1.998
     In    15      S                    1.379
     In    15      Px                   0.470
     In    15      Py                   0.476
     In    15      Pz                   0.468
     In    15      S                   -0.441
     In    16      Dzz                  1.999
     In    16      Dzy                  1.999
     In    16      Dzx                  1.999
     In    16      Dxx-yy               1.998
     In    16      Dxy                  1.998
     In    16      S                    1.377
     In    16      Px                   0.477
     In    16      Py                   0.475
     In    16      Pz                   0.340
     In    16      S                   -0.402
     In    17      Dzz                  1.999
     In    17      Dzy                  1.999
     In    17      Dzx                  1.999
     In    17      Dxx-yy               1.998
     In    17      Dxy                  1.998
     In    17      S                    1.377
     In    17      Px                   0.477
     In    17      Py                   0.475
     In    17      Pz                   0.340
     In    17      S                   -0.402
     In    18      Dzz                  1.998
     In    18      Dzy                  1.999
     In    18      Dzx                  1.999
     In    18      Dxx-yy               1.998
     In    18      Dxy                  1.998
     In    18      S                    1.379
     In    18      Px                   0.470
     In    18      Py                   0.476
     In    18      Pz                   0.468
     In    18      S                   -0.441
     In    19      Dzz                  1.998
     In    19      Dzy                  1.999
     In    19      Dzx                  1.999
     In    19      Dxx-yy               1.998
     In    19      Dxy                  1.998
     In    19      S                    1.379
     In    19      Px                   0.470
     In    19      Py                   0.476
     In    19      Pz                   0.468
     In    19      S                   -0.441
     In    20      Dzz                  1.997
     In    20      Dzy                  1.998
     In    20      Dzx                  1.998
     In    20      Dxx-yy               1.998
     In    20      Dxy                  1.998
     In    20      S                    1.449
     In    20      Px                   0.486
     In    20      Py                   0.487
     In    20      Pz                   0.475
     In    20      S                   -0.488
     In    21      Dzz                  1.997
     In    21      Dzy                  1.998
     In    21      Dzx                  1.998
     In    21      Dxx-yy               1.998
     In    21      Dxy                  1.998
     In    21      S                    1.449
     In    21      Px                   0.486
     In    21      Py                   0.487
     In    21      Pz                   0.475
     In    21      S                   -0.488
     In    22      Dzz                  1.999
     In    22      Dzy                  1.999
     In    22      Dzx                  1.999
     In    22      Dxx-yy               1.998
     In    22      Dxy                  1.998
     In    22      S                    1.377
     In    22      Px                   0.477
     In    22      Py                   0.475
     In    22      Pz                   0.340
     In    22      S                   -0.402
     In    23      Dzz                  1.997
     In    23      Dzy                  1.998
     In    23      Dzx                  1.998
     In    23      Dxx-yy               1.998
     In    23      Dxy                  1.998
     In    23      S                    1.449
     In    23      Px                   0.486
     In    23      Py                   0.487
     In    23      Pz                   0.475
     In    23      S                   -0.488
     In    24      Dzz                  1.998
     In    24      Dzy                  1.999
     In    24      Dzx                  1.999
     In    24      Dxx-yy               1.998
     In    24      Dxy                  1.998
     In    24      S                    1.379
     In    24      Px                   0.470
     In    24      Py                   0.476
     In    24      Pz                   0.468
     In    24      S                   -0.441
  -------------------------------------------
                           Total:     432.000
  -------------------------------------------

     Atomic Populations (Mulliken)
     -----------------------------
Species          Ion     s       p       d       f      Total   Charge (e)
==========================================================================
  P               1     1.786   3.923   0.000   0.000   5.708    -0.708
  P               2     1.744   3.918   0.000   0.000   5.662    -0.662
  P               3     1.786   3.923   0.000   0.000   5.708    -0.708
  P               4     1.786   3.923   0.000   0.000   5.708    -0.708
  P               5     1.786   3.923   0.000   0.000   5.708    -0.708
  P               6     1.786   3.923   0.000   0.000   5.708    -0.708
  P               7     1.752   3.879   0.000   0.000   5.631    -0.631
  P               8     1.786   3.923   0.000   0.000   5.708    -0.708
  P               9     1.752   3.879   0.000   0.000   5.631    -0.631
  P              10     1.752   3.879   0.000   0.000   5.631    -0.631
  P              11     1.752   3.879   0.000   0.000   5.631    -0.631
  P              12     1.744   3.918   0.000   0.000   5.662    -0.662
  P              13     1.744   3.918   0.000   0.000   5.662    -0.662
  P              14     1.786   3.923   0.000   0.000   5.708    -0.708
  P              15     1.786   3.923   0.000   0.000   5.708    -0.708
  P              16     1.752   3.879   0.000   0.000   5.631    -0.631
  P              17     1.752   3.879   0.000   0.000   5.631    -0.631
  P              18     1.752   3.879   0.000   0.000   5.631    -0.631
  P              19     1.752   3.879   0.000   0.000   5.631    -0.631
  P              20     1.744   3.918   0.000   0.000   5.662    -0.662
  P              21     1.744   3.918   0.000   0.000   5.662    -0.662
  P              22     1.744   3.918   0.000   0.000   5.662    -0.662
  P              23     1.744   3.918   0.000   0.000   5.662    -0.662
  P              24     1.744   3.918   0.000   0.000   5.662    -0.662
  In              1     0.938   1.413   9.991   0.000  12.342     0.658
  In              2     0.938   1.413   9.991   0.000  12.342     0.658
  In              3     0.975   1.292   9.993   0.000  12.259     0.741
  In              4     0.975   1.292   9.993   0.000  12.259     0.741
  In              5     0.938   1.413   9.991   0.000  12.342     0.658
  In              6     0.938   1.413   9.991   0.000  12.342     0.658
  In              7     0.975   1.292   9.993   0.000  12.259     0.741
  In              8     0.961   1.447   9.989   0.000  12.398     0.602
  In              9     0.961   1.447   9.989   0.000  12.398     0.602
  In             10     0.975   1.292   9.993   0.000  12.259     0.741
  In             11     0.961   1.447   9.989   0.000  12.398     0.602
  In             12     0.961   1.447   9.989   0.000  12.398     0.602
  In             13     0.975   1.292   9.993   0.000  12.259     0.741
  In             14     0.961   1.447   9.989   0.000  12.398     0.602
  In             15     0.938   1.413   9.991   0.000  12.342     0.658
  In             16     0.975   1.292   9.993   0.000  12.259     0.741
  In             17     0.975   1.292   9.993   0.000  12.259     0.741
  In             18     0.938   1.413   9.991   0.000  12.342     0.658
  In             19     0.938   1.413   9.991   0.000  12.342     0.658
  In             20     0.961   1.447   9.989   0.000  12.398     0.602
  In             21     0.961   1.447   9.989   0.000  12.398     0.602
  In             22     0.975   1.292   9.993   0.000  12.259     0.741
  In             23     0.961   1.447   9.989   0.000  12.398     0.602
  In             24     0.938   1.413   9.991   0.000  12.342     0.658
==========================================================================

                 Bond                   Population      Length (A)
======================================================================
              P 21 -- In 23                  0.66        2.55961
              P 12 -- In 12                  0.66        2.55961
              P 20 -- In 9                   0.66        2.55961
              P 2  -- In 14                  0.66        2.55961
              P 24 -- In 14                  0.66        2.55969
              P 22 -- In 14                  0.66        2.55969
              P 22 -- In 9                   0.66        2.55969
              P 13 -- In 12                  0.66        2.55969
              P 23 -- In 12                  0.66        2.55969
              P 23 -- In 23                  0.66        2.55969
              P 24 -- In 9                   0.66        2.55969
              P 13 -- In 23                  0.66        2.55969
              P 21 -- In 11                  0.66        2.55970
              P 12 -- In 11                  0.66        2.55971
              P 12 -- In 21                  0.66        2.55971
              P 20 -- In 20                  0.66        2.55971
              P 2  -- In 8                   0.66        2.55971
              P 2  -- In 20                  0.66        2.55971
              P 21 -- In 21                  0.66        2.55971
              P 20 -- In 8                   0.66        2.55971
              P 13 -- In 8                   0.66        2.55978
              P 23 -- In 20                  0.66        2.55978
              P 24 -- In 21                  0.66        2.55978
              P 22 -- In 11                  0.66        2.55978
              P 19 -- In 3                   0.65        2.56968
              P 11 -- In 17                  0.65        2.56968
              P 16 -- In 10                  0.65        2.56968
              P 18 -- In 4                   0.65        2.56968
              P 18 -- In 22                  0.65        2.56970
              P 19 -- In 13                  0.65        2.56970
              P 18 -- In 13                  0.65        2.56970
              P 16 -- In 7                   0.65        2.56970
              P 11 -- In 16                  0.65        2.56970
              P 16 -- In 16                  0.65        2.56970
              P 19 -- In 22                  0.65        2.56970
              P 11 -- In 7                   0.65        2.56970
              P 7  -- In 10                  0.65        2.56983
              P 10 -- In 17                  0.65        2.56983
              P 9  -- In 3                   0.65        2.56983
              P 10 -- In 10                  0.65        2.56983
              P 17 -- In 4                   0.65        2.56983
              P 9  -- In 4                   0.65        2.56983
              P 7  -- In 17                  0.65        2.56983
              P 17 -- In 3                   0.65        2.56983
              P 17 -- In 7                   0.65        2.56985
              P 9  -- In 16                  0.65        2.56985
              P 7  -- In 22                  0.65        2.56985
              P 10 -- In 13                  0.65        2.56985
              P 22 -- In 24                  0.62        2.59231
              P 23 -- In 2                   0.62        2.59231
              P 24 -- In 15                  0.62        2.59231
              P 13 -- In 5                   0.62        2.59231
              P 2  -- In 18                  0.62        2.59239
              P 12 -- In 19                  0.62        2.59239
              P 20 -- In 1                   0.62        2.59239
              P 21 -- In 6                   0.62        2.59239
              P 9  -- In 14                  0.59        2.59378
              P 17 -- In 9                   0.59        2.59378
              P 10 -- In 12                  0.59        2.59378
              P 7  -- In 23                  0.59        2.59378
              P 18 -- In 20                  0.59        2.59394
              P 16 -- In 11                  0.59        2.59394
              P 19 -- In 8                   0.59        2.59394
              P 11 -- In 21                  0.59        2.59394
              P 6  -- In 2                   0.64        2.61073
              P 5  -- In 5                   0.64        2.61073
              P 4  -- In 24                  0.64        2.61073
              P 3  -- In 15                  0.64        2.61073
              P 8  -- In 24                  0.63        2.61076
              P 15 -- In 2                   0.63        2.61076
              P 1  -- In 24                  0.63        2.61076
              P 14 -- In 2                   0.63        2.61076
              P 1  -- In 15                  0.63        2.61076
              P 14 -- In 5                   0.63        2.61076
              P 8  -- In 15                  0.63        2.61076
              P 15 -- In 5                   0.63        2.61076
              P 3  -- In 18                  0.63        2.61079
              P 4  -- In 18                  0.63        2.61079
              P 4  -- In 1                   0.63        2.61079
              P 5  -- In 19                  0.63        2.61079
              P 6  -- In 19                  0.63        2.61079
              P 6  -- In 6                   0.63        2.61079
              P 3  -- In 1                   0.63        2.61079
              P 5  -- In 6                   0.63        2.61079
              P 8  -- In 6                   0.64        2.61081
              P 1  -- In 19                  0.64        2.61081
              P 15 -- In 1                   0.64        2.61081
              P 14 -- In 18                  0.64        2.61081
======================================================================


     Hirshfeld Analysis
     ------------------
Species   Ion     Hirshfeld Charge (e)
======================================
  P        1                -0.29
  P        2                -0.23
  P        3                -0.29
  P        4                -0.29
  P        5                -0.29
  P        6                -0.29
  P        7                -0.22
  P        8                -0.29
  P        9                -0.22
  P       10                -0.22
  P       11                -0.22
  P       12                -0.23
  P       13                -0.23
  P       14                -0.29
  P       15                -0.29
  P       16                -0.22
  P       17                -0.22
  P       18                -0.22
  P       19                -0.22
  P       20                -0.23
  P       21                -0.23
  P       22                -0.23
  P       23                -0.23
  P       24                -0.23
  In       1                 0.22
  In       2                 0.22
  In       3                 0.29
  In       4                 0.29
  In       5                 0.22
  In       6                 0.22
  In       7                 0.29
  In       8                 0.23
  In       9                 0.23
  In      10                 0.29
  In      11                 0.23
  In      12                 0.23
  In      13                 0.29
  In      14                 0.23
  In      15                 0.22
  In      16                 0.29
  In      17                 0.29
  In      18                 0.22
  In      19                 0.22
  In      20                 0.23
  In      21                 0.23
  In      22                 0.29
  In      23                 0.23
  In      24                 0.22
======================================

 
 A BibTeX formatted list of references used in this run has been written to 
 StackingFaultStructs_(1_1_1)_(1_1_-2)_3.bib
 
Initialisation time =     23.51 s
Calculation time    =   4129.87 s
Finalisation time   =      3.00 s
Total time          =   4156.37 s
Peak Memory Use     = 3298792 kB
 
Overall parallel efficiency rating: Poor (46%)
 
Data was distributed by:-
G-vector (7-way); efficiency rating: Mediocre (52%)
k-point (36-way); efficiency rating: Very good (81%)
