 +-------------------------------------------------+
 |                                                 |
 |      CCC   AA    SSS  TTTTT  EEEEE  PPPP        |
 |     C     A  A  S       T    E      P   P       |
 |     C     AAAA   SS     T    EEE    PPPP        |
 |     C     A  A     S    T    E      P           |
 |      CCC  A  A  SSS     T    EEEEE  P           |
 |                                                 |
 +-------------------------------------------------+
 |                                                 |
 | Welcome to Academic Release CASTEP version 22.11|
 | Ab Initio Total Energy Program                  |
 |                                                 |
 | Authors:                                        |
 | M. Segall, M. Probert, C. Pickard, P. Hasnip,   |
 | S. Clark, K. Refson, J. R. Yates, M. Payne      |
 |                                                 |
 | Contributors:                                   |
 | P. Lindan, P. Haynes, J. White, V. Milman,      |
 | N. Govind, M. Gibson, P. Tulip, V. Cocula,      |
 | B. Montanari, D. Quigley, M. Glover,            |
 | L. Bernasconi, A. Perlov, M. Plummer,           |
 | E. McNellis, J. Meyer, J. Gale, D. Jochym       |
 | J. Aarons, B. Walker, R. Gillen, D. Jones       |
 | T. Green, I. J. Bush, C. J. Armstrong,          |
 | E. J. Higgins, E. L. Brown, M. S. McFly,        |
 | J. Wilkins, B-C. Shih, P. J. P. Byrne,          |
 | R. J. Maurer, J. C. Womack, J. Dziedzic,        |
 | A. Bartok-Partay, L. LeBlanc, T. K. Stenczel,   |
 | J. Kermode, S. Sturniolo, B. Shi, B. Durham     |
 | M. Evans, M. J. Smith                           |
 |                                                 |
 | Copyright (c) 2000 - 2021                       |
 |                                                 |
 |     Distributed under license from Cambridge    |
 |     Enterprise for academic use only.           |
 |                                                 |
 | Please cite                                     |
 |                                                 |
 |     "First principles methods using CASTEP"     |
 |                                                 |
 |         Zeitschrift fuer Kristallographie       |
 |           220(5-6) pp. 567-570 (2005)           |
 |                                                 |
 | S. J. Clark, M. D. Segall, C. J. Pickard,       |
 | P. J. Hasnip, M. J. Probert, K. Refson,         |
 | M. C. Payne                                     |
 |                                                 |
 |       in all publications arising from          |
 |              your use of CASTEP                 |
 |                                                 |
 +-------------------------------------------------+
 |                                                 |
 |              http://www.castep.org              |
 |                                                 |
 +-------------------------------------------------+



 Compiled for linux_x86_64_gfortran10-XT on Thu, 16 Mar 2023 13:12:36 +0000
 from code version Version unavailable
 Compiler: GNU Fortran 11.2.0; Optimisation: fast
 MATHLIBS: LibSci (LAPACK version 3.10.1)
 FFT Lib : fftw3 version commercial-fftw-3.3.10-sse2-avx-avx2-avx2_128
 Fundamental constants values: CODATA 2014

 Run started: Mon, 25 Mar 2024 19:02:22 +0000

 Atomic calculation performed for P: 1s2 2s2 2p6 3s2 3p3

 Converged in 47 iterations to an ae energy of -9309.074 eV

   ============================================================                
   | Pseudopotential Report - Date of generation 25-03-2024   |                
   ------------------------------------------------------------                
   | Element: P Ionic charge:  5.00 Level of theory: RSCAN    |                
   | Atomic Solver: Koelling-Harmon                           |                
   |                                                          |                
   |               Reference Electronic Structure             |                
   |         Orbital         Occupation         Energy        |                
   |            3s              2.000           -0.535        |                
   |            3p              3.000           -0.209        |                
   |                                                          |                
   |                 Pseudopotential Definition               |                
   |        Beta     l      e      Rc     scheme   norm       |                
   |          1      0   -0.535   1.807     qc      0         |                
   |          2      0    0.250   1.807     qc      0         |                
   |          3      1   -0.209   1.807     qc      0         |                
   |          4      1    0.250   1.807     qc      0         |                
   |          5      2    0.000   1.807     qc      0         |                
   |          6      2    0.250   1.807     qc      0         |                
   |         loc     3    0.000   1.807     pn      0         |                
   |                                                          |                
   | Augmentation charge Rinner = 1.263                       |                
   | Partial core correction Rc = 1.263                       |                
   ------------------------------------------------------------                
   | "3|1.8|4|4|5|30:31:32"                                   |                
   ------------------------------------------------------------                
   |      Author: Chris J. Pickard, Cambridge University      |                
   ============================================================                
 Warning: otfg_output_psp cannot write out meta-GGA pseudopotentials presently.

 Atomic calculation performed for In:
 1s2 2s2 2p6 3s2 3p6 3d10 4s2 4p6 4d10 5s2 5p1

 Converged in 84 iterations to an ae energy of -160093.327 eV

   ============================================================                
   | Pseudopotential Report - Date of generation 25-03-2024   |                
   ------------------------------------------------------------                
   | Element: In Ionic charge: 13.00 Level of theory: RSCAN   |                
   | Atomic Solver: Koelling-Harmon                           |                
   |                                                          |                
   |               Reference Electronic Structure             |                
   |         Orbital         Occupation         Energy        |                
   |            4d             10.000           -0.711        |                
   |            5s              2.000           -0.313        |                
   |            5p              1.000           -0.095        |                
   |                                                          |                
   |                 Pseudopotential Definition               |                
   |        Beta     l      e      Rc     scheme   norm       |                
   |          1      0   -0.313   2.501     qc      0         |                
   |          2      0    0.250   2.501     qc      0         |                
   |          3      1   -0.095   2.501     qc      0         |                
   |          4      1    0.250   2.501     qc      0         |                
   |          5      2   -0.711   2.207     qc      0         |                
   |          6      2    0.250   2.207     qc      0         |                
   |         loc     3    0.000   2.501     pn      0         |                
   |                                                          |                
   | Augmentation charge Rinner = 1.504                       |                
   | Partial core correction Rc = 1.504                       |                
   ------------------------------------------------------------                
   | "3|2.5|2.5|1.5|7|8|9|50:51:42U2.2U2.2"                   |                
   ------------------------------------------------------------                
   |      Author: Chris J. Pickard, Cambridge University      |                
   ============================================================                
 Warning: otfg_output_psp cannot write out meta-GGA pseudopotentials presently.

 Pseudo atomic calculation performed for P 3s2 3p3

 Converged in 23 iterations to a total energy of -208.0292 eV

 Pseudo atomic calculation performed for In 4d10 5s2 5p1

 Converged in 42 iterations to a total energy of -1747.4500 eV
 Calculation parallelised over 240 processes.
 Data is distributed by G-vector(6-way) and k-point(40-way)
 Each process may use up to 2 threads.

 ************************************ Title ************************************
 

 ***************************** General Parameters ******************************
  
 output verbosity                               : normal  (1)
 write checkpoint data to                       : StackingFaultStructs_(0_0_1)_(1_0_0)_0.check
 type of calculation                            : geometry optimization
 stress calculation                             : off
 density difference calculation                 : off
 electron localisation func (ELF) calculation   : off
 Hirshfeld analysis                             : on
 polarisation (Berry phase) analysis            : off
 molecular orbital projected DOS                : off
 deltaSCF calculation                           : off
 unlimited duration calculation
 timing information                             : on
 memory usage estimate                          : on
 write extra output files                       : on
 write final potential to formatted file        : off
 write final density to formatted file          : off
 write BibTeX reference list                    : on
 write OTFG pseudopotential files               : on
 write electrostatic potential file             : on
 write bands file                               : on
 checkpoint writing                             : off
  
 output         length unit                     : A
 output           mass unit                     : amu
 output           time unit                     : ps
 output         charge unit                     : e
 output           spin unit                     : hbar/2
 output         energy unit                     : eV
 output          force unit                     : eV/A
 output       velocity unit                     : A/ps
 output       pressure unit                     : GPa
 output     inv_length unit                     : 1/A
 output      frequency unit                     : cm-1
 output force constant unit                     : eV/A**2
 output         volume unit                     : A**3
 output   IR intensity unit                     : (D/A)**2/amu
 output         dipole unit                     : D
 output         efield unit                     : eV/A/e
 output        entropy unit                     : J/mol/K
 output    efield chi2 unit                     : pm/V
  
 wavefunctions paging                           : none
 random number generator seed                   : randomised (190223317)
 data distribution                              : optimal for this architecture
 optimization strategy                          : balance speed and memory

 *********************** Exchange-Correlation Parameters ***********************
  
 using functional                               : RSCAN
 relativistic treatment                         : Koelling-Harmon
 DFT+D: Semi-empirical dispersion correction    : off

 ************************* Pseudopotential Parameters **************************
  
 pseudopotential representation                 : reciprocal space
 <beta|phi> representation                      : reciprocal space
 spin-orbit coupling                            : off

 **************************** Basis Set Parameters *****************************
  
 plane wave basis set cut-off                   :   900.0000   eV
 size of standard grid                          :     2.0000
 size of   fine   gmax                          :    30.7390   1/A
 finite basis set correction                    : none

 **************************** Electronic Parameters ****************************
  
 number of  electrons                           :  216.0    
 net charge of system                           :  0.000    
 treating system as non-spin-polarized
 number of bands                                :        130

 ********************* Electronic Minimization Parameters **********************
  
 Method: Treating system as metallic with density mixing treatment of electrons,
         and number of  SD  steps               :          1
         and number of  CG  steps               :          4
  
 total energy / atom convergence tol.           : 0.1000E-07   eV
 eigen-energy convergence tolerance             : 0.2222E-08   eV
 max force / atom convergence tol.              : ignored
 convergence tolerance window                   :          3   cycles
 max. number of SCF cycles                      :         50
 number of fixed-spin iterations                :         10
 smearing scheme                                : Gaussian
 smearing width                                 : 0.2000       eV
 Fermi energy convergence tolerance             : 0.2721E-13   eV
 periodic dipole correction                     : NONE

 ************************** Density Mixing Parameters **************************
  
 density-mixing scheme                          : Pulay
 max. length of mixing history                  :         15
 charge density mixing amplitude                : 0.5000    
 cut-off energy for mixing                      :  900.0       eV

 *********************** Population Analysis Parameters ************************
  
 Population analysis with cutoff                :  3.000       A
 Population analysis output                     : summary and pdos components

 ********************** Geometry Optimization Parameters ***********************
  
 optimization method                            : LBFGS
 max. no. of LBFGS updates                      : unbounded
 preconditioned LBFGS is activated
 preconditioner type                            : EXP
     stabilization constant                     :     0.1000
     parameter A                                :     3.0000
     nearest neighbor distance                  : automatic
     cut-off distance                           : automatic
     parameter mu                               : automatic
 variable cell method                           : fixed basis quality
 max. number of steps                           :         30
 estimated bulk modulus                         :  500.0       GPa
 estimated <frequency>                          :  1668.       cm-1
 geom line minimiser                            : on
 with line minimiser tolerance                  :     0.4000
 total energy convergence tolerance             : 0.2000E-04   eV/atom
        max ionic |force| tolerance             : 0.1000E-02   eV/A
 max ionic |displacement| tolerance             : 0.1000E-02   A
   max |stress component| tolerance             : 0.1000       GPa
 convergence tolerance window                   :          2   steps
 backup results every                           :          5   steps
 write geom trajectory file                     : on

 *******************************************************************************
  

                           -------------------------------
                                      Unit Cell
                           -------------------------------
        Real Lattice(A)                      Reciprocal Lattice(1/A)
     5.9012740     0.0000000     0.0000000        1.064716756   0.000000000   0.000000000
     0.0000000     5.9012740     0.0000000        0.000000000   1.064716756   0.000000000
     0.0000000     0.0000000    17.7038210        0.000000000   0.000000000   0.354905605

                       Lattice parameters(A)       Cell Angles
                    a =      5.901274          alpha =   90.000000
                    b =      5.901274          beta  =   90.000000
                    c =     17.703821          gamma =   90.000000

                       Current cell volume =           616.536183       A**3
                                   density =             2.837629   AMU/A**3
                                           =             4.711994     g/cm^3

                           -------------------------------
                                     Cell Contents
                           -------------------------------
                         Total number of ions in cell =   24
                      Total number of species in cell =    2
                        Max number of any one species =   12

            xxxxxxxxxxxxxxxxxxxxxxxxxxxxxxxxxxxxxxxxxxxxxxxxxxxxxxxxxxxx
            x  Element    Atom        Fractional coordinates of atoms  x
            x            Number           u          v          w      x
            x----------------------------------------------------------x
            x  P            1         0.250000   0.750000   0.916667   x 
            x  P            2         0.250000   0.250000   0.750000   x 
            x  P            3         0.750000   0.750000   0.750000   x 
            x  P            4         0.750000   0.250000   0.916667   x 
            x  P            5         0.750000   0.250000   0.250000   x 
            x  P            6         0.750000   0.750000   0.416667   x 
            x  P            7         0.750000   0.250000   0.583333   x 
            x  P            8         0.250000   0.750000   0.250000   x 
            x  P            9         0.250000   0.250000   0.083333   x 
            x  P           10         0.750000   0.750000   0.083333   x 
            x  P           11         0.250000   0.250000   0.416667   x 
            x  P           12         0.250000   0.750000   0.583333   x 
            x  In           1         0.000000   0.500000   0.833333   x 
            x  In           2         0.500000   0.500000   0.666667   x 
            x  In           3         0.500000   0.000000   0.833333   x 
            x  In           4         0.500000   0.000000   0.166667   x 
            x  In           5         0.500000   0.500000   0.000000   x 
            x  In           6         0.000000   0.000000   0.000000   x 
            x  In           7         0.000000   0.500000   0.166667   x 
            x  In           8         0.000000   0.000000   0.666667   x 
            x  In           9         0.500000   0.000000   0.500000   x 
            x  In          10         0.500000   0.500000   0.333333   x 
            x  In          11         0.000000   0.000000   0.333333   x 
            x  In          12         0.000000   0.500000   0.500000   x 
            xxxxxxxxxxxxxxxxxxxxxxxxxxxxxxxxxxxxxxxxxxxxxxxxxxxxxxxxxxxx


                         No user defined ionic velocities

                           -------------------------------
                                   Details of Species
                           -------------------------------

                               Mass of species in AMU
                                    P   30.9737600
                                    In  114.8180000

                          Electric Quadrupole Moment (Barn)
                                    P    1.0000000 No Isotope Defined
                                    In    0.7700000 Isotope115

                          Files used for pseudopotentials:
                                    P 3|1.8|4|4|5|30:31:32
                                    In 3|2.5|2.5|1.5|7|8|9|50:51:42U2.2U2.2

                           -------------------------------
                              k-Points For BZ Sampling
                           -------------------------------
                       MP grid size for SCF calculation is  6  6  2
                            with an offset of   0.083  0.083  0.250
                       Number of kpoints used =            40

                           -------------------------------
                               Symmetry and Constraints
                           -------------------------------

                      Cell is a supercell containing 12 primitive cells
                      Maximum deviation from symmetry =  0.00000         ANG

                      Number of symmetry operations   =           1
                      Number of ionic constraints     =          48
                      Point group of crystal =     1: C1, 1, 1
                      Space group of crystal =   216: F-43m, F -4 2 3

             Set iprint > 1 for details on symmetry rotations/translations

                         Centre of mass is NOT constrained
             Set iprint > 1 for details of linear ionic constraints

                         Number of cell constraints= 6
                         Cell constraints are:  0 0 0 0 0 0

                         External pressure/stress (GPa)
                          0.00000   0.00000   0.00000
                                    0.00000   0.00000
                                              0.00000
 
+---------------- MEMORY AND SCRATCH DISK ESTIMATES PER PROCESS --------------+
|                                                     Memory          Disk    |
| Baseline code, static data and system overhead      488.0 MB         0.0 MB |
| BLAS internal memory storage                          0.0 MB         0.0 MB |
| Model and support data                              832.5 MB         0.0 MB |
| Electronic energy minimisation requirements          87.7 MB         0.0 MB |
| Force calculation requirements                       15.9 MB         0.0 MB |
|                                               ----------------------------- |
| Approx. total storage required per process         1408.2 MB         0.0 MB |
|                                                                             |
| Requirements will fluctuate during execution and may exceed these estimates |
+-----------------------------------------------------------------------------+
Calculating approximate eigenstates for fixed initial Hamiltonian
Cut-off for approx. calculation is  131.752 eV
Improving approx. states at cut-off of  450.000 eV
Resetting cut-off to  900.000 eV
Calculating total energy with cut-off of  900.000 eV.
------------------------------------------------------------------------ <-- SCF
SCF loop      Energy           Fermi           Energy gain       Timer   <-- SCF
                               energy          per atom          (sec)   <-- SCF
------------------------------------------------------------------------ <-- SCF
Initial  -2.36371594E+004  0.00000000E+000                        40.32  <-- SCF
      1  -2.35518130E+004  2.58136147E+000  -3.55610157E+000      51.04  <-- SCF
      2  -2.35518254E+004  2.58129441E+000   5.16651230E-004      60.79  <-- SCF
      3  -2.35771287E+004  2.87591498E+000   1.05430339E+000      71.04  <-- SCF
      4  -2.35813140E+004  2.94523176E+000   1.74388345E-001      83.25  <-- SCF
      5  -2.35794766E+004  3.30955928E+000  -7.65568031E-002      93.51  <-- SCF
      6  -2.35792668E+004  3.36224044E+000  -8.74384128E-003     103.86  <-- SCF
      7  -2.35791975E+004  3.41018075E+000  -2.88520159E-003     114.34  <-- SCF
      8  -2.35797809E+004  3.45532025E+000   2.43064437E-002     124.70  <-- SCF
      9  -2.35797987E+004  3.39853261E+000   7.41294024E-004     135.03  <-- SCF
     10  -2.35797981E+004  3.41763554E+000  -2.39856183E-005     145.37  <-- SCF
     11  -2.35797977E+004  3.41888102E+000  -1.46889427E-005     156.28  <-- SCF
     12  -2.35797981E+004  3.41659370E+000   1.64307359E-005     166.70  <-- SCF
     13  -2.35797982E+004  3.41644446E+000   1.32421158E-006     175.93  <-- SCF
     14  -2.35797982E+004  3.41633889E+000   2.06903547E-008     183.82  <-- SCF
     15  -2.35797982E+004  3.41636414E+000  -9.11316056E-011     191.50  <-- SCF
     16  -2.35797982E+004  3.41638045E+000   7.47614303E-012     198.98  <-- SCF
------------------------------------------------------------------------ <-- SCF
 
Final energy, E             =  -23579.79814423     eV
Final free energy (E-TS)    =  -23579.79815594     eV
(energies not corrected for finite basis set)
 
NB est. 0K energy (E-0.5TS)      =  -23579.79815008     eV
 
 
+---------------- MEMORY AND SCRATCH DISK ESTIMATES PER PROCESS --------------+
|                                                     Memory          Disk    |
| Model and support data                              554.7 MB         0.0 MB |
| Electronic energy minimisation requirements          87.7 MB         0.0 MB |
| Geometry minimisation requirements                  102.3 MB         0.0 MB |
|                                               ----------------------------- |
| Approx. total storage required per process          744.7 MB         0.0 MB |
|                                                                             |
| Requirements will fluctuate during execution and may exceed these estimates |
+-----------------------------------------------------------------------------+
 

 ******************************** Constrained Forces ********************************
 *                                                                                  *
 *                           Cartesian components (eV/A)                            *
 * -------------------------------------------------------------------------------- *
 *                         x                    y                    z              *
 *                                                                                  *
 * P               1      0.00000(cons'd)      0.00000(cons'd)      0.00001         *
 * P               2      0.00000(cons'd)      0.00000(cons'd)     -0.00001         *
 * P               3      0.00000(cons'd)      0.00000(cons'd)     -0.00001         *
 * P               4      0.00000(cons'd)      0.00000(cons'd)      0.00001         *
 * P               5      0.00000(cons'd)      0.00000(cons'd)      0.00001         *
 * P               6      0.00000(cons'd)      0.00000(cons'd)     -0.00000         *
 * P               7      0.00000(cons'd)      0.00000(cons'd)     -0.00001         *
 * P               8      0.00000(cons'd)      0.00000(cons'd)      0.00001         *
 * P               9      0.00000(cons'd)      0.00000(cons'd)      0.00000         *
 * P              10      0.00000(cons'd)      0.00000(cons'd)      0.00000         *
 * P              11      0.00000(cons'd)      0.00000(cons'd)     -0.00000         *
 * P              12      0.00000(cons'd)      0.00000(cons'd)     -0.00001         *
 * In              1      0.00000(cons'd)      0.00000(cons'd)      0.00000         *
 * In              2      0.00000(cons'd)      0.00000(cons'd)      0.00001         *
 * In              3      0.00000(cons'd)      0.00000(cons'd)      0.00000         *
 * In              4      0.00000(cons'd)      0.00000(cons'd)     -0.00001         *
 * In              5      0.00000(cons'd)      0.00000(cons'd)     -0.00000         *
 * In              6      0.00000(cons'd)      0.00000(cons'd)     -0.00000         *
 * In              7      0.00000(cons'd)      0.00000(cons'd)     -0.00000         *
 * In              8      0.00000(cons'd)      0.00000(cons'd)      0.00001         *
 * In              9      0.00000(cons'd)      0.00000(cons'd)      0.00001         *
 * In             10      0.00000(cons'd)      0.00000(cons'd)     -0.00001         *
 * In             11      0.00000(cons'd)      0.00000(cons'd)     -0.00001         *
 * In             12      0.00000(cons'd)      0.00000(cons'd)      0.00001         *
 *                                                                                  *
 ************************************************************************************
 EXP precond LBFGS => estimated nearest neighbor distance :  2.555       A
 EXP precond LBFGS => estimated cutoff distance :  5.111       A

 ************************************** Forces **************************************
 *                                                                                  *
 *                           Cartesian components (eV/A)                            *
 * -------------------------------------------------------------------------------- *
 *                         x                    y                    z              *
 *                                                                                  *
 * P               1      0.00000(cons'd)      0.00000(cons'd)      0.00001         *
 * P               2      0.00000(cons'd)      0.00000(cons'd)     -0.00001         *
 * P               3      0.00000(cons'd)      0.00000(cons'd)     -0.00001         *
 * P               4      0.00000(cons'd)      0.00000(cons'd)      0.00001         *
 * P               5      0.00000(cons'd)      0.00000(cons'd)      0.00001         *
 * P               6      0.00000(cons'd)      0.00000(cons'd)     -0.00000         *
 * P               7      0.00000(cons'd)      0.00000(cons'd)     -0.00001         *
 * P               8      0.00000(cons'd)      0.00000(cons'd)      0.00001         *
 * P               9      0.00000(cons'd)      0.00000(cons'd)      0.00000         *
 * P              10      0.00000(cons'd)      0.00000(cons'd)      0.00000         *
 * P              11      0.00000(cons'd)      0.00000(cons'd)     -0.00000         *
 * P              12      0.00000(cons'd)      0.00000(cons'd)     -0.00001         *
 * In              1     -0.00000(cons'd)     -0.00000(cons'd)      0.00000         *
 * In              2     -0.00000(cons'd)     -0.00000(cons'd)      0.00001         *
 * In              3     -0.00000(cons'd)     -0.00000(cons'd)      0.00000         *
 * In              4     -0.00000(cons'd)     -0.00000(cons'd)     -0.00001         *
 * In              5     -0.00000(cons'd)     -0.00000(cons'd)     -0.00000         *
 * In              6     -0.00000(cons'd)     -0.00000(cons'd)     -0.00000         *
 * In              7     -0.00000(cons'd)     -0.00000(cons'd)     -0.00000         *
 * In              8     -0.00000(cons'd)     -0.00000(cons'd)      0.00001         *
 * In              9     -0.00000(cons'd)     -0.00000(cons'd)      0.00001         *
 * In             10     -0.00000(cons'd)     -0.00000(cons'd)     -0.00001         *
 * In             11     -0.00000(cons'd)     -0.00000(cons'd)     -0.00001         *
 * In             12     -0.00000(cons'd)     -0.00000(cons'd)      0.00001         *
 *                                                                                  *
 ************************************************************************************
 doing test perturbation to get energy scale for EXP preconditioner

                           -------------------------------
                                     Cell Contents
                           -------------------------------

            xxxxxxxxxxxxxxxxxxxxxxxxxxxxxxxxxxxxxxxxxxxxxxxxxxxxxxxxxxxxxxxxx
            x  Element         Atom        Fractional coordinates of atoms  x
            x                 Number           u          v          w      x
            x---------------------------------------------------------------x
            x  P                 1         0.251417   0.753644   0.917881   x
            x  P                 2         0.251417   0.251417   0.751054   x
            x  P                 3         0.753644   0.753644   0.751054   x
            x  P                 4         0.753644   0.251417   0.917881   x
            x  P                 5         0.753644   0.251417   0.250389   x
            x  P                 6         0.753644   0.753644   0.417300   x
            x  P                 7         0.753644   0.251417   0.584191   x
            x  P                 8         0.251417   0.753644   0.250389   x
            x  P                 9         0.251417   0.251417   0.083464   x
            x  P                10         0.753644   0.753644   0.083464   x
            x  P                11         0.251417   0.251417   0.417300   x
            x  P                12         0.251417   0.753644   0.584191   x
            x  In                1         0.000000   0.502678   0.834472   x
            x  In                2         0.502678   0.502678   0.667626   x
            x  In                3         0.502678   0.000000   0.834472   x
            x  In                4         0.502678   0.000000   0.166928   x
            x  In                5         0.502678   0.502678   0.000000   x
            x  In                6         0.000000   0.000000   0.000000   x
            x  In                7         0.000000   0.502678   0.166928   x
            x  In                8         0.000000   0.000000   0.667626   x
            x  In                9         0.502678   0.000000   0.500749   x
            x  In               10         0.502678   0.502678   0.333847   x
            x  In               11         0.000000   0.000000   0.333847   x
            x  In               12         0.000000   0.502678   0.500749   x
            xxxxxxxxxxxxxxxxxxxxxxxxxxxxxxxxxxxxxxxxxxxxxxxxxxxxxxxxxxxxxxxxx


------------------------------------------------------------------------ <-- SCF
SCF loop      Energy           Fermi           Energy gain       Timer   <-- SCF
                               energy          per atom          (sec)   <-- SCF
------------------------------------------------------------------------ <-- SCF
Initial  -2.35791034E+004  0.00000000E+000                       213.65  <-- SCF
      1  -2.35796812E+004  3.41785923E+000   2.40736590E-002     223.68  <-- SCF
      2  -2.35797748E+004  3.41774082E+000   3.90249689E-003     236.32  <-- SCF
      3  -2.35797753E+004  3.41778789E+000   1.82516841E-005     247.08  <-- SCF
      4  -2.35797759E+004  3.41780375E+000   2.43216593E-005     258.00  <-- SCF
      5  -2.35797760E+004  3.41778558E+000   3.89651818E-006     269.45  <-- SCF
      6  -2.35797760E+004  3.41778313E+000   5.17637058E-007     280.38  <-- SCF
      7  -2.35797760E+004  3.41778824E+000  -8.24096535E-008     290.05  <-- SCF
      8  -2.35797760E+004  3.41778964E+000  -7.53316796E-008     299.14  <-- SCF
      9  -2.35797760E+004  3.41779028E+000  -1.81873936E-008     307.54  <-- SCF
     10  -2.35797760E+004  3.41779168E+000  -1.07669350E-009     315.53  <-- SCF
     11  -2.35797760E+004  3.41779204E+000   3.40035609E-010     323.01  <-- SCF
------------------------------------------------------------------------ <-- SCF
 
Final energy, E             =  -23579.77595655     eV
Final free energy (E-TS)    =  -23579.77596896     eV
(energies not corrected for finite basis set)
 
NB est. 0K energy (E-0.5TS)      =  -23579.77596275     eV
 

 ************************************** Forces **************************************
 *                                                                                  *
 *                           Cartesian components (eV/A)                            *
 * -------------------------------------------------------------------------------- *
 *                         x                    y                    z              *
 *                                                                                  *
 * P               1      0.02830(cons'd)     -0.13255(cons'd)     -0.12030         *
 * P               2      0.02395(cons'd)      0.02395(cons'd)      0.00619         *
 * P               3     -0.13314(cons'd)     -0.13314(cons'd)      0.01180         *
 * P               4     -0.13255(cons'd)      0.02830(cons'd)     -0.12030         *
 * P               5     -0.13018(cons'd)      0.02381(cons'd)      0.00512         *
 * P               6     -0.13324(cons'd)     -0.13324(cons'd)      0.01047         *
 * P               7     -0.13001(cons'd)      0.02405(cons'd)      0.00614         *
 * P               8      0.02381(cons'd)     -0.13018(cons'd)      0.00512         *
 * P               9      0.02379(cons'd)      0.02379(cons'd)      0.01337         *
 * P              10     -0.13350(cons'd)     -0.13350(cons'd)      0.01824         *
 * P              11      0.02370(cons'd)      0.02370(cons'd)      0.00514         *
 * P              12      0.02405(cons'd)     -0.13001(cons'd)      0.00614         *
 * In              1      0.15851(cons'd)     -0.05254(cons'd)     -0.02420         *
 * In              2     -0.05205(cons'd)     -0.05205(cons'd)     -0.00687         *
 * In              3     -0.05254(cons'd)      0.15851(cons'd)     -0.02420         *
 * In              4     -0.05222(cons'd)      0.15822(cons'd)     -0.00742         *
 * In              5     -0.05236(cons'd)     -0.05236(cons'd)      0.13378         *
 * In              6      0.16047(cons'd)      0.16047(cons'd)      0.13377         *
 * In              7      0.15822(cons'd)     -0.05222(cons'd)     -0.00742         *
 * In              8      0.16155(cons'd)      0.16155(cons'd)     -0.01192         *
 * In              9     -0.05215(cons'd)      0.15820(cons'd)     -0.00709         *
 * In             10     -0.05200(cons'd)     -0.05200(cons'd)     -0.00671         *
 * In             11      0.16139(cons'd)      0.16139(cons'd)     -0.01176         *
 * In             12      0.15820(cons'd)     -0.05215(cons'd)     -0.00709         *
 *                                                                                  *
 ************************************************************************************
 EXP precond LBFGS => estimated parameter mu :  2.124       eV/A**2
 LBFGS: finished iteration     0 with enthalpy= -2.35797982E+004 eV
  
 +-----------+-----------------+-----------------+------------+-----+ <-- LBFGS
 | Parameter |      value      |    tolerance    |    units   | OK? | <-- LBFGS
 +-----------+-----------------+-----------------+------------+-----+ <-- LBFGS
 |  dE/ion   |   0.000000E+000 |   2.000000E-005 |         eV | No  | <-- LBFGS
 |  |F|max   |   2.634307E-001 |   1.000000E-003 |       eV/A | No  | <-- LBFGS
 |  |dR|max  |   3.816684E-015 |   1.000000E-003 |          A | No  | <-- LBFGS
 +-----------+-----------------+-----------------+------------+-----+ <-- LBFGS
  

================================================================================
 Starting LBFGS iteration          1 ...
================================================================================
  
 +------------+-------------+-------------+-----------------+ <-- min LBFGS
 |    Step    |   lambda    |   F.delta'  |    enthalpy     | <-- min LBFGS
 +------------+-------------+-------------+-----------------+ <-- min LBFGS
 |  previous  |    0.000000 |    0.000015 |   -23579.798156 | <-- min LBFGS
 +------------+-------------+-------------+-----------------+ <-- min LBFGS
  

--------------------------------------------------------------------------------
 LBFGS: starting iteration         1 with trial guess (lambda=  1.000000)
--------------------------------------------------------------------------------

                           -------------------------------
                                     Cell Contents
                           -------------------------------

            xxxxxxxxxxxxxxxxxxxxxxxxxxxxxxxxxxxxxxxxxxxxxxxxxxxxxxxxxxxxxxxxx
            x  Element         Atom        Fractional coordinates of atoms  x
            x                 Number           u          v          w      x
            x---------------------------------------------------------------x
            x  P                 1         0.250000   0.750000   0.916667   x
            x  P                 2         0.250000   0.250000   0.750000   x
            x  P                 3         0.750000   0.750000   0.750000   x
            x  P                 4         0.750000   0.250000   0.916667   x
            x  P                 5         0.750000   0.250000   0.250000   x
            x  P                 6         0.750000   0.750000   0.416667   x
            x  P                 7         0.750000   0.250000   0.583333   x
            x  P                 8         0.250000   0.750000   0.250000   x
            x  P                 9         0.250000   0.250000   0.083333   x
            x  P                10         0.750000   0.750000   0.083333   x
            x  P                11         0.250000   0.250000   0.416667   x
            x  P                12         0.250000   0.750000   0.583333   x
            x  In                1         0.000000   0.500000   0.833333   x
            x  In                2         0.500000   0.500000   0.666667   x
            x  In                3         0.500000   0.000000   0.833333   x
            x  In                4         0.500000   0.000000   0.166667   x
            x  In                5         0.500000   0.500000  -0.000000   x
            x  In                6         0.000000   0.000000  -0.000000   x
            x  In                7         0.000000   0.500000   0.166667   x
            x  In                8         0.000000   0.000000   0.666667   x
            x  In                9         0.500000   0.000000   0.500000   x
            x  In               10         0.500000   0.500000   0.333333   x
            x  In               11         0.000000   0.000000   0.333333   x
            x  In               12         0.000000   0.500000   0.500000   x
            xxxxxxxxxxxxxxxxxxxxxxxxxxxxxxxxxxxxxxxxxxxxxxxxxxxxxxxxxxxxxxxxx


------------------------------------------------------------------------ <-- SCF
SCF loop      Energy           Fermi           Energy gain       Timer   <-- SCF
                               energy          per atom          (sec)   <-- SCF
------------------------------------------------------------------------ <-- SCF
Initial  -2.35790445E+004  0.00000000E+000                       332.00  <-- SCF
      1  -2.35797037E+004  3.41631348E+000   2.74655631E-002     342.06  <-- SCF
      2  -2.35797969E+004  3.41621538E+000   3.88596168E-003     354.61  <-- SCF
      3  -2.35797974E+004  3.41627890E+000   2.15299690E-005     365.42  <-- SCF
      4  -2.35797981E+004  3.41639356E+000   2.59197844E-005     376.34  <-- SCF
      5  -2.35797981E+004  3.41638990E+000   3.49770862E-006     388.23  <-- SCF
      6  -2.35797982E+004  3.41639221E+000   4.79972379E-007     399.16  <-- SCF
      7  -2.35797982E+004  3.41639814E+000  -8.05875370E-008     408.81  <-- SCF
      8  -2.35797982E+004  3.41639945E+000  -7.38472785E-008     417.81  <-- SCF
      9  -2.35797982E+004  3.41639848E+000  -1.09907037E-008     426.10  <-- SCF
     10  -2.35797982E+004  3.41639759E+000  -2.42871529E-009     434.10  <-- SCF
     11  -2.35797982E+004  3.41639754E+000   2.58571430E-010     441.58  <-- SCF
------------------------------------------------------------------------ <-- SCF
 
Final energy, E             =  -23579.79814423     eV
Final free energy (E-TS)    =  -23579.79815594     eV
(energies not corrected for finite basis set)
 
NB est. 0K energy (E-0.5TS)      =  -23579.79815009     eV
 

 ******************************** Constrained Forces ********************************
 *                                                                                  *
 *                           Cartesian components (eV/A)                            *
 * -------------------------------------------------------------------------------- *
 *                         x                    y                    z              *
 *                                                                                  *
 * P               1      0.00000(cons'd)      0.00000(cons'd)     -0.00005         *
 * P               2      0.00000(cons'd)      0.00000(cons'd)      0.00001         *
 * P               3      0.00000(cons'd)      0.00000(cons'd)      0.00001         *
 * P               4      0.00000(cons'd)      0.00000(cons'd)     -0.00005         *
 * P               5      0.00000(cons'd)      0.00000(cons'd)      0.00003         *
 * P               6      0.00000(cons'd)      0.00000(cons'd)      0.00013         *
 * P               7      0.00000(cons'd)      0.00000(cons'd)      0.00013         *
 * P               8      0.00000(cons'd)      0.00000(cons'd)      0.00003         *
 * P               9      0.00000(cons'd)      0.00000(cons'd)     -0.00007         *
 * P              10      0.00000(cons'd)      0.00000(cons'd)     -0.00007         *
 * P              11      0.00000(cons'd)      0.00000(cons'd)      0.00013         *
 * P              12      0.00000(cons'd)      0.00000(cons'd)      0.00013         *
 * In              1      0.00000(cons'd)      0.00000(cons'd)     -0.00007         *
 * In              2      0.00000(cons'd)      0.00000(cons'd)     -0.00006         *
 * In              3      0.00000(cons'd)      0.00000(cons'd)     -0.00007         *
 * In              4      0.00000(cons'd)      0.00000(cons'd)     -0.00002         *
 * In              5      0.00000(cons'd)      0.00000(cons'd)      0.00002         *
 * In              6      0.00000(cons'd)      0.00000(cons'd)      0.00001         *
 * In              7      0.00000(cons'd)      0.00000(cons'd)     -0.00002         *
 * In              8      0.00000(cons'd)      0.00000(cons'd)     -0.00007         *
 * In              9      0.00000(cons'd)      0.00000(cons'd)     -0.00003         *
 * In             10      0.00000(cons'd)      0.00000(cons'd)     -0.00001         *
 * In             11      0.00000(cons'd)      0.00000(cons'd)     -0.00002         *
 * In             12      0.00000(cons'd)      0.00000(cons'd)     -0.00003         *
 *                                                                                  *
 ************************************************************************************
  
 +------------+-------------+-------------+-----------------+ <-- min LBFGS
 |    Step    |   lambda    |   F.delta'  |    enthalpy     | <-- min LBFGS
 +------------+-------------+-------------+-----------------+ <-- min LBFGS
 |  previous  |    0.000000 |    0.000015 |   -23579.798156 | <-- min LBFGS
 | trial step |    1.000000 |   -0.000078 |   -23579.798156 | <-- min LBFGS
 +------------+-------------+-------------+-----------------+ <-- min LBFGS
  
 LBFGS: finished iteration     1 with enthalpy= -2.35797982E+004 eV
  
 +-----------+-----------------+-----------------+------------+-----+ <-- LBFGS
 | Parameter |      value      |    tolerance    |    units   | OK? | <-- LBFGS
 +-----------+-----------------+-----------------+------------+-----+ <-- LBFGS
 |  dE/ion   |   2.530932E-010 |   2.000000E-005 |         eV | Yes | <-- LBFGS
 |  |F|max   |   1.330766E-004 |   1.000000E-003 |       eV/A | Yes | <-- LBFGS
 |  |dR|max  |   4.767356E-007 |   1.000000E-003 |          A | Yes | <-- LBFGS
 +-----------+-----------------+-----------------+------------+-----+ <-- LBFGS
  
 LBFGS: Geometry optimization completed successfully.

================================================================================
 LBFGS: Final Configuration:
================================================================================

                           -------------------------------
                                     Cell Contents
                           -------------------------------

            xxxxxxxxxxxxxxxxxxxxxxxxxxxxxxxxxxxxxxxxxxxxxxxxxxxxxxxxxxxxxxxxx
            x  Element         Atom        Fractional coordinates of atoms  x
            x                 Number           u          v          w      x
            x---------------------------------------------------------------x
            x  P                 1         0.250000   0.750000   0.916667   x
            x  P                 2         0.250000   0.250000   0.750000   x
            x  P                 3         0.750000   0.750000   0.750000   x
            x  P                 4         0.750000   0.250000   0.916667   x
            x  P                 5         0.750000   0.250000   0.250000   x
            x  P                 6         0.750000   0.750000   0.416667   x
            x  P                 7         0.750000   0.250000   0.583333   x
            x  P                 8         0.250000   0.750000   0.250000   x
            x  P                 9         0.250000   0.250000   0.083333   x
            x  P                10         0.750000   0.750000   0.083333   x
            x  P                11         0.250000   0.250000   0.416667   x
            x  P                12         0.250000   0.750000   0.583333   x
            x  In                1         0.000000   0.500000   0.833333   x
            x  In                2         0.500000   0.500000   0.666667   x
            x  In                3         0.500000   0.000000   0.833333   x
            x  In                4         0.500000   0.000000   0.166667   x
            x  In                5         0.500000   0.500000  -0.000000   x
            x  In                6         0.000000   0.000000  -0.000000   x
            x  In                7         0.000000   0.500000   0.166667   x
            x  In                8         0.000000   0.000000   0.666667   x
            x  In                9         0.500000   0.000000   0.500000   x
            x  In               10         0.500000   0.500000   0.333333   x
            x  In               11         0.000000   0.000000   0.333333   x
            x  In               12         0.000000   0.500000   0.500000   x
            xxxxxxxxxxxxxxxxxxxxxxxxxxxxxxxxxxxxxxxxxxxxxxxxxxxxxxxxxxxxxxxxx


 LBFGS: Final Enthalpy     = -2.35797982E+004 eV
 LBFGS: Final <frequency>  unchanged from initial value

 ******************* Unconstrained Forces *******************
 *                                                          *
 *               Cartesian components (eV/A)                *
 * -------------------------------------------------------- *
 *                         x            y            z      *
 *                                                          *
 * P               1      0.00002      0.00006     -0.00005 *
 * P               2      0.00002      0.00002      0.00001 *
 * P               3      0.00006      0.00006      0.00001 *
 * P               4      0.00006      0.00002     -0.00005 *
 * P               5      0.00006      0.00002      0.00003 *
 * P               6      0.00005      0.00005      0.00013 *
 * P               7      0.00005      0.00002      0.00013 *
 * P               8      0.00002      0.00006      0.00003 *
 * P               9      0.00002      0.00002     -0.00007 *
 * P              10      0.00005      0.00005     -0.00007 *
 * P              11      0.00002      0.00002      0.00013 *
 * P              12      0.00002      0.00005      0.00013 *
 * In              1     -0.00001     -0.00006     -0.00007 *
 * In              2     -0.00005     -0.00005     -0.00006 *
 * In              3     -0.00006     -0.00001     -0.00007 *
 * In              4     -0.00006     -0.00002     -0.00002 *
 * In              5     -0.00006     -0.00006      0.00002 *
 * In              6     -0.00001     -0.00001      0.00001 *
 * In              7     -0.00002     -0.00006     -0.00002 *
 * In              8     -0.00002     -0.00002     -0.00007 *
 * In              9     -0.00006     -0.00001     -0.00003 *
 * In             10     -0.00006     -0.00006     -0.00001 *
 * In             11     -0.00002     -0.00002     -0.00002 *
 * In             12     -0.00001     -0.00006     -0.00003 *
 *                                                          *
 ************************************************************

 ******************************** Constrained Forces ********************************
 *                                                                                  *
 *                           Cartesian components (eV/A)                            *
 * -------------------------------------------------------------------------------- *
 *                         x                    y                    z              *
 *                                                                                  *
 * P               1      0.00000(cons'd)      0.00000(cons'd)     -0.00005         *
 * P               2      0.00000(cons'd)      0.00000(cons'd)      0.00001         *
 * P               3      0.00000(cons'd)      0.00000(cons'd)      0.00001         *
 * P               4      0.00000(cons'd)      0.00000(cons'd)     -0.00005         *
 * P               5      0.00000(cons'd)      0.00000(cons'd)      0.00003         *
 * P               6      0.00000(cons'd)      0.00000(cons'd)      0.00013         *
 * P               7      0.00000(cons'd)      0.00000(cons'd)      0.00013         *
 * P               8      0.00000(cons'd)      0.00000(cons'd)      0.00003         *
 * P               9      0.00000(cons'd)      0.00000(cons'd)     -0.00007         *
 * P              10      0.00000(cons'd)      0.00000(cons'd)     -0.00007         *
 * P              11      0.00000(cons'd)      0.00000(cons'd)      0.00013         *
 * P              12      0.00000(cons'd)      0.00000(cons'd)      0.00013         *
 * In              1      0.00000(cons'd)      0.00000(cons'd)     -0.00007         *
 * In              2      0.00000(cons'd)      0.00000(cons'd)     -0.00006         *
 * In              3      0.00000(cons'd)      0.00000(cons'd)     -0.00007         *
 * In              4      0.00000(cons'd)      0.00000(cons'd)     -0.00002         *
 * In              5      0.00000(cons'd)      0.00000(cons'd)      0.00002         *
 * In              6      0.00000(cons'd)      0.00000(cons'd)      0.00001         *
 * In              7      0.00000(cons'd)      0.00000(cons'd)     -0.00002         *
 * In              8      0.00000(cons'd)      0.00000(cons'd)     -0.00007         *
 * In              9      0.00000(cons'd)      0.00000(cons'd)     -0.00003         *
 * In             10      0.00000(cons'd)      0.00000(cons'd)     -0.00001         *
 * In             11      0.00000(cons'd)      0.00000(cons'd)     -0.00002         *
 * In             12      0.00000(cons'd)      0.00000(cons'd)     -0.00003         *
 *                                                                                  *
 ************************************************************************************

 Pseudo atomic calculation performed for P 3s2 3p3

 Converged in 23 iterations to a total energy of -208.0292 eV

 Pseudo atomic calculation performed for In 4d10 5s2 5p1

 Converged in 42 iterations to a total energy of -1747.4500 eV
Charge spilling parameter for spin component 1 = 0.15%

            Orbital Populations       
     Ion    Atom   Orbital             Charge
  -------------------------------------------
      P     1      S                    1.735
      P     1      Px                   1.314
      P     1      Py                   1.314
      P     1      Pz                   1.314
      P     2      S                    1.735
      P     2      Px                   1.314
      P     2      Py                   1.314
      P     2      Pz                   1.314
      P     3      S                    1.735
      P     3      Px                   1.314
      P     3      Py                   1.314
      P     3      Pz                   1.314
      P     4      S                    1.735
      P     4      Px                   1.314
      P     4      Py                   1.314
      P     4      Pz                   1.314
      P     5      S                    1.735
      P     5      Px                   1.314
      P     5      Py                   1.314
      P     5      Pz                   1.314
      P     6      S                    1.735
      P     6      Px                   1.314
      P     6      Py                   1.314
      P     6      Pz                   1.314
      P     7      S                    1.735
      P     7      Px                   1.314
      P     7      Py                   1.314
      P     7      Pz                   1.314
      P     8      S                    1.735
      P     8      Px                   1.314
      P     8      Py                   1.314
      P     8      Pz                   1.314
      P     9      S                    1.735
      P     9      Px                   1.314
      P     9      Py                   1.314
      P     9      Pz                   1.314
      P    10      S                    1.735
      P    10      Px                   1.314
      P    10      Py                   1.314
      P    10      Pz                   1.314
      P    11      S                    1.735
      P    11      Px                   1.314
      P    11      Py                   1.314
      P    11      Pz                   1.314
      P    12      S                    1.735
      P    12      Px                   1.314
      P    12      Py                   1.314
      P    12      Pz                   1.314
     In     1      Dzz                  1.999
     In     1      Dzy                  1.997
     In     1      Dzx                  1.997
     In     1      Dxx-yy               1.999
     In     1      Dxy                  1.997
     In     1      S                    1.435
     In     1      Px                   0.482
     In     1      Py                   0.482
     In     1      Pz                   0.482
     In     1      S                   -0.546
     In     2      Dzz                  1.999
     In     2      Dzy                  1.997
     In     2      Dzx                  1.997
     In     2      Dxx-yy               1.999
     In     2      Dxy                  1.997
     In     2      S                    1.435
     In     2      Px                   0.482
     In     2      Py                   0.482
     In     2      Pz                   0.482
     In     2      S                   -0.546
     In     3      Dzz                  1.999
     In     3      Dzy                  1.997
     In     3      Dzx                  1.997
     In     3      Dxx-yy               1.999
     In     3      Dxy                  1.997
     In     3      S                    1.435
     In     3      Px                   0.482
     In     3      Py                   0.482
     In     3      Pz                   0.482
     In     3      S                   -0.546
     In     4      Dzz                  1.999
     In     4      Dzy                  1.997
     In     4      Dzx                  1.997
     In     4      Dxx-yy               1.999
     In     4      Dxy                  1.997
     In     4      S                    1.435
     In     4      Px                   0.482
     In     4      Py                   0.482
     In     4      Pz                   0.482
     In     4      S                   -0.546
     In     5      Dzz                  1.999
     In     5      Dzy                  1.997
     In     5      Dzx                  1.997
     In     5      Dxx-yy               1.999
     In     5      Dxy                  1.997
     In     5      S                    1.435
     In     5      Px                   0.482
     In     5      Py                   0.482
     In     5      Pz                   0.482
     In     5      S                   -0.546
     In     6      Dzz                  1.999
     In     6      Dzy                  1.997
     In     6      Dzx                  1.997
     In     6      Dxx-yy               1.999
     In     6      Dxy                  1.997
     In     6      S                    1.435
     In     6      Px                   0.482
     In     6      Py                   0.482
     In     6      Pz                   0.482
     In     6      S                   -0.546
     In     7      Dzz                  1.999
     In     7      Dzy                  1.997
     In     7      Dzx                  1.997
     In     7      Dxx-yy               1.999
     In     7      Dxy                  1.997
     In     7      S                    1.435
     In     7      Px                   0.482
     In     7      Py                   0.482
     In     7      Pz                   0.482
     In     7      S                   -0.546
     In     8      Dzz                  1.999
     In     8      Dzy                  1.997
     In     8      Dzx                  1.997
     In     8      Dxx-yy               1.999
     In     8      Dxy                  1.997
     In     8      S                    1.435
     In     8      Px                   0.482
     In     8      Py                   0.482
     In     8      Pz                   0.482
     In     8      S                   -0.546
     In     9      Dzz                  1.999
     In     9      Dzy                  1.997
     In     9      Dzx                  1.997
     In     9      Dxx-yy               1.999
     In     9      Dxy                  1.997
     In     9      S                    1.435
     In     9      Px                   0.482
     In     9      Py                   0.482
     In     9      Pz                   0.482
     In     9      S                   -0.546
     In    10      Dzz                  1.999
     In    10      Dzy                  1.997
     In    10      Dzx                  1.997
     In    10      Dxx-yy               1.999
     In    10      Dxy                  1.997
     In    10      S                    1.435
     In    10      Px                   0.482
     In    10      Py                   0.482
     In    10      Pz                   0.482
     In    10      S                   -0.546
     In    11      Dzz                  1.999
     In    11      Dzy                  1.997
     In    11      Dzx                  1.997
     In    11      Dxx-yy               1.999
     In    11      Dxy                  1.997
     In    11      S                    1.435
     In    11      Px                   0.482
     In    11      Py                   0.482
     In    11      Pz                   0.482
     In    11      S                   -0.546
     In    12      Dzz                  1.999
     In    12      Dzy                  1.997
     In    12      Dzx                  1.997
     In    12      Dxx-yy               1.999
     In    12      Dxy                  1.997
     In    12      S                    1.435
     In    12      Px                   0.482
     In    12      Py                   0.482
     In    12      Pz                   0.482
     In    12      S                   -0.546
  -------------------------------------------
                           Total:     216.000
  -------------------------------------------

     Atomic Populations (Mulliken)
     -----------------------------
Species          Ion     s       p       d       f      Total   Charge (e)
==========================================================================
  P               1     1.735   3.941   0.000   0.000   5.676    -0.676
  P               2     1.735   3.941   0.000   0.000   5.676    -0.676
  P               3     1.735   3.941   0.000   0.000   5.676    -0.676
  P               4     1.735   3.941   0.000   0.000   5.676    -0.676
  P               5     1.735   3.941   0.000   0.000   5.676    -0.676
  P               6     1.735   3.941   0.000   0.000   5.676    -0.676
  P               7     1.735   3.941   0.000   0.000   5.676    -0.676
  P               8     1.735   3.941   0.000   0.000   5.676    -0.676
  P               9     1.735   3.941   0.000   0.000   5.676    -0.676
  P              10     1.735   3.941   0.000   0.000   5.676    -0.676
  P              11     1.735   3.941   0.000   0.000   5.676    -0.676
  P              12     1.735   3.941   0.000   0.000   5.676    -0.676
  In              1     0.888   1.446   9.989   0.000  12.324     0.676
  In              2     0.888   1.446   9.989   0.000  12.324     0.676
  In              3     0.888   1.446   9.989   0.000  12.324     0.676
  In              4     0.888   1.446   9.989   0.000  12.324     0.676
  In              5     0.888   1.446   9.989   0.000  12.324     0.676
  In              6     0.888   1.446   9.989   0.000  12.324     0.676
  In              7     0.888   1.446   9.989   0.000  12.324     0.676
  In              8     0.888   1.446   9.989   0.000  12.324     0.676
  In              9     0.888   1.446   9.989   0.000  12.324     0.676
  In             10     0.888   1.446   9.989   0.000  12.324     0.676
  In             11     0.888   1.446   9.989   0.000  12.324     0.676
  In             12     0.888   1.446   9.989   0.000  12.324     0.676
==========================================================================

                 Bond                   Population      Length (A)
======================================================================
              P 12 -- In 12                  0.58        2.55533
              P 3  -- In 2                   0.58        2.55533
              P 2  -- In 8                   0.58        2.55533
              P 7  -- In 9                   0.58        2.55533
              P 4  -- In 3                   0.58        2.55533
              P 1  -- In 1                   0.58        2.55533
              P 6  -- In 10                  0.58        2.55533
              P 11 -- In 11                  0.58        2.55533
              P 10 -- In 5                   0.58        2.55533
              P 9  -- In 6                   0.58        2.55533
              P 8  -- In 7                   0.58        2.55533
              P 5  -- In 4                   0.58        2.55533
              P 8  -- In 11                  0.58        2.55533
              P 8  -- In 10                  0.58        2.55533
              P 5  -- In 11                  0.58        2.55533
              P 5  -- In 10                  0.58        2.55533
              P 1  -- In 6                   0.58        2.55533
              P 1  -- In 5                   0.58        2.55533
              P 4  -- In 6                   0.58        2.55533
              P 4  -- In 5                   0.58        2.55533
              P 10 -- In 4                   0.58        2.55533
              P 9  -- In 4                   0.58        2.55533
              P 2  -- In 3                   0.58        2.55533
              P 3  -- In 3                   0.58        2.55533
              P 2  -- In 1                   0.58        2.55533
              P 3  -- In 1                   0.58        2.55533
              P 10 -- In 7                   0.58        2.55533
              P 9  -- In 7                   0.58        2.55533
              P 11 -- In 9                   0.58        2.55533
              P 6  -- In 9                   0.58        2.55533
              P 11 -- In 12                  0.58        2.55533
              P 6  -- In 12                  0.58        2.55533
              P 12 -- In 8                   0.58        2.55533
              P 12 -- In 2                   0.58        2.55533
              P 7  -- In 8                   0.58        2.55533
              P 7  -- In 2                   0.58        2.55533
              P 7  -- In 12                  0.58        2.55533
              P 3  -- In 8                   0.58        2.55533
              P 2  -- In 2                   0.58        2.55533
              P 12 -- In 9                   0.58        2.55533
              P 4  -- In 1                   0.58        2.55533
              P 1  -- In 3                   0.58        2.55533
              P 11 -- In 10                  0.58        2.55533
              P 6  -- In 11                  0.58        2.55533
              P 9  -- In 5                   0.58        2.55533
              P 10 -- In 6                   0.58        2.55533
              P 5  -- In 7                   0.58        2.55533
              P 8  -- In 4                   0.58        2.55533
======================================================================


     Hirshfeld Analysis
     ------------------
Species   Ion     Hirshfeld Charge (e)
======================================
  P        1                -0.24
  P        2                -0.24
  P        3                -0.24
  P        4                -0.24
  P        5                -0.24
  P        6                -0.24
  P        7                -0.24
  P        8                -0.24
  P        9                -0.24
  P       10                -0.24
  P       11                -0.24
  P       12                -0.24
  In       1                 0.24
  In       2                 0.24
  In       3                 0.24
  In       4                 0.24
  In       5                 0.24
  In       6                 0.24
  In       7                 0.24
  In       8                 0.24
  In       9                 0.24
  In      10                 0.24
  In      11                 0.24
  In      12                 0.24
======================================

 
 A BibTeX formatted list of references used in this run has been written to 
 StackingFaultStructs_(0_0_1)_(1_0_0)_0.bib
 
Initialisation time =     19.92 s
Calculation time    =    436.90 s
Finalisation time   =      0.93 s
Total time          =    457.75 s
Peak Memory Use     = 2182560 kB
 
Overall parallel efficiency rating: Mediocre (55%)
 
Data was distributed by:-
G-vector (6-way); efficiency rating: Mediocre (59%)
k-point (40-way); efficiency rating: Very good (85%)
 
Parallel notes:
1) Calculation only took 456.8 s, so efficiency estimates may be inaccurate.
