 +-------------------------------------------------+
 |                                                 |
 |      CCC   AA    SSS  TTTTT  EEEEE  PPPP        |
 |     C     A  A  S       T    E      P   P       |
 |     C     AAAA   SS     T    EEE    PPPP        |
 |     C     A  A     S    T    E      P           |
 |      CCC  A  A  SSS     T    EEEEE  P           |
 |                                                 |
 +-------------------------------------------------+
 |                                                 |
 | Welcome to Academic Release CASTEP version 24.1 |
 | Ab Initio Total Energy Program                  |
 |                                                 |
 | Authors:                                        |
 | M. Segall, M. Probert, C. Pickard, P. Hasnip,   |
 | S. Clark, K. Refson, J. R. Yates,               |
 | A. Bartok-Partay, M. Payne                      |
 |                                                 |
 | Contributors:                                   |
 | P. Lindan, P. Haynes, J. White, V. Milman,      |
 | N. Govind, M. Gibson, P. Tulip, V. Cocula,      |
 | B. Montanari, D. Quigley, M. Glover,            |
 | L. Bernasconi, A. Perlov, M. Plummer,           |
 | E. McNellis, J. Meyer, J. Gale, D. Jochym       |
 | J. Aarons, B. Walker, R. Gillen, D. Jones       |
 | T. Green, I. J. Bush, C. J. Armstrong,          |
 | E. J. Higgins, E. L. Brown, M. S. McFly,        |
 | J. Wilkins, B-C. Shih, P. J. P. Byrne,          |
 | R. J. Maurer, J. C. Womack, J. Dziedzic,        |
 | L. LeBlanc, T. K. Stenczel, J. Kermode,         |
 | S. Sturniolo, B. Shi, B. Durham, M. Evans,      |
 | M. J. Smith, A. Tamerus, Z. Hawkhead,           |
 | V. Ravindran, T. Hollins, S. A. Joyce,          |
 | R. T. Strong, A. M. Reilly, S. J. Donaldson     |
 |                                                 |
 | Copyright (c) 2000 - 2023                       |
 |                                                 |
 |     Distributed under license from Cambridge    |
 |     Enterprise for academic use only.           |
 |                                                 |
 | Please cite                                     |
 |                                                 |
 |     "First principles methods using CASTEP"     |
 |                                                 |
 |         Zeitschrift fuer Kristallographie       |
 |           220(5-6) pp. 567-570 (2005)           |
 |                                                 |
 | S. J. Clark, M. D. Segall, C. J. Pickard,       |
 | P. J. Hasnip, M. J. Probert, K. Refson,         |
 | M. C. Payne                                     |
 |                                                 |
 |       in all publications arising from          |
 |              your use of CASTEP                 |
 |                                                 |
 +-------------------------------------------------+
 |                                                 |
 |              http://www.castep.org              |
 |                                                 |
 +-------------------------------------------------+



 Compiled for  GNU 11.2.0 on 04-04-2024 18:39:17
 from code version 6355fd106 Castep241_branch Thu Mar 7 17:56:19 2024 +0000
 Compiler: GNU Fortran 11.2.0; Optimisation: FAST
 Comms   : MPI VERSION : CRAY MPICH version 8.1.23.14 (ANL base 3.4a2)
 MATHLIBS: default (LAPACK version 3.10.1)
 FFT Lib : fftw3 version commercial-fftw-3.3.10-sse2-avx-avx2-avx2_128
 Fundamental constants values: CODATA 2018

 Run started: Wed, 30 Jul 2025 13:46:58 +0100

 Atomic calculation performed for P: 1s2 2s2 2p6 3s2 3p3

 Converged in 47 iterations to an ae energy of -9309.074 eV

   ============================================================                
   | Pseudopotential Report - Date of generation 30-07-2025   |                
   ------------------------------------------------------------                
   | Element: P Ionic charge:  5.00 Level of theory: RSCAN    |                
   | Atomic Solver: Koelling-Harmon                           |                
   |                                                          |                
   |               Reference Electronic Structure             |                
   |         Orbital         Occupation         Energy        |                
   |            3s              2.000           -0.535        |                
   |            3p              3.000           -0.209        |                
   |                                                          |                
   |                 Pseudopotential Definition               |                
   |        Beta     l      e      Rc     scheme   norm       |                
   |          1      0   -0.535   1.807     qc      0         |                
   |          2      0    0.250   1.807     qc      0         |                
   |          3      1   -0.209   1.807     qc      0         |                
   |          4      1    0.250   1.807     qc      0         |                
   |          5      2    0.000   1.807     qc      0         |                
   |          6      2    0.250   1.807     qc      0         |                
   |         loc     3    0.000   1.807     pn      0         |                
   |                                                          |                
   | Augmentation charge Rinner = 1.263                       |                
   | Partial core correction Rc = 1.263                       |                
   ------------------------------------------------------------                
   | "3|1.8|4|4|5|30:31:32"                                   |                
   ------------------------------------------------------------                
   |      Author: Chris J. Pickard, Cambridge University      |                
   ============================================================                
 Warning: otfg_output_psp cannot write out meta-GGA pseudopotentials presently.

 Atomic calculation performed for In:
 1s2 2s2 2p6 3s2 3p6 3d10 4s2 4p6 4d10 5s2 5p1

 Converged in 84 iterations to an ae energy of -160093.328 eV

   ============================================================                
   | Pseudopotential Report - Date of generation 30-07-2025   |                
   ------------------------------------------------------------                
   | Element: In Ionic charge: 13.00 Level of theory: RSCAN   |                
   | Atomic Solver: Koelling-Harmon                           |                
   |                                                          |                
   |               Reference Electronic Structure             |                
   |         Orbital         Occupation         Energy        |                
   |            4d             10.000           -0.711        |                
   |            5s              2.000           -0.313        |                
   |            5p              1.000           -0.095        |                
   |                                                          |                
   |                 Pseudopotential Definition               |                
   |        Beta     l      e      Rc     scheme   norm       |                
   |          1      0   -0.313   2.501     qc      0         |                
   |          2      0    0.250   2.501     qc      0         |                
   |          3      1   -0.095   2.501     qc      0         |                
   |          4      1    0.250   2.501     qc      0         |                
   |          5      2   -0.711   2.207     qc      0         |                
   |          6      2    0.250   2.207     qc      0         |                
   |         loc     3    0.000   2.501     pn      0         |                
   |                                                          |                
   | Augmentation charge Rinner = 1.504                       |                
   | Partial core correction Rc = 1.504                       |                
   ------------------------------------------------------------                
   | "3|2.5|2.5|1.5|7|8|9|50:51:42U2.2U2.2"                   |                
   ------------------------------------------------------------                
   |      Author: Chris J. Pickard, Cambridge University      |                
   ============================================================                
 Warning: otfg_output_psp cannot write out meta-GGA pseudopotentials presently.

 Pseudo atomic calculation performed for P 3s2 3p3

 Converged in 23 iterations to a total energy of -208.0292 eV

 Pseudo atomic calculation performed for In 4d10 5s2 5p1

 Converged in 42 iterations to a total energy of -1747.4501 eV
 Calculation parallelised over 108 processes.
 Data is distributed by G-vector(3-way) and k-point(36-way)
 Each process may use up to 16 threads.

 ************************************ Title ************************************
 

 ***************************** General Parameters ******************************
  
 output verbosity                               : normal  (1)
 write checkpoint data to                       : In_Vacancy_Migration_3->60_Singlepoints_4.check
 type of calculation                            : single point energy
 stress calculation                             : off
 density difference calculation                 : off
 electron localisation func (ELF) calculation   : off
 Hirshfeld analysis                             : on
 polarisation (Berry phase) analysis            : off
 molecular orbital projected DOS                : off
 deltaSCF calculation                           : off
 unlimited duration calculation
 timing information                             : on
 memory usage estimate                          : on
 write extra output files                       : on
 write final potential to formatted file        : off
 write final density to formatted file          : off
 write BibTeX reference list                    : on
 write OTFG pseudopotential files               : on
 write electrostatic potential file             : on
 write bands file                               : on
 checkpoint writing                             : off
  
 output         length unit                     : A
 output           mass unit                     : amu
 output           time unit                     : ps
 output         charge unit                     : e
 output           spin unit                     : hbar/2
 output         energy unit                     : eV
 output          force unit                     : eV/A
 output       velocity unit                     : A/ps
 output       pressure unit                     : GPa
 output     inv_length unit                     : 1/A
 output      frequency unit                     : cm-1
 output force constant unit                     : eV/A**2
 output         volume unit                     : A**3
 output   IR intensity unit                     : (D/A)**2/amu
 output         dipole unit                     : D
 output         efield unit                     : eV/A/e
 output        entropy unit                     : J/mol/K
 output    efield chi2 unit                     : pm/V
  
 wavefunctions paging                           : none
 random number generator seed                   :  134659090
 data distribution                              : optimal for this architecture
 optimization strategy                          : balance speed and memory

 *********************** Exchange-Correlation Parameters ***********************
  
 using functional                               : RSCAN
 relativistic treatment                         : Koelling-Harmon
 DFT+D: Semi-empirical dispersion correction    : off

 ************************* Pseudopotential Parameters **************************
  
 pseudopotential representation                 : reciprocal space
 <beta|phi> representation                      : reciprocal space
 spin-orbit coupling                            : off

 **************************** Basis Set Parameters *****************************
  
 plane wave basis set cut-off                   :   900.0000   eV
 size of standard grid                          :     2.0000
 size of   fine   gmax                          :    30.7390   1/A
 finite basis set correction                    : none

 **************************** Electronic Parameters ****************************
  
 number of  electrons                           :  563.0    
 net charge of system                           :  0.000    
 net spin   of system                           :  1.000    
 number of  up  spins                           :  282.0    
 number of down spins                           :  281.0    
 treating system as spin-polarized
 number of bands                                :        338

 ********************* Electronic Minimization Parameters **********************
  
 Method: Treating system as metallic with density mixing treatment of electrons,
         and number of  SD  steps               :          1
         and number of  CG  steps               :          4
  
 total energy / atom convergence tol.           : 0.1000E-07   eV
 eigen-energy convergence tolerance             : 0.2234E-08   eV
 max force / atom convergence tol.              : ignored
 convergence tolerance window                   :          3   cycles
 max. number of SCF cycles                      :        100
 number of fixed-spin iterations                :         10
 smearing scheme                                : Gaussian
 smearing width                                 : 0.2000       eV
 Fermi energy convergence tolerance             : 0.2721E-13   eV
 periodic dipole correction                     : NONE

 ************************** Density Mixing Parameters **************************
  
 density-mixing scheme                          : Pulay
 max. length of mixing history                  :         20
 charge density mixing amplitude                : 0.5000    
   spin density mixing amplitude                :  2.000    
 cut-off energy for mixing                      :  900.0       eV

 *********************** Population Analysis Parameters ************************
  
 Population analysis with cutoff                :  3.000       A
 Population analysis output                     : summary and pdos components

 *******************************************************************************
  

                           -------------------------------
                                      Unit Cell
                           -------------------------------
        Real Lattice(A)                      Reciprocal Lattice(1/A)
    11.8016820    -0.0000080    -0.0000080        0.532397442   0.000000361   0.000000361
    -0.0000080    11.8016820    -0.0000080        0.000000361   0.532397442   0.000000361
    -0.0000080    -0.0000080    11.8016820        0.000000361   0.000000361   0.532397442

                       Lattice parameters(A)       Cell Angles
                    a =     11.801682          alpha =   90.000078
                    b =     11.801682          beta  =   90.000078
                    c =     11.801682          gamma =   90.000078

                       Current cell volume =          1643.734705       A**3
                                   density =             2.768402   AMU/A**3
                                           =             4.597040     g/cm^3

                           -------------------------------
                                     Cell Contents
                           -------------------------------
                         Total number of ions in cell =   63
                      Total number of species in cell =    2
                        Max number of any one species =   32

            xxxxxxxxxxxxxxxxxxxxxxxxxxxxxxxxxxxxxxxxxxxxxxxxxxxxxxxxxxxx
            x  Element    Atom        Fractional coordinates of atoms  x
            x            Number           u          v          w      x
            x----------------------------------------------------------x
            x  P            1         0.133201   0.133200   0.379469   x 
            x  P            2         0.379466   0.133195   0.133195   x 
            x  P            3         0.133201   0.379469   0.133200   x 
            x  P            4         0.447501   0.447536   0.447536   x 
            x  P            5         0.125964   0.125965   0.876520   x 
            x  P            6         0.376368   0.124918   0.623164   x 
            x  P            7         0.124915   0.376367   0.623164   x 
            x  P            8         0.373395   0.373395   0.872398   x 
            x  P            9         0.124915   0.623164   0.376367   x 
            x  P           10         0.376368   0.623164   0.124918   x 
            x  P           11         0.125964   0.876520   0.125965   x 
            x  P           12         0.373395   0.872398   0.373395   x 
            x  P           13         0.126367   0.624619   0.874161   x 
            x  P           14         0.384343   0.604603   0.604603   x 
            x  P           15         0.126367   0.874161   0.624619   x 
            x  P           16         0.376605   0.873156   0.873156   x 
            x  P           17         0.623164   0.124917   0.376369   x 
            x  P           18         0.876520   0.125965   0.125965   x 
            x  P           19         0.623164   0.376369   0.124917   x 
            x  P           20         0.872397   0.373395   0.373395   x 
            x  P           21         0.624620   0.126365   0.874163   x 
            x  P           22         0.874162   0.126365   0.624619   x 
            x  P           23         0.604615   0.384343   0.604617   x 
            x  P           24         0.873159   0.376606   0.873159   x 
            x  P           25         0.604615   0.604617   0.384343   x 
            x  P           26         0.874162   0.624619   0.126365   x 
            x  P           27         0.624620   0.874163   0.126366   x 
            x  P           28         0.873159   0.873159   0.376606   x 
            x  P           29         0.624206   0.624206   0.872156   x 
            x  P           30         0.872156   0.624207   0.624207   x 
            x  P           31         0.624206   0.872156   0.624206   x 
            x  P           32         0.874633   0.874633   0.874633   x 
            x  In           1        -0.000297  -0.000297  -0.000297   x 
            x  In           2         0.250955   0.003975   0.250957   x 
            x  In           3         0.003976   0.250957   0.250957   x 
            x  In           4         0.250955   0.250957   0.003975   x 
            x  In           5         0.002562   0.002561   0.498456   x 
            x  In           6         0.250463   0.000916   0.749975   x 
            x  In           7         0.000916   0.250463   0.749975   x 
            x  In           8         0.268322   0.268324   0.500018   x 
            x  In           9         0.002562   0.498456   0.002561   x 
            x  In          10         0.268322   0.500018   0.268324   x 
            x  In          11         0.000916   0.749975   0.250463   x 
            x  In          12         0.250463   0.749975   0.000916   x 
            x  In          13        -0.004385   0.498904   0.498904   x 
            x  In          14         0.252890   0.501555   0.744591   x 
            x  In          15        -0.000578   0.748979   0.748979   x 
            x  In          16         0.252890   0.744591   0.501555   x 
            x  In          17         0.498456   0.002559   0.002559   x 
            x  In          18         0.749976   0.000916   0.250463   x 
            x  In          19         0.500018   0.268307   0.268307   x 
            x  In          20         0.749976   0.250463   0.000916   x 
            x  In          21         0.498903  -0.004383   0.498904   x 
            x  In          22         0.748979  -0.000578   0.748979   x 
            x  In          23         0.501559   0.252890   0.744593   x 
            x  In          24         0.744593   0.252891   0.501559   x 
            x  In          25         0.498903   0.498904  -0.004383   x 
            x  In          26         0.744593   0.501559   0.252891   x 
            x  In          27         0.501559   0.744593   0.252890   x 
            x  In          28         0.748979   0.748979  -0.000578   x 
            x  In          29         0.741320   0.496498   0.741320   x 
            x  In          30         0.496501   0.741317   0.741317   x 
            x  In          31         0.741320   0.741320   0.496498   x 
            xxxxxxxxxxxxxxxxxxxxxxxxxxxxxxxxxxxxxxxxxxxxxxxxxxxxxxxxxxxx


                         No user defined ionic velocities

                           -------------------------------
                                   Details of Species
                           -------------------------------

                               Mass of species in AMU
                                    P   30.9737600
                                    In  114.8180000

                          Electric Quadrupole Moment (Barn)
                                    P    1.0000000 No Isotope Defined
                                    In    0.7700000 Isotope115

                          Files used for pseudopotentials:
                                    P 3|1.8|4|4|5|30:31:32
                                    In 3|2.5|2.5|1.5|7|8|9|50:51:42U2.2U2.2

                           -------------------------------
                              k-Points For BZ Sampling
                           -------------------------------
                       MP grid size for SCF calculation is  4  4  4
                            with an offset of   0.125  0.125  0.125
                       Number of kpoints used =            36

                           -------------------------------
                               Symmetry and Constraints
                           -------------------------------

                      Maximum deviation from symmetry =  0.00000         ANG

                      Number of symmetry operations   =           1
                      Number of ionic constraints     =           3
                      Point group of crystal =     1: C1, 1, 1
                      Space group of crystal =   160: R3m, R 3 -2"

             Set iprint > 1 for details on symmetry rotations/translations

                         Centre of mass is constrained
             Set iprint > 1 for details of linear ionic constraints

                         Number of cell constraints= 0
                         Cell constraints are:  1 2 3 4 5 6

                         External pressure/stress (GPa)
                          0.00000   0.00000   0.00000
                                    0.00000   0.00000
                                              0.00000
 
+---------------- MEMORY AND SCRATCH DISK ESTIMATES PER PROCESS --------------+
|                                                     Memory          Disk    |
| Baseline code, static data and system overhead      368.0 MB         0.0 MB |
| BLAS internal memory storage                          0.0 MB         0.0 MB |
| Model and support data                             4296.9 MB         0.0 MB |
| Electronic energy minimisation requirements        1299.4 MB         0.0 MB |
| Force calculation requirements                      127.4 MB         0.0 MB |
|                                               ----------------------------- |
| Approx. total storage required per process         5964.3 MB         0.0 MB |
|                                                                             |
| Requirements will fluctuate during execution and may exceed these estimates |
+-----------------------------------------------------------------------------+
Calculating approximate eigenstates for fixed initial Hamiltonian
Cut-off for approx. calculation is   89.988 eV
Improving approx. states at cut-off of  450.000 eV
Resetting cut-off to  900.000 eV
Calculating total energy with cut-off of  900.000 eV.
------------------------------------------------------------------------ <-- SCF
SCF loop      Energy           Fermi           Energy gain       Timer   <-- SCF
                               energy          per atom          (sec)   <-- SCF
------------------------------------------------------------------------ <-- SCF
Initial  -6.12918809E+004  0.00000000E+000                       429.06  <-- SCF
      1  -6.10532601E+004  2.52216678E+000  -3.78763155E+000     865.83  <-- SCF
      2  -6.10536415E+004  2.52155790E+000   6.05422791E-003    1162.04  <-- SCF
      3  -6.11174716E+004  2.59826707E+000   1.01317692E+000    1501.62  <-- SCF
      4  -6.11290369E+004  2.64841877E+000   1.83576350E-001    1986.46  <-- SCF
      5  -6.11350617E+004  2.75220331E+000   9.56308585E-002    2319.47  <-- SCF
      6  -6.11234074E+004  2.89078093E+000  -1.84988459E-001    2657.58  <-- SCF
      7  -6.11220264E+004  2.93502883E+000  -2.19206786E-002    3001.11  <-- SCF
      8  -6.11223052E+004  2.96095296E+000   4.42498524E-003    3356.82  <-- SCF
      9  -6.11230005E+004  2.97604919E+000   1.10360231E-002    3699.65  <-- SCF
     10  -6.11233026E+004  2.96380865E+000   4.79575231E-003    4047.12  <-- SCF
     11  -6.11233279E+004  2.96056490E+000   4.01821857E-004    4395.32  <-- SCF
     12  -6.11233366E+004  2.95785424E+000   1.38501224E-004    4743.83  <-- SCF
     13  -6.11233386E+004  2.95674275E+000   3.06786005E-005    5118.66  <-- SCF
     14  -6.11233388E+004  2.95621514E+000   3.73548060E-006    5472.83  <-- SCF
     15  -6.11233389E+004  2.95605256E+000   9.71004705E-007    5808.61  <-- SCF
     16  -6.11233389E+004  2.95584486E+000   3.07384434E-007    6115.31  <-- SCF
     17  -6.11233389E+004  2.95576522E+000   6.69051216E-008    6393.46  <-- SCF
     18  -6.11233389E+004  2.95571996E+000   5.60061080E-008    6652.15  <-- SCF
     19  -6.11233389E+004  2.95569491E+000   3.69066617E-008    6911.25  <-- SCF
     20  -6.11233389E+004  2.95563124E+000   6.93289142E-008    7209.69  <-- SCF
     21  -6.11233389E+004  2.95556610E+000   3.62635906E-008    7485.95  <-- SCF
     22  -6.11233389E+004  2.95547386E+000   2.69488810E-008    7788.31  <-- SCF
     23  -6.11233389E+004  2.95543509E+000   5.05460929E-009    8041.03  <-- SCF
     24  -6.11233389E+004  2.95542168E+000   1.15061402E-009    8281.85  <-- SCF
------------------------------------------------------------------------ <-- SCF
 
Integrated Spin Density     =     1.02821     hbar/2
Integrated |Spin Density|   =     1.14111     hbar/2
 
Final energy, E             =  -61123.13137709     eV
Final free energy (E-TS)    =  -61123.33890022     eV
(energies not corrected for finite basis set)
 
NB est. 0K energy (E-0.5TS)      =  -61123.23513866     eV
 

 ************************** Forces **************************
 *                                                          *
 *               Cartesian components (eV/A)                *
 * -------------------------------------------------------- *
 *                         x            y            z      *
 *                                                          *
 * P               1      0.01446      0.01449     -0.00568 *
 * P               2     -0.00580      0.01438      0.01438 *
 * P               3      0.01447     -0.00568      0.01449 *
 * P               4      0.22614      0.22742      0.22741 *
 * P               5      0.01450      0.01448      0.00547 *
 * P               6      0.05047      0.01032     -0.00362 *
 * P               7      0.01036      0.05052     -0.00372 *
 * P               8     -0.00227     -0.00232      0.01296 *
 * P               9      0.01036     -0.00371      0.05052 *
 * P              10      0.05048     -0.00362      0.01032 *
 * P              11      0.01450      0.00547      0.01448 *
 * P              12     -0.00227      0.01296     -0.00232 *
 * P              13      0.02216     -0.00734     -0.03481 *
 * P              14     -0.08621      0.10898      0.10897 *
 * P              15      0.02215     -0.03481     -0.00734 *
 * P              16      0.00058     -0.04290     -0.04289 *
 * P              17     -0.00379      0.01054      0.05062 *
 * P              18      0.00543      0.01455      0.01455 *
 * P              19     -0.00380      0.05062      0.01055 *
 * P              20      0.01302     -0.00234     -0.00235 *
 * P              21     -0.00740      0.02209     -0.03467 *
 * P              22     -0.03471      0.02205     -0.00737 *
 * P              23      0.10959     -0.08616      0.10958 *
 * P              24     -0.04272      0.00072     -0.04267 *
 * P              25      0.10958      0.10957     -0.08616 *
 * P              26     -0.03472     -0.00738      0.02204 *
 * P              27     -0.00740     -0.03467      0.02208 *
 * P              28     -0.04272     -0.04267      0.00072 *
 * P              29     -0.01980     -0.01980      0.00090 *
 * P              30      0.00089     -0.01974     -0.01974 *
 * P              31     -0.01980      0.00090     -0.01980 *
 * P              32     -0.01999     -0.02000     -0.02000 *
 * In              1      0.00734      0.00733      0.00733 *
 * In              2      0.04604     -0.00580      0.04616 *
 * In              3     -0.00576      0.04611      0.04610 *
 * In              4      0.04604      0.04616     -0.00579 *
 * In              5      0.00876      0.00877      0.06460 *
 * In              6     -0.08107     -0.02232      0.01420 *
 * In              7     -0.02240     -0.08118      0.01430 *
 * In              8     -0.16997     -0.17018     -0.15524 *
 * In              9      0.00875      0.06460      0.00878 *
 * In             10     -0.16997     -0.15524     -0.17017 *
 * In             11     -0.02239      0.01430     -0.08117 *
 * In             12     -0.08106      0.01420     -0.02233 *
 * In             13      0.09299     -0.02248     -0.02247 *
 * In             14     -0.00027      0.01411      0.01781 *
 * In             15     -0.01162      0.01278      0.01278 *
 * In             16     -0.00028      0.01781      0.01411 *
 * In             17      0.06489      0.00867      0.00868 *
 * In             18      0.01433     -0.02241     -0.08127 *
 * In             19     -0.15519     -0.17047     -0.17047 *
 * In             20      0.01433     -0.08128     -0.02241 *
 * In             21     -0.02260      0.09294     -0.02242 *
 * In             22      0.01280     -0.01162      0.01283 *
 * In             23      0.01426     -0.00017      0.01773 *
 * In             24      0.01769     -0.00005      0.01428 *
 * In             25     -0.02261     -0.02242      0.09293 *
 * In             26      0.01770      0.01427     -0.00005 *
 * In             27      0.01425      0.01773     -0.00017 *
 * In             28      0.01280      0.01283     -0.01162 *
 * In             29     -0.01656      0.04924     -0.01662 *
 * In             30      0.04959     -0.01655     -0.01655 *
 * In             31     -0.01655     -0.01661      0.04925 *
 *                                                          *
 ************************************************************

 Pseudo atomic calculation performed for P 3s2 3p3

 Converged in 23 iterations to a total energy of -208.0292 eV

 Pseudo atomic calculation performed for In 4d10 5s2 5p1

 Converged in 42 iterations to a total energy of -1747.4501 eV
Charge spilling parameter for spin component 1 = 0.17%
Charge spilling parameter for spin component 2 = 0.17%

                   Orbital Populations                  
  ---------------------------------------------------------------
     Ion    Atom   Orbital              Up        Down      Spin
  ---------------------------------------------------------------
      P     1      S                    0.877     0.877     0.000
      P     1      Px                   0.645     0.641     0.004
      P     1      Py                   0.645     0.641     0.004
      P     1      Pz                   0.658     0.658    -0.000
      P     2      S                    0.877     0.877     0.000
      P     2      Px                   0.658     0.658    -0.000
      P     2      Py                   0.645     0.641     0.004
      P     2      Pz                   0.645     0.641     0.004
      P     3      S                    0.877     0.877     0.000
      P     3      Px                   0.645     0.641     0.004
      P     3      Py                   0.658     0.658    -0.000
      P     3      Pz                   0.645     0.641     0.004
      P     4      S                    0.972     0.958     0.014
      P     4      Px                   0.567     0.515     0.052
      P     4      Py                   0.567     0.515     0.052
      P     4      Pz                   0.567     0.515     0.052
      P     5      S                    0.870     0.870     0.000
      P     5      Px                   0.655     0.655     0.001
      P     5      Py                   0.655     0.655     0.001
      P     5      Pz                   0.654     0.653     0.001
      P     6      S                    0.872     0.871     0.001
      P     6      Px                   0.667     0.665     0.002
      P     6      Py                   0.648     0.637     0.011
      P     6      Pz                   0.653     0.645     0.008
      P     7      S                    0.872     0.871     0.001
      P     7      Px                   0.648     0.637     0.011
      P     7      Py                   0.667     0.665     0.002
      P     7      Pz                   0.653     0.645     0.008
      P     8      S                    0.868     0.868    -0.000
      P     8      Px                   0.655     0.656    -0.000
      P     8      Py                   0.655     0.656    -0.000
      P     8      Pz                   0.655     0.656    -0.000
      P     9      S                    0.872     0.871     0.001
      P     9      Px                   0.648     0.637     0.011
      P     9      Py                   0.653     0.645     0.008
      P     9      Pz                   0.667     0.665     0.002
      P    10      S                    0.872     0.871     0.001
      P    10      Px                   0.667     0.665     0.002
      P    10      Py                   0.653     0.645     0.008
      P    10      Pz                   0.648     0.637     0.011
      P    11      S                    0.870     0.870     0.000
      P    11      Px                   0.655     0.655     0.001
      P    11      Py                   0.654     0.653     0.001
      P    11      Pz                   0.655     0.655     0.001
      P    12      S                    0.868     0.868    -0.000
      P    12      Px                   0.655     0.656    -0.000
      P    12      Py                   0.655     0.656    -0.000
      P    12      Pz                   0.655     0.656    -0.000
      P    13      S                    0.872     0.872     0.001
      P    13      Px                   0.653     0.651     0.003
      P    13      Py                   0.657     0.655     0.002
      P    13      Pz                   0.651     0.648     0.003
      P    14      S                    0.905     0.892     0.013
      P    14      Px                   0.657     0.635     0.022
      P    14      Py                   0.618     0.584     0.034
      P    14      Pz                   0.617     0.584     0.034
      P    15      S                    0.872     0.872     0.001
      P    15      Px                   0.653     0.651     0.003
      P    15      Py                   0.651     0.648     0.003
      P    15      Pz                   0.657     0.655     0.002
      P    16      S                    0.877     0.875     0.001
      P    16      Px                   0.665     0.661     0.003
      P    16      Py                   0.647     0.639     0.008
      P    16      Pz                   0.647     0.639     0.008
      P    17      S                    0.872     0.871     0.001
      P    17      Px                   0.653     0.645     0.008
      P    17      Py                   0.648     0.637     0.011
      P    17      Pz                   0.667     0.665     0.002
      P    18      S                    0.870     0.870     0.000
      P    18      Px                   0.654     0.653     0.001
      P    18      Py                   0.655     0.655     0.001
      P    18      Pz                   0.655     0.655     0.001
      P    19      S                    0.872     0.871     0.001
      P    19      Px                   0.653     0.645     0.008
      P    19      Py                   0.667     0.665     0.002
      P    19      Pz                   0.648     0.637     0.011
      P    20      S                    0.868     0.868    -0.000
      P    20      Px                   0.655     0.656    -0.000
      P    20      Py                   0.655     0.656    -0.000
      P    20      Pz                   0.655     0.656    -0.000
      P    21      S                    0.872     0.872     0.001
      P    21      Px                   0.657     0.655     0.002
      P    21      Py                   0.653     0.651     0.003
      P    21      Pz                   0.651     0.648     0.003
      P    22      S                    0.872     0.872     0.001
      P    22      Px                   0.651     0.648     0.003
      P    22      Py                   0.653     0.651     0.003
      P    22      Pz                   0.657     0.655     0.002
      P    23      S                    0.905     0.892     0.013
      P    23      Px                   0.618     0.583     0.034
      P    23      Py                   0.657     0.635     0.022
      P    23      Pz                   0.618     0.583     0.034
      P    24      S                    0.877     0.875     0.001
      P    24      Px                   0.647     0.639     0.008
      P    24      Py                   0.665     0.661     0.003
      P    24      Pz                   0.647     0.639     0.008
      P    25      S                    0.905     0.892     0.013
      P    25      Px                   0.618     0.583     0.034
      P    25      Py                   0.618     0.583     0.034
      P    25      Pz                   0.657     0.635     0.022
      P    26      S                    0.872     0.872     0.001
      P    26      Px                   0.651     0.648     0.003
      P    26      Py                   0.657     0.655     0.002
      P    26      Pz                   0.653     0.651     0.003
      P    27      S                    0.872     0.872     0.001
      P    27      Px                   0.657     0.655     0.002
      P    27      Py                   0.651     0.648     0.003
      P    27      Pz                   0.653     0.651     0.003
      P    28      S                    0.877     0.875     0.001
      P    28      Px                   0.647     0.639     0.008
      P    28      Py                   0.647     0.639     0.008
      P    28      Pz                   0.665     0.661     0.003
      P    29      S                    0.869     0.869    -0.000
      P    29      Px                   0.657     0.655     0.002
      P    29      Py                   0.657     0.656     0.002
      P    29      Pz                   0.653     0.653     0.001
      P    30      S                    0.869     0.869    -0.000
      P    30      Px                   0.653     0.653     0.001
      P    30      Py                   0.657     0.656     0.002
      P    30      Pz                   0.657     0.656     0.001
      P    31      S                    0.869     0.869    -0.000
      P    31      Px                   0.657     0.656     0.002
      P    31      Py                   0.653     0.653     0.001
      P    31      Pz                   0.657     0.656     0.001
      P    32      S                    0.869     0.869     0.000
      P    32      Px                   0.655     0.655     0.001
      P    32      Py                   0.655     0.655     0.001
      P    32      Pz                   0.655     0.655     0.001
     In     1      Dzz                  1.000     1.000     0.000
     In     1      Dzy                  0.998     0.998     0.000
     In     1      Dzx                  0.998     0.998     0.000
     In     1      Dxx-yy               1.000     1.000    -0.000
     In     1      Dxy                  0.998     0.998     0.000
     In     1      S                    0.705     0.704     0.001
     In     1      Px                   0.240     0.239     0.000
     In     1      Py                   0.240     0.239     0.000
     In     1      Pz                   0.240     0.239     0.000
     In     1      S                   -0.231    -0.235     0.004
     In     2      Dzz                  1.000     1.000     0.000
     In     2      Dzy                  0.998     0.998     0.000
     In     2      Dzx                  0.999     0.999     0.000
     In     2      Dxx-yy               1.000     1.000     0.000
     In     2      Dxy                  0.998     0.998     0.000
     In     2      S                    0.706     0.707    -0.000
     In     2      Px                   0.239     0.240    -0.001
     In     2      Py                   0.242     0.243    -0.000
     In     2      Pz                   0.239     0.240    -0.001
     In     2      S                   -0.255    -0.254    -0.000
     In     3      Dzz                  1.000     1.000     0.000
     In     3      Dzy                  0.999     0.999     0.000
     In     3      Dzx                  0.998     0.998     0.000
     In     3      Dxx-yy               1.000     1.000     0.000
     In     3      Dxy                  0.998     0.998     0.000
     In     3      S                    0.706     0.707    -0.000
     In     3      Px                   0.242     0.243    -0.000
     In     3      Py                   0.239     0.240    -0.001
     In     3      Pz                   0.239     0.240    -0.001
     In     3      S                   -0.255    -0.254    -0.000
     In     4      Dzz                  1.000     1.000     0.000
     In     4      Dzy                  0.998     0.998     0.000
     In     4      Dzx                  0.998     0.998     0.000
     In     4      Dxx-yy               1.000     1.000     0.000
     In     4      Dxy                  0.999     0.999     0.000
     In     4      S                    0.706     0.707    -0.000
     In     4      Px                   0.239     0.240    -0.001
     In     4      Py                   0.239     0.240    -0.001
     In     4      Pz                   0.242     0.243    -0.000
     In     4      S                   -0.255    -0.254    -0.000
     In     5      Dzz                  1.000     1.000     0.000
     In     5      Dzy                  0.999     0.999     0.000
     In     5      Dzx                  0.999     0.999     0.000
     In     5      Dxx-yy               1.000     1.000    -0.000
     In     5      Dxy                  0.999     0.999    -0.000
     In     5      S                    0.713     0.711     0.002
     In     5      Px                   0.239     0.238     0.001
     In     5      Py                   0.239     0.238     0.001
     In     5      Pz                   0.235     0.232     0.003
     In     5      S                   -0.238    -0.241     0.003
     In     6      Dzz                  1.000     1.000     0.000
     In     6      Dzy                  0.999     0.999     0.000
     In     6      Dzx                  0.998     0.998     0.000
     In     6      Dxx-yy               1.000     1.000     0.000
     In     6      Dxy                  0.998     0.998     0.000
     In     6      S                    0.710     0.709     0.001
     In     6      Px                   0.240     0.237     0.003
     In     6      Py                   0.240     0.239     0.000
     In     6      Pz                   0.240     0.239     0.000
     In     6      S                   -0.257    -0.257    -0.000
     In     7      Dzz                  1.000     1.000     0.000
     In     7      Dzy                  0.998     0.998     0.000
     In     7      Dzx                  0.999     0.999    -0.000
     In     7      Dxx-yy               1.000     1.000     0.000
     In     7      Dxy                  0.998     0.998     0.000
     In     7      S                    0.710     0.709     0.001
     In     7      Px                   0.240     0.239     0.000
     In     7      Py                   0.240     0.237     0.003
     In     7      Pz                   0.240     0.239     0.000
     In     7      S                   -0.257    -0.257    -0.000
     In     8      Dzz                  1.000     1.000    -0.000
     In     8      Dzy                  0.999     0.999    -0.000
     In     8      Dzx                  0.999     0.999    -0.000
     In     8      Dxx-yy               1.000     1.000    -0.000
     In     8      Dxy                  0.999     0.999     0.000
     In     8      S                    0.707     0.701     0.006
     In     8      Px                   0.249     0.227     0.022
     In     8      Py                   0.249     0.227     0.022
     In     8      Pz                   0.241     0.228     0.012
     In     8      S                   -0.205    -0.210     0.005
     In     9      Dzz                  1.000     1.000    -0.000
     In     9      Dzy                  0.999     0.999     0.000
     In     9      Dzx                  0.999     0.999    -0.000
     In     9      Dxx-yy               1.000     1.000    -0.000
     In     9      Dxy                  0.999     0.999     0.000
     In     9      S                    0.713     0.711     0.002
     In     9      Px                   0.239     0.238     0.001
     In     9      Py                   0.235     0.232     0.003
     In     9      Pz                   0.239     0.238     0.001
     In     9      S                   -0.238    -0.241     0.003
     In    10      Dzz                  1.000     1.000    -0.000
     In    10      Dzy                  0.999     0.999    -0.000
     In    10      Dzx                  0.999     0.999     0.000
     In    10      Dxx-yy               1.000     1.000    -0.000
     In    10      Dxy                  0.999     0.999    -0.000
     In    10      S                    0.707     0.701     0.006
     In    10      Px                   0.249     0.227     0.022
     In    10      Py                   0.241     0.228     0.012
     In    10      Pz                   0.249     0.227     0.022
     In    10      S                   -0.205    -0.210     0.005
     In    11      Dzz                  1.000     1.000     0.000
     In    11      Dzy                  0.998     0.998     0.000
     In    11      Dzx                  0.998     0.998     0.000
     In    11      Dxx-yy               1.000     1.000     0.000
     In    11      Dxy                  0.999     0.999     0.000
     In    11      S                    0.710     0.709     0.001
     In    11      Px                   0.240     0.239     0.000
     In    11      Py                   0.240     0.239     0.000
     In    11      Pz                   0.240     0.237     0.003
     In    11      S                   -0.257    -0.257    -0.000
     In    12      Dzz                  1.000     1.000     0.000
     In    12      Dzy                  0.999     0.999     0.000
     In    12      Dzx                  0.998     0.998     0.000
     In    12      Dxx-yy               1.000     1.000     0.000
     In    12      Dxy                  0.998     0.998     0.000
     In    12      S                    0.710     0.709     0.001
     In    12      Px                   0.240     0.237     0.003
     In    12      Py                   0.240     0.239     0.000
     In    12      Pz                   0.240     0.239     0.000
     In    12      S                   -0.257    -0.257    -0.000
     In    13      Dzz                  1.000     1.000     0.000
     In    13      Dzy                  0.998     0.998     0.000
     In    13      Dzx                  0.998     0.998     0.000
     In    13      Dxx-yy               1.000     1.000     0.000
     In    13      Dxy                  0.998     0.998     0.000
     In    13      S                    0.710     0.711    -0.001
     In    13      Px                   0.238     0.239    -0.001
     In    13      Py                   0.240     0.241    -0.001
     In    13      Pz                   0.240     0.241    -0.001
     In    13      S                   -0.262    -0.262    -0.000
     In    14      Dzz                  1.000     1.000     0.000
     In    14      Dzy                  0.999     0.999     0.000
     In    14      Dzx                  0.998     0.998     0.000
     In    14      Dxx-yy               1.000     1.000     0.000
     In    14      Dxy                  0.999     0.999     0.000
     In    14      S                    0.698     0.700    -0.002
     In    14      Px                   0.241     0.242    -0.002
     In    14      Py                   0.242     0.241     0.001
     In    14      Pz                   0.241     0.243    -0.001
     In    14      S                   -0.234    -0.234     0.000
     In    15      Dzz                  1.000     1.000    -0.000
     In    15      Dzy                  0.999     0.999     0.000
     In    15      Dzx                  0.999     0.999     0.000
     In    15      Dxx-yy               1.000     1.000    -0.000
     In    15      Dxy                  0.999     0.999     0.000
     In    15      S                    0.709     0.709    -0.000
     In    15      Px                   0.239     0.239    -0.000
     In    15      Py                   0.239     0.239    -0.000
     In    15      Pz                   0.239     0.239    -0.000
     In    15      S                   -0.254    -0.255     0.001
     In    16      Dzz                  1.000     1.000     0.000
     In    16      Dzy                  0.999     0.999     0.000
     In    16      Dzx                  0.999     0.999     0.000
     In    16      Dxx-yy               1.000     1.000     0.000
     In    16      Dxy                  0.998     0.998     0.000
     In    16      S                    0.698     0.700    -0.002
     In    16      Px                   0.241     0.242    -0.002
     In    16      Py                   0.241     0.243    -0.001
     In    16      Pz                   0.242     0.241     0.001
     In    16      S                   -0.234    -0.234     0.000
     In    17      Dzz                  1.000     1.000    -0.000
     In    17      Dzy                  0.999     0.999    -0.000
     In    17      Dzx                  0.999     0.999     0.000
     In    17      Dxx-yy               1.000     1.000     0.000
     In    17      Dxy                  0.999     0.999     0.000
     In    17      S                    0.713     0.711     0.002
     In    17      Px                   0.235     0.232     0.003
     In    17      Py                   0.239     0.238     0.001
     In    17      Pz                   0.239     0.238     0.001
     In    17      S                   -0.238    -0.241     0.003
     In    18      Dzz                  1.000     1.000     0.000
     In    18      Dzy                  0.998     0.998     0.000
     In    18      Dzx                  0.998     0.998     0.000
     In    18      Dxx-yy               1.000     1.000     0.000
     In    18      Dxy                  0.999     0.999     0.000
     In    18      S                    0.710     0.709     0.001
     In    18      Px                   0.240     0.239     0.000
     In    18      Py                   0.240     0.239     0.000
     In    18      Pz                   0.240     0.237     0.003
     In    18      S                   -0.257    -0.257    -0.000
     In    19      Dzz                  1.000     1.000    -0.000
     In    19      Dzy                  0.999     0.999     0.000
     In    19      Dzx                  0.999     0.999    -0.000
     In    19      Dxx-yy               1.000     1.000    -0.000
     In    19      Dxy                  0.999     0.999    -0.000
     In    19      S                    0.707     0.701     0.006
     In    19      Px                   0.241     0.228     0.012
     In    19      Py                   0.248     0.227     0.022
     In    19      Pz                   0.248     0.227     0.022
     In    19      S                   -0.205    -0.210     0.005
     In    20      Dzz                  1.000     1.000     0.000
     In    20      Dzy                  0.998     0.998     0.000
     In    20      Dzx                  0.999     0.999    -0.000
     In    20      Dxx-yy               1.000     1.000     0.000
     In    20      Dxy                  0.998     0.998     0.000
     In    20      S                    0.710     0.709     0.001
     In    20      Px                   0.240     0.239     0.000
     In    20      Py                   0.240     0.237     0.003
     In    20      Pz                   0.240     0.239     0.000
     In    20      S                   -0.257    -0.257    -0.000
     In    21      Dzz                  1.000     1.000     0.000
     In    21      Dzy                  0.998     0.998     0.000
     In    21      Dzx                  0.998     0.998     0.000
     In    21      Dxx-yy               1.000     1.000     0.000
     In    21      Dxy                  0.998     0.998     0.000
     In    21      S                    0.710     0.711    -0.000
     In    21      Px                   0.240     0.241    -0.001
     In    21      Py                   0.238     0.239    -0.001
     In    21      Pz                   0.240     0.241    -0.001
     In    21      S                   -0.262    -0.262    -0.000
     In    22      Dzz                  1.000     1.000    -0.000
     In    22      Dzy                  0.999     0.999     0.000
     In    22      Dzx                  0.999     0.999     0.000
     In    22      Dxx-yy               1.000     1.000    -0.000
     In    22      Dxy                  0.999     0.999     0.000
     In    22      S                    0.709     0.709    -0.000
     In    22      Px                   0.239     0.239    -0.000
     In    22      Py                   0.239     0.239    -0.000
     In    22      Pz                   0.239     0.239    -0.000
     In    22      S                   -0.254    -0.255     0.001
     In    23      Dzz                  1.000     1.000     0.000
     In    23      Dzy                  0.998     0.998     0.000
     In    23      Dzx                  0.999     0.999     0.000
     In    23      Dxx-yy               1.000     1.000     0.000
     In    23      Dxy                  0.999     0.999     0.000
     In    23      S                    0.698     0.700    -0.002
     In    23      Px                   0.242     0.241     0.001
     In    23      Py                   0.241     0.242    -0.002
     In    23      Pz                   0.241     0.243    -0.001
     In    23      S                   -0.234    -0.234     0.000
     In    24      Dzz                  1.000     1.000     0.000
     In    24      Dzy                  0.999     0.999     0.000
     In    24      Dzx                  0.999     0.999     0.000
     In    24      Dxx-yy               1.000     1.000     0.000
     In    24      Dxy                  0.998     0.998     0.000
     In    24      S                    0.698     0.700    -0.002
     In    24      Px                   0.241     0.243    -0.001
     In    24      Py                   0.241     0.242    -0.002
     In    24      Pz                   0.242     0.241     0.001
     In    24      S                   -0.234    -0.234     0.000
     In    25      Dzz                  1.000     1.000     0.000
     In    25      Dzy                  0.998     0.998     0.000
     In    25      Dzx                  0.998     0.998     0.000
     In    25      Dxx-yy               1.000     1.000     0.000
     In    25      Dxy                  0.998     0.998     0.000
     In    25      S                    0.710     0.711    -0.001
     In    25      Px                   0.240     0.241    -0.001
     In    25      Py                   0.240     0.241    -0.001
     In    25      Pz                   0.238     0.239    -0.001
     In    25      S                   -0.262    -0.262    -0.000
     In    26      Dzz                  1.000     1.000     0.000
     In    26      Dzy                  0.999     0.999     0.000
     In    26      Dzx                  0.998     0.998     0.000
     In    26      Dxx-yy               1.000     1.000     0.000
     In    26      Dxy                  0.999     0.999     0.000
     In    26      S                    0.698     0.700    -0.002
     In    26      Px                   0.241     0.243    -0.001
     In    26      Py                   0.242     0.241     0.001
     In    26      Pz                   0.241     0.242    -0.002
     In    26      S                   -0.234    -0.234     0.000
     In    27      Dzz                  1.000     1.000     0.000
     In    27      Dzy                  0.998     0.998     0.000
     In    27      Dzx                  0.999     0.999     0.000
     In    27      Dxx-yy               1.000     1.000     0.000
     In    27      Dxy                  0.999     0.999     0.000
     In    27      S                    0.698     0.700    -0.002
     In    27      Px                   0.242     0.241     0.001
     In    27      Py                   0.241     0.243    -0.001
     In    27      Pz                   0.241     0.242    -0.002
     In    27      S                   -0.234    -0.234     0.000
     In    28      Dzz                  1.000     1.000    -0.000
     In    28      Dzy                  0.999     0.999     0.000
     In    28      Dzx                  0.999     0.999     0.000
     In    28      Dxx-yy               1.000     1.000    -0.000
     In    28      Dxy                  0.999     0.999     0.000
     In    28      S                    0.709     0.709    -0.000
     In    28      Px                   0.239     0.239    -0.000
     In    28      Py                   0.239     0.239    -0.000
     In    28      Pz                   0.239     0.239    -0.000
     In    28      S                   -0.254    -0.255     0.001
     In    29      Dzz                  1.000     1.000     0.000
     In    29      Dzy                  0.999     0.999     0.000
     In    29      Dzx                  0.999     0.999    -0.000
     In    29      Dxx-yy               1.000     1.000     0.000
     In    29      Dxy                  0.999     0.999     0.000
     In    29      S                    0.704     0.703     0.001
     In    29      Px                   0.239     0.237     0.001
     In    29      Py                   0.243     0.232     0.011
     In    29      Pz                   0.239     0.237     0.001
     In    29      S                   -0.237    -0.235    -0.002
     In    30      Dzz                  1.000     1.000     0.000
     In    30      Dzy                  0.999     0.999    -0.000
     In    30      Dzx                  0.999     0.999     0.000
     In    30      Dxx-yy               1.000     1.000     0.000
     In    30      Dxy                  0.999     0.999     0.000
     In    30      S                    0.704     0.703     0.001
     In    30      Px                   0.242     0.232     0.011
     In    30      Py                   0.239     0.237     0.001
     In    30      Pz                   0.239     0.237     0.001
     In    30      S                   -0.237    -0.235    -0.002
     In    31      Dzz                  1.000     1.000     0.000
     In    31      Dzy                  0.999     0.999     0.000
     In    31      Dzx                  0.999     0.999     0.000
     In    31      Dxx-yy               1.000     1.000     0.000
     In    31      Dxy                  0.999     0.999    -0.000
     In    31      S                    0.704     0.703     0.001
     In    31      Px                   0.239     0.237     0.001
     In    31      Py                   0.239     0.237     0.001
     In    31      Pz                   0.243     0.232     0.011
     In    31      S                   -0.237    -0.235    -0.002
  ---------------------------------------------------------------
                           Total:     282.014   280.986     1.028
  ---------------------------------------------------------------

     Atomic Populations (Mulliken)
     -----------------------------
Species          Ion Spin      s       p       d       f      Total   Charge(e)   Spin(hbar/2)
==============================================================================================
  P               1   up:     0.877   1.948   0.000   0.000   2.825    -0.643        0.007
                  1   dn:     0.877   1.941   0.000   0.000   2.818
  P               2   up:     0.877   1.948   0.000   0.000   2.825    -0.643        0.007
                  2   dn:     0.877   1.941   0.000   0.000   2.818
  P               3   up:     0.877   1.948   0.000   0.000   2.825    -0.643        0.007
                  3   dn:     0.877   1.941   0.000   0.000   2.818
  P               4   up:     0.972   1.700   0.000   0.000   2.673    -0.175        0.170
                  4   dn:     0.958   1.545   0.000   0.000   2.503
  P               5   up:     0.870   1.965   0.000   0.000   2.835    -0.667        0.002
                  5   dn:     0.870   1.963   0.000   0.000   2.833
  P               6   up:     0.872   1.968   0.000   0.000   2.840    -0.658        0.022
                  6   dn:     0.871   1.948   0.000   0.000   2.818
  P               7   up:     0.872   1.968   0.000   0.000   2.840    -0.658        0.022
                  7   dn:     0.871   1.948   0.000   0.000   2.818
  P               8   up:     0.868   1.966   0.000   0.000   2.834    -0.669       -0.001
                  8   dn:     0.868   1.967   0.000   0.000   2.835
  P               9   up:     0.872   1.968   0.000   0.000   2.840    -0.658        0.022
                  9   dn:     0.871   1.948   0.000   0.000   2.818
  P              10   up:     0.872   1.968   0.000   0.000   2.840    -0.658        0.022
                 10   dn:     0.871   1.948   0.000   0.000   2.818
  P              11   up:     0.870   1.965   0.000   0.000   2.835    -0.667        0.002
                 11   dn:     0.870   1.963   0.000   0.000   2.833
  P              12   up:     0.868   1.966   0.000   0.000   2.834    -0.669       -0.001
                 12   dn:     0.868   1.967   0.000   0.000   2.835
  P              13   up:     0.872   1.961   0.000   0.000   2.834    -0.659        0.009
                 13   dn:     0.872   1.953   0.000   0.000   2.825
  P              14   up:     0.905   1.892   0.000   0.000   2.797    -0.491        0.103
                 14   dn:     0.892   1.802   0.000   0.000   2.694
  P              15   up:     0.872   1.961   0.000   0.000   2.834    -0.659        0.009
                 15   dn:     0.872   1.953   0.000   0.000   2.825
  P              16   up:     0.877   1.959   0.000   0.000   2.835    -0.650        0.021
                 16   dn:     0.875   1.939   0.000   0.000   2.814
  P              17   up:     0.872   1.968   0.000   0.000   2.840    -0.658        0.022
                 17   dn:     0.871   1.948   0.000   0.000   2.818
  P              18   up:     0.870   1.965   0.000   0.000   2.835    -0.667        0.002
                 18   dn:     0.870   1.963   0.000   0.000   2.833
  P              19   up:     0.872   1.968   0.000   0.000   2.840    -0.658        0.022
                 19   dn:     0.871   1.948   0.000   0.000   2.818
  P              20   up:     0.868   1.966   0.000   0.000   2.834    -0.669       -0.001
                 20   dn:     0.868   1.967   0.000   0.000   2.835
  P              21   up:     0.872   1.961   0.000   0.000   2.834    -0.659        0.009
                 21   dn:     0.872   1.953   0.000   0.000   2.825
  P              22   up:     0.872   1.961   0.000   0.000   2.834    -0.659        0.009
                 22   dn:     0.872   1.953   0.000   0.000   2.825
  P              23   up:     0.905   1.892   0.000   0.000   2.797    -0.491        0.103
                 23   dn:     0.892   1.802   0.000   0.000   2.694
  P              24   up:     0.877   1.959   0.000   0.000   2.836    -0.650        0.021
                 24   dn:     0.875   1.939   0.000   0.000   2.814
  P              25   up:     0.905   1.892   0.000   0.000   2.797    -0.491        0.103
                 25   dn:     0.892   1.802   0.000   0.000   2.694
  P              26   up:     0.872   1.961   0.000   0.000   2.834    -0.659        0.009
                 26   dn:     0.872   1.953   0.000   0.000   2.825
  P              27   up:     0.872   1.961   0.000   0.000   2.834    -0.659        0.009
                 27   dn:     0.872   1.953   0.000   0.000   2.825
  P              28   up:     0.877   1.959   0.000   0.000   2.836    -0.650        0.021
                 28   dn:     0.875   1.939   0.000   0.000   2.814
  P              29   up:     0.869   1.967   0.000   0.000   2.836    -0.669        0.004
                 29   dn:     0.869   1.964   0.000   0.000   2.833
  P              30   up:     0.869   1.967   0.000   0.000   2.836    -0.669        0.004
                 30   dn:     0.869   1.964   0.000   0.000   2.833
  P              31   up:     0.869   1.967   0.000   0.000   2.836    -0.669        0.004
                 31   dn:     0.869   1.964   0.000   0.000   2.833
  P              32   up:     0.869   1.966   0.000   0.000   2.835    -0.669        0.002
                 32   dn:     0.869   1.964   0.000   0.000   2.833
  In              1   up:     0.474   0.719   4.995   0.000   6.187     0.631        0.005
                  1   dn:     0.469   0.718   4.995   0.000   6.182
  In              2   up:     0.452   0.721   4.995   0.000   6.167     0.664       -0.002
                  2   dn:     0.452   0.722   4.995   0.000   6.169
  In              3   up:     0.452   0.721   4.995   0.000   6.167     0.664       -0.002
                  3   dn:     0.452   0.722   4.995   0.000   6.169
  In              4   up:     0.452   0.721   4.995   0.000   6.167     0.664       -0.002
                  4   dn:     0.452   0.722   4.995   0.000   6.169
  In              5   up:     0.475   0.713   4.995   0.000   6.183     0.643        0.009
                  5   dn:     0.470   0.709   4.995   0.000   6.174
  In              6   up:     0.453   0.719   4.995   0.000   6.167     0.670        0.004
                  6   dn:     0.452   0.716   4.995   0.000   6.163
  In              7   up:     0.453   0.719   4.995   0.000   6.167     0.670        0.004
                  7   dn:     0.452   0.716   4.995   0.000   6.163
  In              8   up:     0.502   0.738   4.996   0.000   6.236     0.594        0.067
                  8   dn:     0.491   0.682   4.996   0.000   6.170
  In              9   up:     0.475   0.713   4.995   0.000   6.183     0.643        0.009
                  9   dn:     0.470   0.709   4.995   0.000   6.174
  In             10   up:     0.502   0.738   4.996   0.000   6.236     0.594        0.067
                 10   dn:     0.491   0.682   4.996   0.000   6.170
  In             11   up:     0.453   0.719   4.995   0.000   6.167     0.670        0.004
                 11   dn:     0.452   0.716   4.995   0.000   6.163
  In             12   up:     0.453   0.719   4.995   0.000   6.167     0.670        0.004
                 12   dn:     0.452   0.716   4.995   0.000   6.163
  In             13   up:     0.448   0.718   4.995   0.000   6.161     0.676       -0.003
                 13   dn:     0.449   0.720   4.994   0.000   6.163
  In             14   up:     0.464   0.724   4.995   0.000   6.183     0.630       -0.004
                 14   dn:     0.466   0.726   4.995   0.000   6.187
  In             15   up:     0.455   0.717   4.995   0.000   6.167     0.667        0.000
                 15   dn:     0.454   0.717   4.995   0.000   6.167
  In             16   up:     0.464   0.724   4.995   0.000   6.183     0.630       -0.004
                 16   dn:     0.466   0.726   4.995   0.000   6.187
  In             17   up:     0.475   0.713   4.995   0.000   6.183     0.643        0.009
                 17   dn:     0.470   0.709   4.995   0.000   6.174
  In             18   up:     0.453   0.719   4.995   0.000   6.167     0.670        0.004
                 18   dn:     0.452   0.716   4.995   0.000   6.163
  In             19   up:     0.502   0.738   4.996   0.000   6.236     0.594        0.066
                 19   dn:     0.491   0.682   4.996   0.000   6.170
  In             20   up:     0.453   0.719   4.995   0.000   6.167     0.670        0.004
                 20   dn:     0.452   0.716   4.995   0.000   6.163
  In             21   up:     0.448   0.718   4.995   0.000   6.161     0.676       -0.003
                 21   dn:     0.449   0.720   4.994   0.000   6.163
  In             22   up:     0.455   0.717   4.995   0.000   6.167     0.667        0.000
                 22   dn:     0.454   0.717   4.995   0.000   6.167
  In             23   up:     0.464   0.724   4.995   0.000   6.183     0.630       -0.004
                 23   dn:     0.466   0.726   4.995   0.000   6.187
  In             24   up:     0.464   0.724   4.995   0.000   6.183     0.630       -0.004
                 24   dn:     0.466   0.726   4.995   0.000   6.187
  In             25   up:     0.448   0.718   4.995   0.000   6.161     0.676       -0.003
                 25   dn:     0.449   0.720   4.994   0.000   6.163
  In             26   up:     0.464   0.724   4.995   0.000   6.183     0.630       -0.004
                 26   dn:     0.466   0.726   4.995   0.000   6.187
  In             27   up:     0.464   0.724   4.995   0.000   6.183     0.630       -0.004
                 27   dn:     0.466   0.726   4.995   0.000   6.187
  In             28   up:     0.455   0.717   4.995   0.000   6.167     0.667        0.000
                 28   dn:     0.454   0.717   4.995   0.000   6.167
  In             29   up:     0.467   0.720   4.995   0.000   6.183     0.648        0.013
                 29   dn:     0.468   0.706   4.995   0.000   6.169
  In             30   up:     0.467   0.720   4.995   0.000   6.183     0.648        0.013
                 30   dn:     0.468   0.706   4.995   0.000   6.169
  In             31   up:     0.467   0.720   4.995   0.000   6.183     0.648        0.013
                 31   dn:     0.468   0.706   4.995   0.000   6.169
==============================================================================================

                 Bond                   Population        Spin       Length (A)
================================================================================
              P 30 -- In 13                  0.65         0.00          2.54883
              P 31 -- In 21                  0.65         0.00          2.54884
              P 29 -- In 25                  0.65         0.00          2.54884
              P 20 -- In 13                  0.66        -0.00          2.55002
              P 12 -- In 21                  0.66        -0.00          2.55002
              P 8  -- In 25                  0.66        -0.00          2.55002
              P 9  -- In 16                  0.63        -0.00          2.55293
              P 7  -- In 14                  0.63        -0.00          2.55293
              P 10 -- In 27                  0.63        -0.00          2.55294
              P 6  -- In 23                  0.63        -0.00          2.55294
              P 17 -- In 24                  0.63        -0.00          2.55295
              P 19 -- In 26                  0.63        -0.00          2.55295
              P 32 -- In 1                   0.65        -0.00          2.55656
              P 18 -- In 1                   0.64        -0.00          2.56013
              P 11 -- In 1                   0.64        -0.00          2.56013
              P 5  -- In 1                   0.64        -0.00          2.56013
              P 1  -- In 2                   0.65        -0.00          2.56074
              P 2  -- In 4                   0.65        -0.00          2.56074
              P 2  -- In 2                   0.65        -0.00          2.56074
              P 3  -- In 4                   0.65        -0.00          2.56074
              P 1  -- In 3                   0.65        -0.00          2.56075
              P 3  -- In 3                   0.65        -0.00          2.56075
              P 29 -- In 30                  0.65        -0.00          2.56242
              P 31 -- In 30                  0.65        -0.00          2.56243
              P 31 -- In 31                  0.65        -0.00          2.56243
              P 29 -- In 29                  0.65        -0.00          2.56243
              P 30 -- In 29                  0.65        -0.00          2.56243
              P 30 -- In 31                  0.65        -0.00          2.56243
              P 32 -- In 15                  0.65        -0.00          2.56262
              P 32 -- In 28                  0.65        -0.00          2.56263
              P 32 -- In 22                  0.65        -0.00          2.56263
              P 11 -- In 12                  0.65        -0.00          2.56264
              P 5  -- In 6                   0.65        -0.00          2.56264
              P 11 -- In 11                  0.65        -0.00          2.56264
              P 5  -- In 7                   0.65        -0.00          2.56264
              P 18 -- In 20                  0.65        -0.00          2.56264
              P 18 -- In 18                  0.65        -0.00          2.56264
              P 6  -- In 21                  0.64        -0.00          2.56328
              P 10 -- In 25                  0.64        -0.00          2.56328
              P 19 -- In 25                  0.64        -0.00          2.56328
              P 17 -- In 21                  0.64        -0.00          2.56328
              P 9  -- In 13                  0.64        -0.00          2.56328
              P 7  -- In 13                  0.64        -0.00          2.56328
              P 26 -- In 11                  0.65        -0.00          2.56345
              P 22 -- In 7                   0.65        -0.00          2.56345
              P 27 -- In 18                  0.65        -0.00          2.56345
              P 21 -- In 20                  0.65        -0.00          2.56345
              P 15 -- In 6                   0.65        -0.00          2.56345
              P 13 -- In 12                  0.65        -0.00          2.56345
              P 22 -- In 22                  0.64         0.00          2.56536
              P 26 -- In 28                  0.64        -0.00          2.56536
              P 21 -- In 22                  0.64         0.00          2.56536
              P 27 -- In 28                  0.64         0.00          2.56536
              P 13 -- In 15                  0.64         0.00          2.56536
              P 15 -- In 15                  0.64         0.00          2.56536
              P 20 -- In 24                  0.65         0.00          2.56619
              P 8  -- In 14                  0.65         0.00          2.56619
              P 12 -- In 16                  0.65         0.00          2.56619
              P 20 -- In 26                  0.65         0.00          2.56619
              P 8  -- In 23                  0.65         0.00          2.56620
              P 12 -- In 27                  0.65         0.00          2.56620
              P 12 -- In 2                   0.65         0.00          2.56657
              P 8  -- In 4                   0.65        -0.00          2.56657
              P 20 -- In 3                   0.65         0.00          2.56658
              P 9  -- In 11                  0.64         0.00          2.56694
              P 7  -- In 7                   0.64         0.00          2.56694
              P 10 -- In 12                  0.64         0.00          2.56695
              P 6  -- In 6                   0.64         0.00          2.56696
              P 19 -- In 20                  0.64         0.00          2.56696
              P 17 -- In 18                  0.64         0.00          2.56696
              P 30 -- In 15                  0.65         0.00          2.56759
              P 31 -- In 22                  0.65         0.00          2.56760
              P 29 -- In 28                  0.65         0.00          2.56760
              P 17 -- In 19                  0.66        -0.00          2.56949
              P 19 -- In 19                  0.66        -0.00          2.56949
              P 7  -- In 8                   0.66        -0.00          2.56951
              P 9  -- In 10                  0.66        -0.00          2.56951
              P 10 -- In 10                  0.66        -0.00          2.56951
              P 6  -- In 8                   0.66        -0.00          2.56951
              P 24 -- In 20                  0.64        -0.00          2.56962
              P 28 -- In 18                  0.64        -0.00          2.56962
              P 24 -- In 7                   0.64        -0.00          2.56963
              P 28 -- In 11                  0.64        -0.00          2.56963
              P 16 -- In 6                   0.64        -0.00          2.56963
              P 16 -- In 12                  0.64        -0.00          2.56963
              P 11 -- In 2                   0.63         0.00          2.57186
              P 5  -- In 4                   0.63         0.00          2.57186
              P 18 -- In 3                   0.63         0.00          2.57187
              P 23 -- In 23                  0.68        -0.00          2.57195
              P 25 -- In 27                  0.68        -0.00          2.57195
              P 25 -- In 26                  0.68        -0.00          2.57196
              P 23 -- In 24                  0.68        -0.00          2.57196
              P 14 -- In 16                  0.68        -0.00          2.57199
              P 14 -- In 14                  0.68        -0.00          2.57199
              P 21 -- In 17                  0.63        -0.00          2.57836
              P 27 -- In 17                  0.63        -0.00          2.57836
              P 22 -- In 5                   0.63        -0.00          2.57837
              P 26 -- In 9                   0.63        -0.00          2.57837
              P 15 -- In 5                   0.63        -0.00          2.57837
              P 13 -- In 9                   0.63        -0.00          2.57837
              P 27 -- In 27                  0.64        -0.00          2.58403
              P 21 -- In 23                  0.64        -0.00          2.58403
              P 22 -- In 24                  0.64        -0.00          2.58403
              P 26 -- In 26                  0.64        -0.00          2.58403
              P 13 -- In 14                  0.64        -0.00          2.58403
              P 15 -- In 16                  0.64        -0.00          2.58403
              P 2  -- In 17                  0.61         0.00          2.59343
              P 3  -- In 9                   0.61         0.00          2.59345
              P 1  -- In 5                   0.61         0.00          2.59345
              P 24 -- In 9                   0.59        -0.00          2.59469
              P 28 -- In 5                   0.60        -0.00          2.59469
              P 16 -- In 17                  0.59        -0.00          2.59469
              P 24 -- In 29                  0.61        -0.00          2.61607
              P 28 -- In 31                  0.61        -0.00          2.61607
              P 16 -- In 30                  0.61        -0.00          2.61609
              P 23 -- In 29                  0.64         0.00          2.63773
              P 25 -- In 31                  0.64         0.00          2.63773
              P 14 -- In 30                  0.64         0.00          2.63790
              P 2  -- In 19                  0.59        -0.00          2.66633
              P 1  -- In 8                   0.59        -0.00          2.66645
              P 3  -- In 10                  0.59        -0.00          2.66645
              P 4  -- P 14                   0.14        -0.04          2.72538
              P 4  -- P 25                   0.14        -0.04          2.72597
              P 4  -- P 23                   0.14        -0.04          2.72598
================================================================================

 Hirshfeld supercell size:           2           2           2
Standard grid dimensions: 240 240 240
Fine grid dimensions:     240 240 240


     Hirshfeld Analysis
     ------------------
Species   Ion     Hirshfeld Charge (e)  Spin (hbar/2)
===================================================
  P        1                -0.24        0.01
  P        2                -0.24        0.01
  P        3                -0.24        0.01
  P        4                -0.03        0.19
  P        5                -0.24        0.00
  P        6                -0.24        0.02
  P        7                -0.24        0.02
  P        8                -0.24       -0.00
  P        9                -0.24        0.02
  P       10                -0.24        0.02
  P       11                -0.24        0.00
  P       12                -0.24       -0.00
  P       13                -0.23        0.01
  P       14                -0.18        0.08
  P       15                -0.23        0.01
  P       16                -0.23        0.02
  P       17                -0.24        0.02
  P       18                -0.24        0.00
  P       19                -0.24        0.02
  P       20                -0.24       -0.00
  P       21                -0.23        0.01
  P       22                -0.23        0.01
  P       23                -0.18        0.08
  P       24                -0.23        0.02
  P       25                -0.18        0.08
  P       26                -0.23        0.01
  P       27                -0.23        0.01
  P       28                -0.23        0.02
  P       29                -0.24        0.00
  P       30                -0.24        0.00
  P       31                -0.24        0.00
  P       32                -0.24        0.00
  In       1                 0.24        0.00
  In       2                 0.23        0.00
  In       3                 0.23        0.00
  In       4                 0.23        0.00
  In       5                 0.24        0.01
  In       6                 0.24        0.01
  In       7                 0.24        0.01
  In       8                 0.21        0.06
  In       9                 0.24        0.01
  In      10                 0.21        0.06
  In      11                 0.24        0.01
  In      12                 0.24        0.01
  In      13                 0.23        0.00
  In      14                 0.22        0.01
  In      15                 0.24        0.00
  In      16                 0.22        0.01
  In      17                 0.24        0.01
  In      18                 0.24        0.01
  In      19                 0.21        0.06
  In      20                 0.24        0.01
  In      21                 0.23        0.00
  In      22                 0.24        0.00
  In      23                 0.22        0.01
  In      24                 0.22        0.01
  In      25                 0.23        0.00
  In      26                 0.22        0.01
  In      27                 0.22        0.01
  In      28                 0.24        0.00
  In      29                 0.24        0.02
  In      30                 0.24        0.02
  In      31                 0.24        0.02
===================================================

 
 A BibTeX formatted list of references used in this run has been written to 
 In_Vacancy_Migration_3->60_Singlepoints_4.bib
 
Initialisation time =     30.09 s
Calculation time    =   8510.69 s
Finalisation time   =    158.99 s
Total time          =   8699.77 s
Peak Memory Use     = 9563672 kB
 
Overall parallel efficiency rating: Terrible (34%)
 
Data was distributed by:-
G-vector (3-way); efficiency rating: Poor (37%)
k-point (36-way); efficiency rating: Good (79%)
