64
Lattice="11.80255 0.0 0.0 0.0 11.80255 0.0 0.0 0.0 11.80255" Properties=species:S:1:pos:R:3:mulliken_charges:R:1:dft_forces:R:3:forces:R:3 fermi_energy=3.3633815469690003 core_to_fermi_energy=17.01559655682096 config_type=1000K_PointDefect_AL dft_energy=-64401.11680168 energy=-64401.11680168 pbc="T T T"
P        8.84255308       6.10984966       2.86691021      -0.65800000       0.40387000      -1.86241000      -0.59610000       0.40387000      -1.86241000      -0.59610000
P        6.02280586       8.42801211       3.08654386      -0.62300000      -1.26754000       2.15622000       0.07129000      -1.26754000       2.15622000       0.07129000
P        9.02961169       8.85133418       6.06618023      -0.67300000      -1.05287000       0.15521000      -0.91190000      -1.05287000       0.15521000      -0.91190000
P        5.78164435       5.93655282      12.01599912      -0.62100000      -0.53170000      -0.51099000      -1.07916000      -0.53170000      -0.51099000      -1.07916000
P        8.82148553       5.67655445       8.98458496      -0.64100000       1.16951000       1.22598000      -0.64509000       1.16951000       1.22598000      -0.64509000
P        5.94966545       8.58240127       8.85377730      -0.57500000      -0.27391000       0.93475000      -0.40333000      -0.27391000       0.93475000      -0.40333000
P        8.85944253       9.11250100      -0.00867487      -0.65500000      -0.47772000      -0.84568000      -0.61266000      -0.47772000      -0.84568000      -0.61266000
P        5.92682752      11.72300081       5.66803301      -0.66800000      -0.23828000       0.06448000       0.75214000      -0.23828000       0.06448000       0.75214000
P        8.67075516       0.04237115       3.11685281      -0.63200000       1.53129000       0.44041000      -1.19118000       1.53129000       0.44041000      -1.19118000
P        5.79906492       2.82645107       3.04938944      -0.63900000       0.48057000       1.23033000      -0.96313000       0.48057000       1.23033000      -0.96313000
P        8.77957467       2.90707429       5.75826350      -0.64700000       1.07338000       0.35795000       0.59281000       1.07338000       0.35795000       0.59281000
P        5.92916443      11.82010039      11.84659712      -0.67300000      -1.29912000      -0.02783000       0.52035000      -1.29912000      -0.02783000       0.52035000
P        8.97441117       0.00675106       8.85662172      -0.66400000      -1.82308000       0.93103000       0.99402000      -1.82308000       0.93103000       0.99402000
P        6.16376371       2.90676742       8.68659418      -0.63600000      -0.77756000       0.25704000       0.27404000      -0.77756000       0.25704000       0.27404000
P        8.69199975       2.91088651      11.81359719      -0.67600000       2.50157000       0.47503000      -0.65478000       2.50157000       0.47503000      -0.65478000
P       11.86119687       5.85663776       6.00754516      -0.68600000      -0.93735000       0.59457000      -0.88414000      -0.93735000       0.59457000      -0.88414000
P        2.90507966       6.06955576       2.81670216      -0.62600000      -0.08836000      -0.40468000      -0.08022000      -0.08836000      -0.40468000      -0.08022000
P       11.66319729       8.82784710       3.14879051      -0.64300000       0.08873000       0.26848000      -1.17043000       0.08873000       0.26848000      -1.17043000
P        3.12780558       8.66621118       6.04749679      -0.61700000      -1.12443000       0.82756000       0.21018000      -1.12443000       0.82756000       0.21018000
P        0.07102775       5.76654889      11.89110453      -0.64700000      -0.37806000       0.00889000      -0.96492000      -0.37806000       0.00889000      -0.96492000
P        2.76866578       5.97275124       8.73199859      -0.67800000       0.53771000       0.35064000      -0.65561000       0.53771000       0.35064000      -0.65561000
P       -0.09146976       9.09973064       8.68873044      -0.67600000      -0.42366000      -1.21958000       1.94504000      -0.42366000      -1.21958000       1.94504000
P        3.19799534       9.15067045      -0.11793108      -0.64800000      -1.34500000      -0.65030000       1.05021000      -1.34500000      -0.65030000       1.05021000
P        0.10029807      12.00419657       6.26524204      -0.64900000      -0.53871000      -0.58757000      -1.86941000      -0.53871000      -0.58757000      -1.86941000
P        2.81509702      -0.18354146       3.14725618      -0.63200000      -0.34952000       0.70329000       0.22032000      -0.34952000       0.70329000       0.22032000
P       11.93969563       2.99254836       2.81377513      -0.67200000       1.18722000      -1.32239000       1.64454000       1.18722000      -1.32239000       1.64454000
P        3.04028967       3.14202765       5.84423328      -0.64300000      -0.40350000       0.13609000       0.69868000      -0.40350000       0.13609000       0.69868000
P        0.23633426      -0.22180532      -0.05856425      -0.66700000      -1.07377000       1.37702000       0.08018000      -1.07377000       1.37702000       0.08018000
P        2.82473970       0.09552984       8.66915001      -0.65200000       1.82121000      -0.41904000       0.90435000       1.82121000      -0.41904000       0.90435000
P       11.85719581       3.08997841       8.95846592      -0.69700000      -0.98187000      -0.68726000      -0.75429000      -0.98187000      -0.68726000      -0.75429000
P        3.09565543       2.84659802      11.61020384      -0.67900000      -1.16108000      -0.61614000      -0.71202000      -1.16108000      -0.61614000      -0.71202000
In       5.70266169       6.21113915       6.21811445      -0.50400000       2.68268000      -0.79098000      -0.55977000       2.68268000      -0.79098000      -0.55977000
In       4.08812006       4.16238170       1.49639810       0.68600000       1.85009000       1.73657000       1.22723000       1.85009000       1.73657000       1.22723000
In       7.60911579       4.42429209       4.17824433       0.69700000      -0.95317000      -0.42409000      -0.22194000      -0.95317000      -0.42409000      -0.22194000
In       4.42804530       7.07110835       4.57803211       0.43900000      -3.82476000       2.48997000      -5.65003000      -3.82476000       2.48997000      -5.65003000
In       7.43830928       7.50669326       1.37300244       0.65600000      -0.09464000      -0.11219000      -1.20529000      -0.09464000      -0.11219000      -1.20529000
In       4.56838942       4.64700621       7.42642412       0.51100000      -2.87766000      -4.92389000       3.10639000      -2.87766000      -4.92389000       3.10639000
In       7.27939975       4.45986498      10.47680497       0.66300000      -0.93013000       0.22918000      -0.02690000      -0.93013000       0.22918000      -0.02690000
In       4.02810409       7.39571388      10.24089560       0.70400000       2.21588000      -0.31469000       0.64224000       2.21588000      -0.31469000       0.64224000
In       7.60708575       7.10198382       7.15803413       0.49200000       4.29091000       2.18986000       3.36112000       4.29091000       2.18986000       3.36112000
In       4.47213963      10.33850269       1.82902937       0.67400000       0.90876000      -0.61781000      -0.48824000       0.90876000      -0.61781000      -0.48824000
In       7.37053904      10.13500312       4.36903255       0.69800000       0.36888000      -0.71008000       0.36543000       0.36888000      -0.71008000       0.36543000
In       4.30815500       1.49866419       4.46556561       0.66300000      -0.31817000      -0.83082000       0.05833000      -0.31817000      -0.83082000       0.05833000
In       7.34918823       1.54434006       1.35915805       0.62100000      -0.55045000      -0.99798000       1.90985000      -0.55045000      -0.99798000       1.90985000
In       4.59381212      10.44110225       7.37776220       0.70200000      -0.46957000      -0.91416000       0.32755000      -0.46957000      -0.91416000       0.32755000
In       7.11843657      10.46120200      10.24480224       0.66000000       1.29192000      -1.20247000      -0.56160000       1.29192000      -1.20247000      -0.56160000
In       4.67281839       1.50050539      10.13409432       0.64400000      -0.58823000      -0.62556000      -0.19030000      -0.58823000      -0.62556000      -0.19030000
In       7.43520521       1.24017655       7.17631628       0.68300000       0.18154000       0.55604000       0.35993000       0.18154000       0.55604000       0.35993000
In      10.36839854       4.17620249       1.55105571       0.63100000      -1.42500000       1.60226000      -1.19936000      -1.42500000       1.60226000      -1.19936000
In       1.54043342       4.67908554       4.41194662       0.71300000       0.10693000      -0.71597000      -0.56613000       0.10693000      -0.71597000      -0.56613000
In      10.14989794       7.29409393       4.48565355       0.68000000       1.49173000       0.31797000       0.69036000       1.49173000       0.31797000       0.69036000
In       1.31813239       7.50422653       1.32517851       0.62500000       0.77697000       0.77355000       0.68750000       0.77697000       0.77355000       0.68750000
In      10.40249611       4.37193598       7.30833960       0.67900000      -1.23707000      -0.33032000       0.57050000      -1.23707000      -0.33032000       0.57050000
In       1.68392882       4.40117089      10.07929508       0.63600000      -0.44112000       0.00234000       2.62720000      -0.44112000       0.00234000       2.62720000
In      10.25309943       7.33871937      10.53560527       0.67700000       0.13425000      -0.11074000      -0.80727000       0.13425000      -0.11074000      -0.80727000
In       1.18726571       7.51241750       7.47200556       0.67900000       1.33588000      -0.32852000      -0.84423000       1.33588000      -0.32852000      -0.84423000
In      10.32679456      10.49970191       1.41369764       0.62200000      -0.19841000      -0.07198000       1.65570000      -0.19841000      -0.07198000       1.65570000
In       1.22169375      10.04910416       4.87444135       0.68800000       1.00584000       0.69907000      -0.35961000       1.00584000       0.69907000      -0.35961000
In      10.52850014       1.47890673       4.45763429       0.66000000      -0.30641000      -0.23293000      -0.36235000      -0.30641000      -0.23293000      -0.36235000
In       1.61730343       1.34525465       1.35358725       0.63800000       0.18952000       0.01204000       0.39212000       0.18952000       0.01204000       0.39212000
In      10.23109948      10.51090253       7.36075473       0.61800000       0.71109000      -0.19425000      -0.65247000       0.71109000      -0.19425000      -0.65247000
In       1.55000529      10.22580014      10.15369836       0.64100000       0.52854000       0.41051000      -0.34986000       0.52854000       0.41051000      -0.34986000
In      10.54609774       1.44706345      10.29629677       0.67900000      -0.62824000      -0.26155000       0.83720000      -0.62824000      -0.26155000       0.83720000
In       1.55418339       1.80045540       7.45775989       0.63600000       0.52365000       0.35054000      -0.58305000       0.52365000       0.35054000      -0.58305000
63
Lattice="11.80255 0.0 0.0 0.0 11.80255 0.0 0.0 0.0 11.80255" Properties=species:S:1:pos:R:3:mulliken_charges:R:1:dft_forces:R:3:forces:R:3 fermi_energy=4.179450968124001 core_to_fermi_energy=16.60164826816392 config_type=1000K_PointDefect_AL dft_energy=-62653.92629859 energy=-62653.92629859 pbc="T T T"
P        9.18624333       5.88551860       2.99980692      -0.61300000      -0.98206000      -0.32302000       0.51050000      -0.98206000      -0.32302000       0.51050000
P        5.99829196       8.84334385       2.90112580      -0.66400000      -0.21809000       0.08352000       1.03478000      -0.21809000       0.08352000       1.03478000
P        8.83758420       8.89366992       6.05121460      -0.66300000      -0.13069000       0.11064000       0.20867000      -0.13069000       0.11064000       0.20867000
P        5.96775876       5.69690204      11.90780514      -0.63400000      -0.15764000       1.28413000      -0.42880000      -0.15764000       1.28413000      -0.42880000
P        8.67482704       5.76167444       8.84086531      -0.64500000       1.53792000       1.63383000      -1.20242000       1.53792000       1.63383000      -1.20242000
P        5.71394493       8.68361994       8.83058529      -0.63500000      -0.29971000       1.33170000       1.08511000      -0.29971000       1.33170000       1.08511000
P        8.94517625       8.81276344       0.34851750      -0.63100000      -0.51224000      -0.01372000      -1.48117000      -0.51224000      -0.01372000      -1.48117000
P        5.89099498      11.97190479       6.09133146      -0.66400000       0.10610000      -1.41417000       0.26731000       0.10610000      -1.41417000       0.26731000
P        8.86323115      11.61959867       3.06186473      -0.66900000      -0.31775000       0.10257000       0.26079000      -0.31775000       0.10257000       0.26079000
P        5.68847502       2.86589519       3.03999461      -0.66100000       1.53377000      -0.42997000      -0.64482000       1.53377000      -0.42997000      -0.64482000
P        9.00391754       2.77644366       5.64436889      -0.68700000       0.04141000       1.82915000       0.85036000       0.04141000       1.82915000       0.85036000
P        6.04366096       0.10772187      -0.09074981      -0.68200000      -0.99368000      -0.75462000      -0.69625000      -0.99368000      -0.75462000      -0.69625000
P        8.71615957      11.63220380       8.78848560      -0.69800000      -0.78772000       1.51881000       0.59546000      -0.78772000       1.51881000       0.59546000
P        5.80638250       3.31021399       8.77639979      -0.63100000       0.03302000      -2.22691000      -0.59152000       0.03302000      -2.22691000      -0.59152000
P        8.81217331       2.80179554      11.84570012      -0.68400000      -0.95536000       0.51436000       0.30037000      -0.95536000       0.51436000       0.30037000
P       11.77399963       5.67677870       5.63113824      -0.66400000       0.15462000       2.22270000       0.47190000       0.15462000       2.22270000       0.47190000
P        2.93503453       5.82034491       2.78686532      -0.66100000      -0.95324000       0.08818000       0.58009000      -0.95324000       0.08818000       0.58009000
P        0.23889541       9.00342183       3.20631614      -0.66700000      -0.89084000      -0.14628000      -1.40846000      -0.89084000      -0.14628000      -1.40846000
P        3.07159003       8.76705217       5.96945833      -0.65900000      -0.95990000      -0.07375000      -0.35049000      -0.95990000      -0.07375000      -0.35049000
P       11.71340534       5.78992974      11.98510004      -0.65100000       0.15659000       0.09707000      -0.72271000       0.15659000       0.09707000      -0.72271000
P        2.53059655       6.19178297       8.94060866      -0.65200000       1.10351000      -0.17638000      -0.82641000       1.10351000      -0.17638000      -0.82641000
P       -0.03790979       8.79998128       9.07531117      -0.62300000      -0.53915000       0.77170000      -0.46312000      -0.53915000       0.77170000      -0.46312000
P        2.89652281       9.05625005       0.08379811      -0.65400000      -0.10792000       0.38813000       0.86724000      -0.10792000       0.38813000       0.86724000
P       11.79620023      -0.07755456       6.05560514      -0.62800000       0.96838000       0.92395000      -1.16736000       0.96838000       0.92395000      -1.16736000
P        3.26405422      11.87820435       3.06894626      -0.66700000      -1.02819000      -1.02147000      -0.88583000      -1.02819000      -1.02147000      -0.88583000
P        0.20731179       2.55266732       2.67721963      -0.64800000      -0.20745000       0.99336000       0.48676000      -0.20745000       0.99336000       0.48676000
P        3.03493131       3.22648670       5.98613533      -0.64900000       0.11833000      -0.96759000      -0.59141000       0.11833000      -0.96759000      -0.59141000
P       -0.08486033      11.90340279      -0.25701233      -0.65800000       0.50620000      -0.82030000       1.74778000       0.50620000      -0.82030000       1.74778000
P        2.82532983       0.15078938       8.83802090      -0.70800000       1.96104000      -0.61892000       0.03181000       1.96104000      -0.61892000       0.03181000
P       11.67779705       2.86498639       8.80359286      -0.62300000       0.52715000       0.20979000       0.45670000       0.52715000       0.20979000       0.45670000
P        2.83042853       2.93069119      11.65769730      -0.66500000       1.66899000      -0.75992000       1.00319000       1.66899000      -0.75992000       1.00319000
In       4.44497016       4.31998115       1.49559553       0.63700000      -0.43428000      -0.32151000      -0.90533000      -0.43428000      -0.32151000      -0.90533000
In       7.49106668       4.17052546       4.16003300       0.64000000       0.45337000       0.78001000       0.16960000       0.45337000       0.78001000       0.16960000
In       4.10524556       7.60420593       4.03790021       0.66300000       0.57057000      -0.36727000       0.30143000       0.57057000      -0.36727000       0.30143000
In       7.42448850       7.19004264       1.71691695       0.58200000       0.39784000      -0.46002000      -1.06198000       0.39784000      -0.46002000      -1.06198000
In       4.30664427       4.85894460       7.41956683       0.53000000       0.41447000       1.13360000       0.09094000       0.41447000       1.13360000       0.09094000
In       7.43423740       4.31786850      10.26150285       0.62600000      -0.58228000      -0.19817000       1.56715000      -0.58228000      -0.19817000       1.56715000
In       4.10419513       7.40548639      10.50679525       0.63600000       1.32066000      -0.56914000      -0.32317000       1.32066000      -0.56914000      -0.32317000
In       7.16535171       7.43927709       7.30423232       0.51600000       0.09301000      -1.60898000      -0.27258000       0.09301000      -1.60898000      -0.27258000
In       4.72236549      10.46339727       1.50822426       0.64600000      -0.77234000      -0.31042000      -0.62263000      -0.77234000      -0.31042000      -0.62263000
In       7.24376785      10.29589548       4.66186562       0.63900000       0.12322000       0.17922000      -0.33068000       0.12322000       0.17922000      -0.33068000
In       4.45207529       1.46001084       4.63968863       0.60400000      -0.22698000       1.50451000       0.60568000      -0.22698000       1.50451000       0.60568000
In       7.50244434       1.16392027       1.49003653       0.64700000      -0.14884000       1.44392000       0.91341000      -0.14884000       1.44392000       0.91341000
In       4.22970345      10.39189742       7.40148533       0.64300000       1.32570000       0.05488000       0.70468000       1.32570000       0.05488000       0.70468000
In       7.35564422      10.22570571      10.29649741       0.64400000      -0.31337000      -1.37307000       0.64715000      -0.31337000      -1.37307000       0.64715000
In       4.47963425       1.49439167      10.21459952       0.66300000       0.25957000       1.16005000      -0.05176000       0.25957000       1.16005000      -0.05176000
In       7.64198589       1.58544834       7.24872492       0.65400000      -1.24800000       0.18074000       1.03662000      -1.24800000       0.18074000       1.03662000
In      10.31440188       4.12787105       1.48923396       0.66100000       0.72848000       0.50095000       0.24027000       0.72848000       0.50095000       0.24027000
In       1.40949593       4.15688172       4.31449297       0.66100000       0.62831000       0.15344000      -0.87305000       0.62831000       0.15344000      -0.87305000
In      10.44479645       7.68019074       4.60797518       0.63700000      -0.14761000      -1.22552000      -0.53832000      -0.14761000      -1.22552000      -0.53832000
In       1.29743072       7.42218700       1.50895602       0.65200000       0.47079000       0.11678000      -0.06480000       0.47079000       0.11678000      -0.06480000
In      10.48309573       4.55129933       7.32231382       0.65100000      -1.16600000      -1.18554000       0.81227000      -1.16600000      -1.18554000       0.81227000
In       1.54934434       4.52829616      10.39039850       0.62400000      -2.03588000      -0.50807000      -0.48749000      -2.03588000      -0.50807000      -0.48749000
In      10.19680127       7.21449753      10.43310012       0.66000000      -0.22265000       0.15625000       0.27262000      -0.22265000       0.15625000       0.27262000
In       1.10476589       7.58587657       7.22881402       0.60900000       0.60523000      -0.95615000      -0.15150000       0.60523000      -0.95615000      -0.15150000
In      10.48680173      10.47269768       1.56735503       0.64700000       0.46468000      -0.82997000      -0.40745000       0.46468000      -0.82997000      -0.40745000
In       1.72622916      10.42889842       4.51084019       0.66300000      -0.16535000       0.50059000       0.88283000      -0.16535000       0.50059000       0.88283000
In      10.39840063       1.45960956       4.18838272       0.65500000       0.81991000      -1.34494000       0.70340000       0.81991000      -1.34494000       0.70340000
In       1.76777414       1.09511140       1.27635136       0.66600000      -0.45943000       0.69573000      -0.18708000      -0.45943000       0.69573000      -0.18708000
In      10.30680104      10.40890490       7.55356118       0.62400000       1.30068000      -1.40673000      -0.40321000       1.30068000      -1.40673000      -0.40321000
In       1.55661471      10.56219642      10.28260581       0.66000000      -0.94838000      -1.85798000       0.46523000      -0.94838000      -1.85798000       0.46523000
In       9.98565365       1.33754758      10.34029667       0.65600000       1.10441000       0.65872000      -1.47730000       1.10441000       0.65872000      -1.47730000
In       1.74038042       1.56828744       7.29879134       0.64400000      -2.58495000       0.94754000      -0.55298000      -2.58495000       0.94754000      -0.55298000
32
Lattice="25.965609 0.0 0.0 0.0 6.491402 0.0 0.0 0.0 6.491402" Properties=species:S:1:pos:R:3:mulliken_charges:R:1:dft_forces:R:3:forces:R:3 fermi_energy=1.1258166109185002 core_to_fermi_energy=15.57695786969046 config_type=300K_NDSC_Bulk dft_energy=-31423.65130018 energy=-31423.65130018 pbc="T T T"
P        1.85199706       1.72558343       4.98432565      -0.59100000       0.24241000       0.29717000      -0.16000000       0.24241000       0.29717000      -0.16000000
P        4.99438103       1.68379178       1.62784888      -0.63400000      -0.69271000      -0.16351000       0.27112000      -0.69271000      -0.16351000       0.27112000
P        1.79614504       4.87760051       1.68317510      -0.59000000       0.62309000       0.31534000      -0.24281000       0.62309000       0.31534000      -0.24281000
P        4.93749038       5.03512088       4.83266703      -0.59400000       0.17920000      -0.02870000      -0.01874000       0.17920000      -0.02870000      -0.01874000
P        7.93386973       1.61794300       5.01288782      -0.59800000       0.11738000       0.17921000      -0.46394000       0.11738000       0.17921000      -0.46394000
P       11.03325465       1.63232146       1.67681352      -0.60600000       0.18144000      -0.24956000      -0.26783000       0.18144000      -0.24956000      -0.26783000
P        8.00545691       4.88620811       1.59501537      -0.57800000       0.03452000       0.12676000      -0.10023000       0.03452000       0.12676000      -0.10023000
P       11.02598427       4.84265081       4.76953165      -0.58600000       0.04259000       0.53270000       0.56871000       0.04259000       0.53270000       0.56871000
P       14.06445387       1.76915372       4.73319279      -0.59700000       0.83243000      -0.83595000       0.21052000       0.83243000      -0.83595000       0.21052000
P       17.67738661       1.92187693       1.52050706      -0.48200000      -0.32446000      -1.27499000       0.07105000      -0.32446000      -1.27499000       0.07105000
P       14.18693365       4.55045333       1.71794954      -0.54300000       0.83822000       0.76796000      -0.59976000       0.83822000       0.76796000      -0.59976000
P       17.62252128       4.28642204       5.00705854      -0.50500000       0.20245000       1.31497000       0.13794000       0.20245000       1.31497000       0.13794000
P       21.26741767       1.33406101       4.84496824      -0.50200000       0.10162000       0.94017000      -0.04977000       0.10162000       0.94017000      -0.04977000
P       24.89587784       1.75046497       1.49443759      -0.57700000      -0.89357000      -0.11334000       0.49897000      -0.89357000      -0.11334000       0.49897000
P       21.18536635       5.32485811       1.93665136      -0.52300000      -0.14699000      -1.08659000      -0.57256000      -0.14699000      -1.08659000      -0.57256000
P       24.82483593       4.88944732       4.73461440      -0.57600000      -0.99364000       0.67018000       0.68371000      -0.99364000       0.67018000       0.68371000
In       0.38592685       0.07803314       0.06153849       0.57900000       0.00956000      -0.18728000      -0.14692000       0.00956000      -0.18728000      -0.14692000
In       3.12096234       0.08216168       3.37547062       0.63900000       0.23642000      -0.35374000      -0.02259000       0.23642000      -0.35374000      -0.02259000
In       0.31249610       3.36534403       3.27137449       0.58200000       0.22876000      -0.69561000      -0.20165000       0.22876000      -0.69561000      -0.20165000
In       3.81671083       3.35165366       6.44785118       0.61500000      -1.04318000       0.08949000      -0.01527000      -1.04318000       0.08949000      -0.01527000
In       6.29645246       0.09692312       0.11954566       0.58000000       0.46873000      -0.88821000      -0.60151000       0.46873000      -0.88821000      -0.60151000
In       9.33037808       0.24453760       3.21240660       0.59500000       0.36923000      -0.91824000       0.12221000       0.36923000      -0.91824000       0.12221000
In       6.70927968       2.99169893       2.98708354       0.63700000       0.12935000       0.96088000       0.76383000       0.12935000       0.96088000       0.76383000
In       9.69527278       3.17052407       6.46012643       0.63000000      -0.24967000       0.55103000      -0.07215000      -0.24967000       0.55103000      -0.07215000
In      13.19787764       6.49067496       6.41529031       0.65100000      -1.21241000      -0.71145000       0.25746000      -1.21241000      -0.71145000       0.25746000
In      16.57787289       6.21105133       3.28381202       0.51800000      -0.89566000       0.00151000      -0.23889000      -0.89566000       0.00151000      -0.23889000
In      12.32937995       3.26144914       3.25865135       0.53100000       0.01674000       0.08376000      -0.19502000       0.01674000       0.08376000      -0.19502000
In      15.57435404       2.94146197       6.44550130       0.46300000       0.14067000       0.64833000       0.45797000       0.14067000       0.64833000       0.45797000
In      18.44596863       6.32029513       0.16382351       0.52400000       0.47905000      -0.09613000      -0.25669000       0.47905000      -0.09613000      -0.25669000
In      23.44338764       0.01877313       3.05830721       0.51300000       0.16176000       0.30876000       0.27285000       0.16176000       0.30876000       0.27285000
In      20.29186378       3.19728812       3.35620414       0.48700000       0.02457000       0.19444000       0.04846000       0.02457000       0.19444000       0.04846000
In      22.35197520       3.61036849       6.45443996       0.53600000       0.79210000      -0.37934000      -0.13846000       0.79210000      -0.37934000      -0.13846000
32
Lattice="25.965609 0.0 0.0 0.0 6.491402 0.0 0.0 0.0 6.491402" Properties=species:S:1:pos:R:3:mulliken_charges:R:1:dft_forces:R:3:forces:R:3 fermi_energy=1.110823138059 core_to_fermi_energy=15.544369515613262 config_type=300K_NDSC_Bulk dft_energy=-31423.55060967 energy=-31423.55060967 pbc="T T T"
P        2.09178946       1.60037727       4.89538696      -0.58100000      -0.96115000       0.48438000       0.42953000      -0.96115000       0.48438000       0.42953000
P        5.02156702       1.68173401       1.70034486      -0.58200000       0.37954000       0.08774000       0.02087000       0.37954000       0.08774000       0.02087000
P        1.95809254       4.88635092       1.53820911      -0.59600000      -0.09657000      -0.08614000       0.78834000      -0.09657000      -0.08614000       0.78834000
P        5.01787990       4.92564338       4.93092089      -0.59100000       0.38300000       0.35313000      -0.05712000       0.38300000       0.35313000      -0.05712000
P        8.06460657       1.67356133       4.93535452      -0.59800000       0.38028000      -0.08912000      -0.18969000       0.38028000      -0.08912000      -0.18969000
P       11.04911963       1.63861812       1.65785214      -0.58800000      -0.14155000      -0.19722000       0.23555000      -0.14155000      -0.19722000       0.23555000
P        8.03726478       4.83682802       1.61169178      -0.62900000       0.15637000      -0.58283000       0.10576000       0.15637000      -0.58283000       0.10576000