 +-------------------------------------------------+
 |                                                 |
 |      CCC   AA    SSS  TTTTT  EEEEE  PPPP        |
 |     C     A  A  S       T    E      P   P       |
 |     C     AAAA   SS     T    EEE    PPPP        |
 |     C     A  A     S    T    E      P           |
 |      CCC  A  A  SSS     T    EEEEE  P           |
 |                                                 |
 +-------------------------------------------------+
 |                                                 |
 | Welcome to Academic Release CASTEP version 24.1 |
 | Ab Initio Total Energy Program                  |
 |                                                 |
 | Authors:                                        |
 | M. Segall, M. Probert, C. Pickard, P. Hasnip,   |
 | S. Clark, K. Refson, J. R. Yates,               |
 | A. Bartok-Partay, M. Payne                      |
 |                                                 |
 | Contributors:                                   |
 | P. Lindan, P. Haynes, J. White, V. Milman,      |
 | N. Govind, M. Gibson, P. Tulip, V. Cocula,      |
 | B. Montanari, D. Quigley, M. Glover,            |
 | L. Bernasconi, A. Perlov, M. Plummer,           |
 | E. McNellis, J. Meyer, J. Gale, D. Jochym       |
 | J. Aarons, B. Walker, R. Gillen, D. Jones       |
 | T. Green, I. J. Bush, C. J. Armstrong,          |
 | E. J. Higgins, E. L. Brown, M. S. McFly,        |
 | J. Wilkins, B-C. Shih, P. J. P. Byrne,          |
 | R. J. Maurer, J. C. Womack, J. Dziedzic,        |
 | L. LeBlanc, T. K. Stenczel, J. Kermode,         |
 | S. Sturniolo, B. Shi, B. Durham, M. Evans,      |
 | M. J. Smith, A. Tamerus, Z. Hawkhead,           |
 | V. Ravindran, T. Hollins, S. A. Joyce,          |
 | R. T. Strong, A. M. Reilly, S. J. Donaldson     |
 |                                                 |
 | Copyright (c) 2000 - 2023                       |
 |                                                 |
 |     Distributed under license from Cambridge    |
 |     Enterprise for academic use only.           |
 |                                                 |
 | Please cite                                     |
 |                                                 |
 |     "First principles methods using CASTEP"     |
 |                                                 |
 |         Zeitschrift fuer Kristallographie       |
 |           220(5-6) pp. 567-570 (2005)           |
 |                                                 |
 | S. J. Clark, M. D. Segall, C. J. Pickard,       |
 | P. J. Hasnip, M. J. Probert, K. Refson,         |
 | M. C. Payne                                     |
 |                                                 |
 |       in all publications arising from          |
 |              your use of CASTEP                 |
 |                                                 |
 +-------------------------------------------------+
 |                                                 |
 |              http://www.castep.org              |
 |                                                 |
 +-------------------------------------------------+



 Compiled for  GNU 11.2.0 on 04-04-2024 18:39:17
 from code version 6355fd106 Castep241_branch Thu Mar 7 17:56:19 2024 +0000
 Compiler: GNU Fortran 11.2.0; Optimisation: FAST
 Comms   : MPI VERSION : CRAY MPICH version 8.1.23.14 (ANL base 3.4a2)
 MATHLIBS: default (LAPACK version 3.10.1)
 FFT Lib : fftw3 version commercial-fftw-3.3.10-sse2-avx-avx2-avx2_128
 Fundamental constants values: CODATA 2018

 Run started: Fri, 17 Jan 2025 05:27:47 +0000

 Atomic calculation performed for P: 1s2 2s2 2p6 3s2 3p3

 Converged in 47 iterations to an ae energy of -9309.074 eV

   ============================================================                
   | Pseudopotential Report - Date of generation 17-01-2025   |                
   ------------------------------------------------------------                
   | Element: P Ionic charge:  5.00 Level of theory: RSCAN    |                
   | Atomic Solver: Koelling-Harmon                           |                
   |                                                          |                
   |               Reference Electronic Structure             |                
   |         Orbital         Occupation         Energy        |                
   |            3s              2.000           -0.535        |                
   |            3p              3.000           -0.209        |                
   |                                                          |                
   |                 Pseudopotential Definition               |                
   |        Beta     l      e      Rc     scheme   norm       |                
   |          1      0   -0.535   1.807     qc      0         |                
   |          2      0    0.250   1.807     qc      0         |                
   |          3      1   -0.209   1.807     qc      0         |                
   |          4      1    0.250   1.807     qc      0         |                
   |          5      2    0.000   1.807     qc      0         |                
   |          6      2    0.250   1.807     qc      0         |                
   |         loc     3    0.000   1.807     pn      0         |                
   |                                                          |                
   | Augmentation charge Rinner = 1.263                       |                
   | Partial core correction Rc = 1.263                       |                
   ------------------------------------------------------------                
   | "3|1.8|4|4|5|30:31:32"                                   |                
   ------------------------------------------------------------                
   |      Author: Chris J. Pickard, Cambridge University      |                
   ============================================================                
 Warning: otfg_output_psp cannot write out meta-GGA pseudopotentials presently.

 Atomic calculation performed for In:
 1s2 2s2 2p6 3s2 3p6 3d10 4s2 4p6 4d10 5s2 5p1

 Converged in 84 iterations to an ae energy of -160093.328 eV

   ============================================================                
   | Pseudopotential Report - Date of generation 17-01-2025   |                
   ------------------------------------------------------------                
   | Element: In Ionic charge: 13.00 Level of theory: RSCAN   |                
   | Atomic Solver: Koelling-Harmon                           |                
   |                                                          |                
   |               Reference Electronic Structure             |                
   |         Orbital         Occupation         Energy        |                
   |            4d             10.000           -0.711        |                
   |            5s              2.000           -0.313        |                
   |            5p              1.000           -0.095        |                
   |                                                          |                
   |                 Pseudopotential Definition               |                
   |        Beta     l      e      Rc     scheme   norm       |                
   |          1      0   -0.313   2.501     qc      0         |                
   |          2      0    0.250   2.501     qc      0         |                
   |          3      1   -0.095   2.501     qc      0         |                
   |          4      1    0.250   2.501     qc      0         |                
   |          5      2   -0.711   2.207     qc      0         |                
   |          6      2    0.250   2.207     qc      0         |                
   |         loc     3    0.000   2.501     pn      0         |                
   |                                                          |                
   | Augmentation charge Rinner = 1.504                       |                
   | Partial core correction Rc = 1.504                       |                
   ------------------------------------------------------------                
   | "3|2.5|2.5|1.5|7|8|9|50:51:42U2.2U2.2"                   |                
   ------------------------------------------------------------                
   |      Author: Chris J. Pickard, Cambridge University      |                
   ============================================================                
 Warning: otfg_output_psp cannot write out meta-GGA pseudopotentials presently.

 Pseudo atomic calculation performed for P 3s2 3p3

 Converged in 23 iterations to a total energy of -208.0292 eV

 Pseudo atomic calculation performed for In 4d10 5s2 5p1

 Converged in 42 iterations to a total energy of -1747.4501 eV
 Calculation parallelised over 80 processes.
 Data is distributed by G-vector(4-way) and k-point(20-way)
 Each process may use up to 16 threads.

 ************************************ Title ************************************
 

 ***************************** General Parameters ******************************
  
 output verbosity                               : normal  (1)
 write checkpoint data to                       : DFT_Quads_1.check
 type of calculation                            : geometry optimization
 stress calculation                             : off
 density difference calculation                 : off
 electron localisation func (ELF) calculation   : off
 Hirshfeld analysis                             : on
 polarisation (Berry phase) analysis            : off
 molecular orbital projected DOS                : off
 deltaSCF calculation                           : off
 unlimited duration calculation
 timing information                             : on
 memory usage estimate                          : on
 write extra output files                       : on
 write final potential to formatted file        : off
 write final density to formatted file          : off
 write BibTeX reference list                    : on
 write OTFG pseudopotential files               : on
 write electrostatic potential file             : on
 write bands file                               : on
 checkpoint writing                             : off
  
 output         length unit                     : A
 output           mass unit                     : amu
 output           time unit                     : ps
 output         charge unit                     : e
 output           spin unit                     : hbar/2
 output         energy unit                     : eV
 output          force unit                     : eV/A
 output       velocity unit                     : A/ps
 output       pressure unit                     : GPa
 output     inv_length unit                     : 1/A
 output      frequency unit                     : cm-1
 output force constant unit                     : eV/A**2
 output         volume unit                     : A**3
 output   IR intensity unit                     : (D/A)**2/amu
 output         dipole unit                     : D
 output         efield unit                     : eV/A/e
 output        entropy unit                     : J/mol/K
 output    efield chi2 unit                     : pm/V
  
 wavefunctions paging                           : none
 random number generator seed                   :   52747868
 data distribution                              : optimal for this architecture
 optimization strategy                          : balance speed and memory

 *********************** Exchange-Correlation Parameters ***********************
  
 using functional                               : RSCAN
 relativistic treatment                         : Koelling-Harmon
 DFT+D: Semi-empirical dispersion correction    : off

 ************************* Pseudopotential Parameters **************************
  
 pseudopotential representation                 : reciprocal space
 <beta|phi> representation                      : reciprocal space
 spin-orbit coupling                            : off

 **************************** Basis Set Parameters *****************************
  
 plane wave basis set cut-off                   :   900.0000   eV
 size of standard grid                          :     2.0000
 size of   fine   gmax                          :    30.7390   1/A
 finite basis set correction                    : none

 **************************** Electronic Parameters ****************************
  
 number of  electrons                           :  864.0    
 net charge of system                           :  0.000    
 treating system as non-spin-polarized
 number of bands                                :        518

 ********************* Electronic Minimization Parameters **********************
  
 Method: Treating system as metallic with density mixing treatment of electrons,
         and number of  SD  steps               :          1
         and number of  CG  steps               :          4
  
 total energy / atom convergence tol.           : 0.1000E-07   eV
 eigen-energy convergence tolerance             : 0.2222E-08   eV
 max force / atom convergence tol.              : ignored
 convergence tolerance window                   :          3   cycles
 max. number of SCF cycles                      :         50
 number of fixed-spin iterations                :         10
 smearing scheme                                : Gaussian
 smearing width                                 : 0.2000       eV
 Fermi energy convergence tolerance             : 0.2721E-13   eV
 periodic dipole correction                     : NONE

 ************************** Density Mixing Parameters **************************
  
 density-mixing scheme                          : Pulay
 max. length of mixing history                  :         15
 charge density mixing amplitude                : 0.5000    
 cut-off energy for mixing                      :  900.0       eV

 *********************** Population Analysis Parameters ************************
  
 Population analysis with cutoff                :  3.000       A
 Population analysis output                     : summary and pdos components

 ********************** Geometry Optimization Parameters ***********************
  
 optimization method                            : LBFGS
 max. no. of LBFGS updates                      : unbounded
 preconditioned LBFGS is activated
 preconditioner type                            : EXP
     stabilization constant                     :     0.1000
     parameter A                                :     3.0000
     nearest neighbor distance                  : automatic
     cut-off distance                           : automatic
     parameter mu                               : automatic
 variable cell method                           : fixed basis quality
 max. number of steps                           :         30
 estimated bulk modulus                         :  500.0       GPa
 estimated <frequency>                          :  1668.       cm-1
 geom line minimiser                            : on
 with line minimiser tolerance                  :     0.4000
 total energy convergence tolerance             : 0.2000E-04   eV/atom
        max ionic |force| tolerance             : 0.1000E-02   eV/A
 max ionic |displacement| tolerance             : 0.1000E-02   A
   max |stress component| tolerance             : 0.1000       GPa
 convergence tolerance window                   :          2   steps
 backup results every                           :          5   steps
 write geom trajectory file                     : on

 *******************************************************************************
  

                           -------------------------------
                                      Unit Cell
                           -------------------------------
        Real Lattice(A)                      Reciprocal Lattice(1/A)
    14.4540870    20.4411670     0.0000000        0.217349782   0.153689496   0.000000000
    14.4540870   -20.4411670     0.0000000        0.217349782  -0.153689496   0.000000000
     0.0000000     0.0000000     4.1725360        0.000000000   0.000000000   1.505843283

                       Lattice parameters(A)       Cell Angles
                    a =     25.035214          alpha =   90.000000
                    b =     25.035214          beta  =   90.000000
                    c =      4.172536          gamma =  109.471224

                       Current cell volume =          2465.621673       A**3
                                   density =             2.838231   AMU/A**3
                                           =             4.712994     g/cm^3

                           -------------------------------
                                     Cell Contents
                           -------------------------------
                         Total number of ions in cell =   96
                      Total number of species in cell =    2
                        Max number of any one species =   48

            xxxxxxxxxxxxxxxxxxxxxxxxxxxxxxxxxxxxxxxxxxxxxxxxxxxxxxxxxxxx
            x  Element    Atom        Fractional coordinates of atoms  x
            x            Number           u          v          w      x
            x----------------------------------------------------------x
            x  P            1         0.284307   0.318963   0.000000   x 
            x  P            2         0.177732   0.216917   0.500000   x 
            x  P            3         0.373936   0.244528   0.500000   x 
            x  P            4         0.509771   0.368150   0.000000   x 
            x  P            5         0.409812   0.112579   0.000000   x 
            x  P            6         0.538365   0.233524   0.500000   x 
            x  P            7         0.575315   0.102708   0.000000   x 
            x  P            8         0.446347   0.960428   0.500000   x 
            x  P            9         0.611632   0.950837   0.500000   x 
            x  P           10         0.739821   0.096044   0.000000   x 
            x  P           11         0.651663   0.819018   0.000000   x 
            x  P           12         0.778163   0.948582   0.500000   x 
            x  P           13         0.535360   0.554005   0.000000   x 
            x  P           14         0.408165   0.432721   0.500000   x 
            x  P           15         0.639196   0.490054   0.500000   x 
            x  P           16         0.766231   0.606188   0.000000   x 
            x  P           17         0.667599   0.355468   0.000000   x 
            x  P           18         0.796717   0.476673   0.500000   x 
            x  P           19         0.829583   0.347919   0.000000   x 
            x  P           20         0.701894   0.225079   0.500000   x 
            x  P           21         0.865482   0.219961   0.500000   x 
            x  P           22         0.991757   0.344093   0.000000   x 
            x  P           23         0.906941   0.095351   0.000000   x 
            x  P           24         0.008391   0.213242   0.500000   x 
            x  P           25         0.829049   0.834233   0.000000   x 
            x  P           26         0.664922   0.675055   0.500000   x 
            x  P           27         0.890938   0.725430   0.500000   x 
            x  P           28         0.010275   0.847499   0.000000   x 
            x  P           29         0.925901   0.598738   0.000000   x 
            x  P           30         0.030836   0.718859   0.500000   x 
            x  P           31         0.065649   0.591409   0.000000   x 
            x  P           32         0.958317   0.471521   0.500000   x 
            x  P           33         0.098233   0.463995   0.500000   x 
            x  P           34         0.227626   0.585966   0.000000   x 
            x  P           35         0.130473   0.337141   0.000000   x 
            x  P           36         0.258346   0.455275   0.500000   x 
            x  P           37         0.061950   0.098365   0.000000   x 
            x  P           38         0.954909   0.959491   0.500000   x 
            x  P           39         0.112572   0.965515   0.500000   x 
            x  P           40         0.242528   0.115463   0.000000   x 
            x  P           41         0.156196   0.842644   0.000000   x 
            x  P           42         0.281416   0.967294   0.500000   x 
            x  P           43         0.320537   0.838043   0.000000   x 
            x  P           44         0.193662   0.714970   0.500000   x 
            x  P           45         0.356429   0.707873   0.500000   x 
            x  P           46         0.484881   0.829537   0.000000   x 
            x  P           47         0.386565   0.574522   0.000000   x 
            x  P           48         0.517626   0.697222   0.500000   x 
            x  In           1         0.233769   0.393812   0.000000   x 
            x  In           2         0.109063   0.274570   0.500000   x 
            x  In           3         0.335078   0.324945   0.500000   x 
            x  In           4         0.464640   0.445995   0.000000   x 
            x  In           5         0.348337   0.180982   0.000000   x 
            x  In           6         0.482374   0.302778   0.500000   x 
            x  In           7         0.515119   0.170463   0.000000   x 
            x  In           8         0.388368   0.049163   0.500000   x 
            x  In           9         0.553653   0.039572   0.500000   x 
            x  In          10         0.679463   0.161957   0.000000   x 
            x  In          11         0.590188   0.887421   0.000000   x 
            x  In          12         0.718585   0.032706   0.500000   x 
            x  In          13         0.490229   0.631850   0.000000   x 
            x  In          14         0.360804   0.509946   0.500000   x 
            x  In          15         0.591835   0.567279   0.500000   x 
            x  In          16         0.715693   0.681037   0.000000   x 
            x  In          17         0.613435   0.425479   0.000000   x 
            x  In          18         0.741654   0.544725   0.500000   x 
            x  In          19         0.772374   0.414034   0.000000   x 
            x  In          20         0.643572   0.292127   0.500000   x 
            x  In          21         0.806338   0.285030   0.500000   x 
            x  In          22         0.934351   0.408591   0.000000   x 
            x  In          23         0.843804   0.157356   0.000000   x 
            x  In          24         0.969164   0.281141   0.500000   x 
            x  In          25         0.757473   0.884537   0.000000   x 
            x  In          26         0.626064   0.755472   0.500000   x 
            x  In          27         0.822268   0.783083   0.500000   x 
            x  In          28         0.938050   0.901635   0.000000   x 
            x  In          29         0.869528   0.662859   0.000000   x 
            x  In          30         0.991609   0.786758   0.500000   x 
            x  In          31         0.008243   0.655907   0.000000   x 
            x  In          32         0.901767   0.536005   0.500000   x 
            x  In          33         0.041683   0.528479   0.500000   x 
            x  In          34         0.170417   0.652081   0.000000   x 
            x  In          35         0.074099   0.401262   0.000000   x 
            x  In          36         0.203283   0.523327   0.500000   x 
            x  In          37         0.989725   0.152501   0.000000   x 
            x  In          38         0.887428   0.034485   0.500000   x 
            x  In          39         0.045091   0.040509   0.500000   x 
            x  In          40         0.170951   0.165767   0.000000   x 
            x  In          41         0.093059   0.904650   0.000000   x 
            x  In          42         0.221837   0.051418   0.500000   x 
            x  In          43         0.260179   0.903956   0.000000   x 
            x  In          44         0.134518   0.780039   0.500000   x 
            x  In          45         0.298106   0.774921   0.500000   x 
            x  In          46         0.424685   0.897292   0.000000   x 
            x  In          47         0.332401   0.644532   0.000000   x 
            x  In          48         0.461635   0.766476   0.500000   x 
            xxxxxxxxxxxxxxxxxxxxxxxxxxxxxxxxxxxxxxxxxxxxxxxxxxxxxxxxxxxx


                         No user defined ionic velocities

                           -------------------------------
                                   Details of Species
                           -------------------------------

                               Mass of species in AMU
                                    P   30.9737600
                                    In  114.8180000

                          Electric Quadrupole Moment (Barn)
                                    P    1.0000000 No Isotope Defined
                                    In    0.7700000 Isotope115

                          Files used for pseudopotentials:
                                    P 3|1.8|4|4|5|30:31:32
                                    In 3|2.5|2.5|1.5|7|8|9|50:51:42U2.2U2.2

                           -------------------------------
                              k-Points For BZ Sampling
                           -------------------------------
                       MP grid size for SCF calculation is  2  2  8
                            with an offset of   0.250  0.250  0.062
                       Number of kpoints used =            20

                           -------------------------------
                               Symmetry and Constraints
                           -------------------------------

                      Maximum deviation from symmetry =  0.00000         ANG

                      Number of symmetry operations   =           1
                      Number of ionic constraints     =           3
                      Point group of crystal =     1: C1, 1, 1
                      Space group of crystal =     6: Pm, P -2y

             Set iprint > 1 for details on symmetry rotations/translations

                         Centre of mass is constrained
             Set iprint > 1 for details of linear ionic constraints

                         Number of cell constraints= 6
                         Cell constraints are:  0 0 0 0 0 0

                         External pressure/stress (GPa)
                          0.00000   0.00000   0.00000
                                    0.00000   0.00000
                                              0.00000
 
+---------------- MEMORY AND SCRATCH DISK ESTIMATES PER PROCESS --------------+
|                                                     Memory          Disk    |
| Baseline code, static data and system overhead      368.0 MB         0.0 MB |
| BLAS internal memory storage                          0.0 MB         0.0 MB |
| Model and support data                             5399.6 MB         0.0 MB |
| Electronic energy minimisation requirements        1424.9 MB         0.0 MB |
| Force calculation requirements                      104.2 MB         0.0 MB |
|                                               ----------------------------- |
| Approx. total storage required per process         7192.5 MB         0.0 MB |
|                                                                             |
| Requirements will fluctuate during execution and may exceed these estimates |
+-----------------------------------------------------------------------------+
Calculating approximate eigenstates for fixed initial Hamiltonian
Cut-off for approx. calculation is   89.988 eV
Improving approx. states at cut-off of  450.000 eV
Resetting cut-off to  900.000 eV
Calculating total energy with cut-off of  900.000 eV.
------------------------------------------------------------------------ <-- SCF
SCF loop      Energy           Fermi           Energy gain       Timer   <-- SCF
                               energy          per atom          (sec)   <-- SCF
------------------------------------------------------------------------ <-- SCF
Initial  -9.45460417E+004  0.00000000E+000                       496.54  <-- SCF
      1  -9.41925730E+004  2.82513276E+000  -3.68196607E+000    1005.33  <-- SCF
      2  -9.41929619E+004  2.82418201E+000   4.05097019E-003    1350.68  <-- SCF
      3  -9.42904801E+004  3.16984843E+000   1.01581480E+000    1744.95  <-- SCF
      4  -9.43081770E+004  3.20374053E+000   1.84342710E-001    2284.22  <-- SCF
      5  -9.42961867E+004  3.44844228E+000  -1.24898422E-001    2669.33  <-- SCF
      6  -9.43004346E+004  3.49564242E+000   4.42484124E-002    3052.39  <-- SCF
      7  -9.42992783E+004  3.53156487E+000  -1.20445313E-002    3442.94  <-- SCF
      8  -9.43004976E+004  3.52630276E+000   1.27013319E-002    3829.05  <-- SCF
      9  -9.43012779E+004  3.52279831E+000   8.12807144E-003    4210.63  <-- SCF
     10  -9.43012562E+004  3.51649274E+000  -2.26840453E-004    4594.67  <-- SCF
     11  -9.43012574E+004  3.52282501E+000   1.27587083E-005    4989.20  <-- SCF
     12  -9.43012732E+004  3.52445338E+000   1.64843640E-004    5391.19  <-- SCF
     13  -9.43012726E+004  3.52855416E+000  -6.39776345E-006    5793.42  <-- SCF
     14  -9.43012750E+004  3.52831643E+000   2.50228699E-005    6187.69  <-- SCF
     15  -9.43012749E+004  3.52802008E+000  -7.60147933E-007    6592.50  <-- SCF
     16  -9.43012750E+004  3.52784665E+000   7.63891161E-007    6943.94  <-- SCF
     17  -9.43012750E+004  3.52785747E+000  -1.83821602E-008    7256.96  <-- SCF
     18  -9.43012750E+004  3.52787788E+000  -1.24232874E-009    7537.20  <-- SCF
     19  -9.43012750E+004  3.52791887E+000   3.44160380E-010    7821.21  <-- SCF
------------------------------------------------------------------------ <-- SCF
 
Final energy, E             =  -94301.12404667     eV
Final free energy (E-TS)    =  -94301.27499971     eV
(energies not corrected for finite basis set)
 
NB est. 0K energy (E-0.5TS)      =  -94301.19952319     eV
 
 
+---------------- MEMORY AND SCRATCH DISK ESTIMATES PER PROCESS --------------+
|                                                     Memory          Disk    |
| Model and support data                             3500.3 MB         0.0 MB |
| Electronic energy minimisation requirements        1424.9 MB         0.0 MB |
| Geometry minimisation requirements                 1739.5 MB         0.0 MB |
|                                               ----------------------------- |
| Approx. total storage required per process         6664.7 MB         0.0 MB |
|                                                                             |
| Requirements will fluctuate during execution and may exceed these estimates |
+-----------------------------------------------------------------------------+
 

 ************************************** Forces **************************************
 *                                                                                  *
 *                           Cartesian components (eV/A)                            *
 * -------------------------------------------------------------------------------- *
 *                         x                    y                    z              *
 *                                                                                  *
 * P               1     -0.74889             -0.99224             -0.00000         *
 * P               2      0.93967             -0.91042              0.00000         *
 * P               3      0.27812              0.88408             -0.00000         *
 * P               4     -0.40097              0.18307             -0.00000         *
 * P               5     -0.18361             -0.08764              0.00000         *
 * P               6      0.02605              0.14046              0.00000         *
 * P               7     -0.18394             -0.04248             -0.00000         *
 * P               8      1.36656             -0.95464              0.00000         *
 * P               9      1.36349             -0.89015             -0.00000         *
 * P              10     -0.17116              0.11709             -0.00000         *
 * P              11      0.17506              0.03198              0.00000         *
 * P              12      1.29421             -0.97347              0.00000         *
 * P              13     -0.47900             -0.07653              0.00000         *
 * P              14     -0.37313             -0.25874              0.00000         *
 * P              15     -0.54901             -0.15656             -0.00000         *
 * P              16     -0.14428             -0.40456              0.00000         *
 * P              17      0.00409              0.12704              0.00000         *
 * P              18      0.10066              0.14708              0.00000         *
 * P              19      0.02016              0.16662             -0.00000         *
 * P              20     -0.07985              0.00597             -0.00000         *
 * P              21     -0.28663             -0.26349              0.00000         *
 * P              22     -7.82973             -2.18906             -0.00000         *
 * P              23     -7.49424             -2.01651              0.00000         *
 * P              24     -0.47118              3.55968             -0.00000         *
 * P              25      0.93465             -0.23253             -0.00000         *
 * P              26     -0.93937             -0.26451              0.00000         *
 * P              27     -0.94206             -0.86316             -0.00000         *
 * P              28     -7.57702             -2.54528              0.00000         *
 * P              29     -7.81505             -1.78016             -0.00000         *
 * P              30     -0.33681              3.90609              0.00000         *
 * P              31      0.53782              0.58021             -0.00000         *
 * P              32     -7.25109             -1.80655             -0.00000         *
 * P              33      0.48722              0.73957             -0.00000         *
 * P              34     -0.05855              0.12350             -0.00000         *
 * P              35     -0.09451              0.64762             -0.00000         *
 * P              36     -0.34133             -0.25280             -0.00000         *
 * P              37      0.51675             -0.07293             -0.00000         *
 * P              38     -0.19010             -1.75127              0.00000         *
 * P              39      1.85563             -1.09284             -0.00000         *
 * P              40     -0.11114              0.86522              0.00000         *
 * P              41     -0.03408              0.20419             -0.00000         *
 * P              42      1.25276             -1.01621             -0.00000         *
 * P              43     -0.17347              0.00235              0.00000         *
 * P              44     -0.12063              0.06248              0.00000         *
 * P              45     -0.07632              0.03400              0.00000         *
 * P              46     -0.05436             -0.05783              0.00000         *
 * P              47     -0.27581              0.04311              0.00000         *
 * P              48      0.07561              0.23573              0.00000         *
 * In              1      0.13261              0.76355             -0.00000         *
 * In              2      0.82740              1.04370             -0.00000         *
 * In              3      0.67063             -0.23592              0.00000         *
 * In              4      0.49611              0.00925              0.00000         *
 * In              5      0.03979             -0.03978              0.00000         *
 * In              6     -0.07282             -0.24564             -0.00000         *
 * In              7      0.05306              0.03737             -0.00000         *
 * In              8     -1.55566              0.97536              0.00000         *
 * In              9     -1.64982              0.92178             -0.00000         *
 * In             10      0.19102             -0.03435              0.00000         *
 * In             11      0.34993             -0.07870             -0.00000         *
 * In             12     -1.59558              1.03356              0.00000         *
 * In             13      0.35009             -0.25513              0.00000         *
 * In             14      0.46953              0.17305             -0.00000         *
 * In             15      0.33937              0.34443             -0.00000         *
 * In             16      0.82777              1.30527              0.00000         *
 * In             17      0.29829             -0.05778              0.00000         *
 * In             18      0.31040              0.11008             -0.00000         *
 * In             19      0.02006             -0.12908             -0.00000         *
 * In             20      0.03858             -0.05772             -0.00000         *
 * In             21      0.01024             -0.06208             -0.00000         *
 * In             22     -0.42906             -0.43356              0.00000         *
 * In             23      0.02117             -0.37811              0.00000         *
 * In             24      0.45577             -3.63715             -0.00000         *
 * In             25      0.30014             -1.03969             -0.00000         *
 * In             26     -0.30529             -0.86931             -0.00000         *
 * In             27     -0.94306              1.38965              0.00000         *
 * In             28     -0.17058              0.11303             -0.00000         *
 * In             29      0.04646             -0.71241             -0.00000         *
 * In             30      0.78325             -3.33779              0.00000         *
 * In             31      7.58592              1.95546             -0.00000         *
 * In             32     -0.46588             -0.57433             -0.00000         *
 * In             33      7.19619              1.66433              0.00000         *
 * In             34      0.00578             -0.10906             -0.00000         *
 * In             35      7.77573              1.63859              0.00000         *
 * In             36     -0.03478             -0.12516              0.00000         *
 * In             37      7.26761              2.48506             -0.00000         *
 * In             38     -1.99510              1.31992              0.00000         *
 * In             39     -0.02757              1.67903              0.00000         *
 * In             40     -0.62469             -0.22881             -0.00000         *
 * In             41      7.64249              1.72652             -0.00000         *
 * In             42     -1.43622              1.03428             -0.00000         *
 * In             43      0.44949             -0.10468             -0.00000         *
 * In             44      0.35322              0.26807              0.00000         *
 * In             45      0.09394              0.01358              0.00000         *
 * In             46      0.44505              0.02262              0.00000         *
 * In             47      0.04140             -0.10810             -0.00000         *
 * In             48     -0.02356             -0.02781              0.00000         *
 *                                                                                  *
 ************************************************************************************
 EXP precond LBFGS => estimated nearest neighbor distance :  2.576       A
 EXP precond LBFGS => estimated cutoff distance :  5.153       A

 ************************************** Forces **************************************
 *                                                                                  *
 *                           Cartesian components (eV/A)                            *
 * -------------------------------------------------------------------------------- *
 *                         x                    y                    z              *
 *                                                                                  *
 * P               1     -0.74889             -0.99224             -0.00000         *
 * P               2      0.93967             -0.91042              0.00000         *
 * P               3      0.27812              0.88408             -0.00000         *
 * P               4     -0.40097              0.18307             -0.00000         *
 * P               5     -0.18361             -0.08764              0.00000         *
 * P               6      0.02605              0.14046              0.00000         *
 * P               7     -0.18394             -0.04248             -0.00000         *
 * P               8      1.36656             -0.95464              0.00000         *
 * P               9      1.36349             -0.89015             -0.00000         *
 * P              10     -0.17116              0.11709             -0.00000         *
 * P              11      0.17506              0.03198              0.00000         *
 * P              12      1.29421             -0.97347              0.00000         *
 * P              13     -0.47900             -0.07653              0.00000         *
 * P              14     -0.37313             -0.25874              0.00000         *
 * P              15     -0.54901             -0.15656             -0.00000         *
 * P              16     -0.14428             -0.40456              0.00000         *
 * P              17      0.00409              0.12704              0.00000         *
 * P              18      0.10066              0.14708              0.00000         *
 * P              19      0.02016              0.16662             -0.00000         *
 * P              20     -0.07985              0.00597             -0.00000         *
 * P              21     -0.28663             -0.26349              0.00000         *
 * P              22     -7.82973             -2.18906             -0.00000         *
 * P              23     -7.49424             -2.01651              0.00000         *
 * P              24     -0.47118              3.55968             -0.00000         *
 * P              25      0.93465             -0.23253             -0.00000         *
 * P              26     -0.93937             -0.26451              0.00000         *
 * P              27     -0.94206             -0.86316             -0.00000         *
 * P              28     -7.57702             -2.54528              0.00000         *
 * P              29     -7.81505             -1.78016             -0.00000         *
 * P              30     -0.33681              3.90609              0.00000         *
 * P              31      0.53782              0.58021             -0.00000         *
 * P              32     -7.25109             -1.80655             -0.00000         *
 * P              33      0.48722              0.73957             -0.00000         *
 * P              34     -0.05855              0.12350             -0.00000         *
 * P              35     -0.09451              0.64762             -0.00000         *
 * P              36     -0.34133             -0.25280             -0.00000         *
 * P              37      0.51675             -0.07293             -0.00000         *
 * P              38     -0.19010             -1.75127              0.00000         *
 * P              39      1.85563             -1.09284             -0.00000         *
 * P              40     -0.11114              0.86522              0.00000         *
 * P              41     -0.03408              0.20419             -0.00000         *
 * P              42      1.25276             -1.01621             -0.00000         *
 * P              43     -0.17347              0.00235              0.00000         *
 * P              44     -0.12063              0.06248              0.00000         *
 * P              45     -0.07632              0.03400              0.00000         *
 * P              46     -0.05436             -0.05783              0.00000         *
 * P              47     -0.27581              0.04311              0.00000         *
 * P              48      0.07561              0.23573              0.00000         *
 * In              1      0.13261              0.76355             -0.00000         *
 * In              2      0.82740              1.04370             -0.00000         *
 * In              3      0.67063             -0.23592              0.00000         *
 * In              4      0.49611              0.00925              0.00000         *
 * In              5      0.03979             -0.03978              0.00000         *
 * In              6     -0.07282             -0.24564             -0.00000         *
 * In              7      0.05306              0.03737             -0.00000         *
 * In              8     -1.55566              0.97536              0.00000         *
 * In              9     -1.64982              0.92178             -0.00000         *
 * In             10      0.19102             -0.03435              0.00000         *
 * In             11      0.34993             -0.07870             -0.00000         *
 * In             12     -1.59558              1.03356              0.00000         *
 * In             13      0.35009             -0.25513              0.00000         *
 * In             14      0.46953              0.17305             -0.00000         *
 * In             15      0.33937              0.34443             -0.00000         *
 * In             16      0.82777              1.30527              0.00000         *
 * In             17      0.29829             -0.05778              0.00000         *
 * In             18      0.31040              0.11008             -0.00000         *
 * In             19      0.02006             -0.12908             -0.00000         *
 * In             20      0.03858             -0.05772             -0.00000         *
 * In             21      0.01024             -0.06208             -0.00000         *
 * In             22     -0.42906             -0.43356              0.00000         *
 * In             23      0.02117             -0.37811              0.00000         *
 * In             24      0.45577             -3.63715             -0.00000         *
 * In             25      0.30014             -1.03969             -0.00000         *
 * In             26     -0.30529             -0.86931             -0.00000         *
 * In             27     -0.94306              1.38965              0.00000         *
 * In             28     -0.17058              0.11303             -0.00000         *
 * In             29      0.04646             -0.71241             -0.00000         *
 * In             30      0.78325             -3.33779              0.00000         *
 * In             31      7.58592              1.95546             -0.00000         *
 * In             32     -0.46588             -0.57433             -0.00000         *
 * In             33      7.19619              1.66433              0.00000         *
 * In             34      0.00578             -0.10906             -0.00000         *
 * In             35      7.77573              1.63859              0.00000         *
 * In             36     -0.03478             -0.12516              0.00000         *
 * In             37      7.26761              2.48506             -0.00000         *
 * In             38     -1.99510              1.31992              0.00000         *
 * In             39     -0.02757              1.67903              0.00000         *
 * In             40     -0.62469             -0.22881             -0.00000         *
 * In             41      7.64249              1.72652             -0.00000         *
 * In             42     -1.43622              1.03428             -0.00000         *
 * In             43      0.44949             -0.10468             -0.00000         *
 * In             44      0.35322              0.26807              0.00000         *
 * In             45      0.09394              0.01358              0.00000         *
 * In             46      0.44505              0.02262              0.00000         *
 * In             47      0.04140             -0.10810             -0.00000         *
 * In             48     -0.02356             -0.02781              0.00000         *
 *                                                                                  *
 ************************************************************************************
 doing test perturbation to get energy scale for EXP preconditioner

                           -------------------------------
                                     Cell Contents
                           -------------------------------

            xxxxxxxxxxxxxxxxxxxxxxxxxxxxxxxxxxxxxxxxxxxxxxxxxxxxxxxxxxxxxxxxx
            x  Element         Atom        Fractional coordinates of atoms  x
            x                 Number           u          v          w      x
            x---------------------------------------------------------------x
            x  P                 1         0.284583   0.319264   0.000000   x
            x  P                 2         0.177909   0.217122   0.505196   x
            x  P                 3         0.374280   0.244776   0.505196   x
            x  P                 4         0.510235   0.368509   0.000000   x
            x  P                 5         0.410172   0.112721   0.000000   x
            x  P                 6         0.538842   0.233777   0.505196   x
            x  P                 7         0.575810   0.102859   0.000000   x
            x  P                 8         0.446780   0.961235   0.505196   x
            x  P                 9         0.612180   0.951634   0.505196   x
            x  P                10         0.740446   0.096205   0.000000   x
            x  P                11         0.652243   0.819722   0.000000   x
            x  P                12         0.778822   0.949367   0.505196   x
            x  P                13         0.535854   0.554512   0.000000   x
            x  P                14         0.408552   0.433126   0.505196   x
            x  P                15         0.639767   0.490515   0.505196   x
            x  P                16         0.766898   0.606737   0.000000   x
            x  P                17         0.668187   0.355826   0.000000   x
            x  P                18         0.797406   0.477127   0.505196   x
            x  P                19         0.830293   0.348279   0.000000   x
            x  P                20         0.702501   0.225338   0.505196   x
            x  P                21         0.866213   0.220227   0.505196   x
            x  P                22         0.992585   0.344454   0.000000   x
            x  P                23         0.907694   0.095526   0.000000   x
            x  P                24         0.008424   0.213425   0.505196   x
            x  P                25         0.829751   0.834939   0.000000   x
            x  P                26         0.665514   0.675655   0.505196   x
            x  P                27         0.891688   0.726058   0.505196   x
            x  P                28         0.010381   0.848199   0.000000   x
            x  P                29         0.926681   0.599278   0.000000   x
            x  P                30         0.030944   0.719461   0.505196   x
            x  P                31         0.065772   0.591914   0.000000   x
            x  P                32         0.959122   0.471971   0.505196   x
            x  P                33         0.098368   0.464399   0.505196   x
            x  P                34         0.227878   0.586481   0.000000   x
            x  P                35         0.130622   0.337443   0.000000   x
            x  P                36         0.258613   0.455686   0.505196   x
            x  P                37         0.062015   0.098457   0.000000   x
            x  P                38         0.955679   0.960264   0.505196   x
            x  P                39         0.112765   0.966312   0.505196   x
            x  P                40         0.242748   0.115590   0.000000   x
            x  P                41         0.156412   0.843354   0.000000   x
            x  P                42         0.281731   0.968103   0.505196   x
            x  P                43         0.320876   0.838759   0.000000   x
            x  P                44         0.193897   0.715584   0.505196   x
            x  P                45         0.356789   0.708492   0.505196   x
            x  P                46         0.485341   0.830250   0.000000   x
            x  P                47         0.386943   0.575038   0.000000   x
            x  P                48         0.518109   0.697837   0.505196   x
            x  In                1         0.234010   0.394171   0.000000   x
            x  In                2         0.109187   0.274817   0.505196   x
            x  In                3         0.335397   0.325256   0.505196   x
            x  In                4         0.465072   0.446414   0.000000   x
            x  In                5         0.348653   0.181175   0.000000   x
            x  In                6         0.482812   0.303083   0.505196   x
            x  In                7         0.515572   0.170663   0.000000   x
            x  In                8         0.388704   0.049250   0.505196   x
            x  In                9         0.554124   0.039669   0.505196   x
            x  In               10         0.680047   0.162165   0.000000   x
            x  In               11         0.590723   0.888174   0.000000   x
            x  In               12         0.719187   0.032815   0.505196   x
            x  In               13         0.490690   0.632416   0.000000   x
            x  In               14         0.361158   0.510410   0.505196   x
            x  In               15         0.592372   0.567797   0.505196   x
            x  In               16         0.716322   0.681641   0.000000   x
            x  In               17         0.613984   0.425889   0.000000   x
            x  In               18         0.742303   0.545229   0.505196   x
            x  In               19         0.773044   0.414442   0.000000   x
            x  In               20         0.644137   0.292434   0.505196   x
            x  In               21         0.807028   0.285342   0.505196   x
            x  In               22         0.935139   0.408997   0.000000   x
            x  In               23         0.844515   0.157573   0.000000   x
            x  In               24         0.969974   0.281457   0.505196   x
            x  In               25         0.758123   0.885281   0.000000   x
            x  In               26         0.626627   0.756131   0.505196   x
            x  In               27         0.822968   0.783755   0.505196   x
            x  In               28         0.938816   0.902374   0.000000   x
            x  In               29         0.870266   0.663445   0.000000   x
            x  In               30         0.992421   0.787419   0.505196   x
            x  In               31         0.008326   0.656457   0.000000   x
            x  In               32         0.902532   0.536502   0.505196   x
            x  In               33         0.041779   0.528930   0.505196   x
            x  In               34         0.170629   0.652644   0.000000   x
            x  In               35         0.074208   0.401611   0.000000   x
            x  In               36         0.203510   0.523790   0.505196   x
            x  In               37         0.990543   0.152725   0.000000   x
            x  In               38         0.888161   0.034614   0.505196   x
            x  In               39         0.045134   0.040549   0.505196   x
            x  In               40         0.171116   0.165928   0.000000   x
            x  In               41         0.093233   0.905401   0.000000   x
            x  In               42         0.222033   0.051487   0.505196   x
            x  In               43         0.260477   0.904718   0.000000   x
            x  In               44         0.134712   0.780699   0.505196   x
            x  In               45         0.298426   0.775589   0.505196   x
            x  In               46         0.425103   0.898054   0.000000   x
            x  In               47         0.332740   0.645101   0.000000   x
            x  In               48         0.462077   0.767143   0.505196   x
            xxxxxxxxxxxxxxxxxxxxxxxxxxxxxxxxxxxxxxxxxxxxxxxxxxxxxxxxxxxxxxxxx


------------------------------------------------------------------------ <-- SCF
SCF loop      Energy           Fermi           Energy gain       Timer   <-- SCF
                               energy          per atom          (sec)   <-- SCF
------------------------------------------------------------------------ <-- SCF
Initial  -9.42980374E+004  0.00000000E+000                      8375.66  <-- SCF
      1  -9.43004960E+004  3.52786273E+000   2.56102936E-002    8842.51  <-- SCF
      2  -9.43009061E+004  3.52779579E+000   4.27126675E-003    9276.57  <-- SCF
      3  -9.43009095E+004  3.52753116E+000   3.53850629E-005    9646.05  <-- SCF
      4  -9.43009123E+004  3.52709049E+000   2.91110816E-005   10025.62  <-- SCF
      5  -9.43009126E+004  3.52695737E+000   3.34443018E-006   10448.08  <-- SCF
      6  -9.43009127E+004  3.52682485E+000   7.73677046E-007   10840.28  <-- SCF
      7  -9.43009127E+004  3.52672902E+000  -7.51068802E-009   11178.62  <-- SCF
      8  -9.43009127E+004  3.52660540E+000  -6.90745350E-008   11480.44  <-- SCF
      9  -9.43009127E+004  3.52651296E+000  -3.85594970E-008   11788.21  <-- SCF
     10  -9.43009127E+004  3.52642462E+000  -1.38922206E-008   12086.97  <-- SCF
     11  -9.43009127E+004  3.52639329E+000  -9.51532556E-010   12360.61  <-- SCF
     12  -9.43009127E+004  3.52638135E+000  -5.09537821E-010   12623.73  <-- SCF
------------------------------------------------------------------------ <-- SCF
 
Final energy, E             =  -94300.76235917     eV
Final free energy (E-TS)    =  -94300.91265372     eV
(energies not corrected for finite basis set)
 
NB est. 0K energy (E-0.5TS)      =  -94300.83750645     eV
 

 ************************************** Forces **************************************
 *                                                                                  *
 *                           Cartesian components (eV/A)                            *
 * -------------------------------------------------------------------------------- *
 *                         x                    y                    z              *
 *                                                                                  *
 * P               1     -0.74909             -1.00348              0.30754         *
 * P               2      0.94182             -0.92389             -0.30428         *
 * P               3      0.29192              0.87468             -0.16567         *
 * P               4     -0.38651              0.17766              0.14977         *
 * P               5     -0.17013             -0.09179              0.16555         *
 * P               6      0.03990              0.13460             -0.16830         *
 * P               7     -0.16772             -0.04538              0.16964         *
 * P               8      1.33840             -0.94261             -0.16569         *
 * P               9      1.33649             -0.87823             -0.16613         *
 * P              10     -0.16029              0.11012              0.16803         *
 * P              11      0.18296              0.02294              0.16168         *
 * P              12      1.27773             -0.95275             -0.15788         *
 * P              13     -0.48465             -0.08812              0.24318         *
 * P              14     -0.37866             -0.27189             -0.25013         *
 * P              15     -0.53110             -0.15875             -0.15689         *
 * P              16     -0.13065             -0.40944              0.19301         *
 * P              17      0.01668              0.12092              0.16836         *
 * P              18      0.11264              0.13558             -0.17289         *
 * P              19      0.03223              0.15374              0.17434         *
 * P              20     -0.06562             -0.00184             -0.16840         *
 * P              21     -0.28250             -0.28989             -0.17461         *
 * P              22     -8.30940             -2.29817              0.17635         *
 * P              23     -7.46184             -2.02470              0.20153         *
 * P              24     -0.48381              3.78520             -0.20019         *
 * P              25      0.94871             -0.25538              0.31209         *
 * P              26     -0.94501             -0.27620             -0.31034         *
 * P              27     -0.94623             -0.88010             -0.18028         *
 * P              28     -7.49858             -2.44763              0.20020         *
 * P              29     -8.28151             -1.88740              0.18006         *
 * P              30     -0.35946              4.12832             -0.17497         *
 * P              31      0.57670              0.59024              0.17055         *
 * P              32     -7.70332             -1.91894             -0.17676         *
 * P              33      0.52528              0.75039             -0.16984         *
 * P              34     -0.04227              0.11663              0.17596         *
 * P              35     -0.06309              0.65862              0.17819         *
 * P              36     -0.32559             -0.25436             -0.18627         *
 * P              37      0.56603             -0.00686              0.23540         *
 * P              38     -0.37638             -1.76409             -0.23275         *
 * P              39      1.84474             -1.06500             -0.19023         *
 * P              40     -0.10186              0.85128              0.16182         *
 * P              41     -0.02638              0.19165              0.17570         *
 * P              42      1.21659             -0.99619             -0.16546         *
 * P              43     -0.16131             -0.00574              0.17063         *
 * P              44     -0.11103              0.05653             -0.17224         *
 * P              45     -0.06852              0.02819             -0.16798         *
 * P              46     -0.04336             -0.06634              0.17063         *
 * P              47     -0.26062              0.03772              0.15350         *
 * P              48      0.08668              0.22706             -0.14061         *
 * In              1      0.11510              0.76484              0.15669         *
 * In              2      0.82339              1.05508             -0.14999         *
 * In              3      0.67380             -0.21887             -0.28974         *
 * In              4      0.49843              0.02036              0.22111         *
 * In              5      0.02845             -0.03263              0.13742         *
 * In              6     -0.08228             -0.23820             -0.12035         *
 * In              7      0.03915              0.04257              0.14121         *
 * In              8     -1.51644              0.96356             -0.14006         *
 * In              9     -1.61059              0.90969             -0.14286         *
 * In             10      0.17675             -0.02791              0.14077         *
 * In             11      0.32870             -0.07155              0.14061         *
 * In             12     -1.55719              1.01337             -0.14136         *
 * In             13      0.33548             -0.24935              0.11750         *
 * In             14      0.45276              0.17524             -0.12823         *
 * In             15      0.34212              0.35281             -0.22516         *
 * In             16      0.83029              1.31626              0.28075         *
 * In             17      0.28439             -0.05218              0.12503         *
 * In             18      0.29528              0.11391             -0.16031         *
 * In             19      0.00633             -0.11976              0.14471         *
 * In             20      0.02543             -0.04993             -0.14088         *
 * In             21     -0.00664             -0.05065             -0.14555         *
 * In             22     -0.46639             -0.43381              0.14170         *
 * In             23      0.00621             -0.36929              0.14660         *
 * In             24      0.48841             -3.85140             -0.13961         *
 * In             25      0.28444             -1.02229              0.13663         *
 * In             26     -0.31745             -0.85837             -0.13925         *
 * In             27     -0.95258              1.40362             -0.27950         *
 * In             28     -0.21297              0.05641              0.20935         *
 * In             29      0.01883             -0.72348              0.14850         *
 * In             30      0.81546             -3.57044             -0.16392         *
 * In             31      8.03887              2.05535              0.13600         *
 * In             32     -0.50219             -0.57348             -0.14550         *
 * In             33      7.64361              1.76399             -0.13791         *
 * In             34     -0.00876             -0.09862              0.14349         *
 * In             35      8.26120              1.73690              0.13730         *
 * In             36     -0.05009             -0.11774             -0.14797         *
 * In             37      7.18845              2.41227              0.16356         *
 * In             38     -1.96926              1.28136             -0.16969         *
 * In             39      0.15355              1.68127             -0.20396         *
 * In             40     -0.63195             -0.20693              0.28566         *
 * In             41      7.59201              1.73142              0.16364         *
 * In             42     -1.40281              1.01510             -0.13641         *
 * In             43      0.43205             -0.09301              0.14089         *
 * In             44      0.35021              0.29161             -0.14944         *
 * In             45      0.08266              0.01970             -0.14353         *
 * In             46      0.42421              0.02991              0.14314         *
 * In             47      0.02789             -0.10189              0.13734         *
 * In             48     -0.03534             -0.02176             -0.14337         *
 *                                                                                  *
 ************************************************************************************
 EXP precond LBFGS => estimated parameter mu :  3.828       eV/A**2
 LBFGS: finished iteration     0 with enthalpy= -9.43012750E+004 eV
  
 +-----------+-----------------+-----------------+------------+-----+ <-- LBFGS
 | Parameter |      value      |    tolerance    |    units   | OK? | <-- LBFGS
 +-----------+-----------------+-----------------+------------+-----+ <-- LBFGS
 |  dE/ion   |   0.000000E+000 |   2.000000E-005 |         eV | No  | <-- LBFGS
 |  |F|max   |   8.623151E+000 |   1.000000E-003 |       eV/A | No  | <-- LBFGS
 |  |dR|max  |   5.558934E-015 |   1.000000E-003 |          A | No  | <-- LBFGS
 +-----------+-----------------+-----------------+------------+-----+ <-- LBFGS
  

================================================================================
 Starting LBFGS iteration          1 ...
================================================================================
  
 +------------+-------------+-------------+-----------------+ <-- min LBFGS
 |    Step    |   lambda    |   F.delta'  |    enthalpy     | <-- min LBFGS
 +------------+-------------+-------------+-----------------+ <-- min LBFGS
 |  previous  |    0.000000 |   16.717662 |   -94301.275000 | <-- min LBFGS
 +------------+-------------+-------------+-----------------+ <-- min LBFGS
  

--------------------------------------------------------------------------------
 LBFGS: starting iteration         1 with trial guess (lambda=  0.635137)
--------------------------------------------------------------------------------

                           -------------------------------
                                     Cell Contents
                           -------------------------------

            xxxxxxxxxxxxxxxxxxxxxxxxxxxxxxxxxxxxxxxxxxxxxxxxxxxxxxxxxxxxxxxxx
            x  Element         Atom        Fractional coordinates of atoms  x
            x                 Number           u          v          w      x
            x---------------------------------------------------------------x
            x  P                 1         0.284506   0.319519   0.000000   x
            x  P                 2         0.180880   0.219062   0.500000   x
            x  P                 3         0.375862   0.243645   0.500000   x
            x  P                 4         0.509015   0.366851  -0.000000   x
            x  P                 5         0.409555   0.110736   0.000000   x
            x  P                 6         0.537535   0.231800   0.500000   x
            x  P                 7         0.573282   0.100103  -0.000000   x
            x  P                 8         0.447828   0.963768   0.500000   x
            x  P                 9         0.611453   0.953418   0.500000   x
            x  P                10         0.736185   0.092374  -0.000000   x
            x  P                11         0.650784   0.820823   0.000000   x
            x  P                12         0.776144   0.950227   0.500000   x
            x  P                13         0.534558   0.553614   0.000000   x
            x  P                14         0.408532   0.433068   0.500000   x
            x  P                15         0.636845   0.488506   0.500000   x
            x  P                16         0.763154   0.605067   0.000000   x
            x  P                17         0.665639   0.353734  -0.000000   x
            x  P                18         0.793337   0.474519   0.500000   x
            x  P                19         0.825836   0.345352  -0.000000   x
            x  P                20         0.699193   0.222697   0.500000   x
            x  P                21         0.861558   0.217556   0.500000   x
            x  P                22         0.983589   0.338831  -0.000000   x
            x  P                23         0.897478   0.086880   0.000000   x
            x  P                24         0.011375   0.209957   0.500000   x
            x  P                25         0.827709   0.835700  -0.000000   x
            x  P                26         0.662485   0.673916   0.500000   x
            x  P                27         0.886689   0.724842   0.500000   x
            x  P                28         0.002988   0.845500   0.000000   x
            x  P                29         0.917343   0.592881  -0.000000   x
            x  P                30         0.034807   0.717978   0.500000   x
            x  P                31         0.070732   0.593948  -0.000000   x
            x  P                32         0.950113   0.465939   0.500000   x
            x  P                33         0.103385   0.466415   0.500000   x
            x  P                34         0.230847   0.587804  -0.000000   x
            x  P                35         0.134656   0.337795  -0.000000   x
            x  P                36         0.260565   0.456348   0.500000   x
            x  P                37         0.065010   0.098830  -0.000000   x
            x  P                38         0.952148   0.960114   0.500000   x
            x  P                39         0.117414   0.971838   0.500000   x
            x  P                40         0.244890   0.113876   0.000000   x
            x  P                41         0.160586   0.846507  -0.000000   x
            x  P                42         0.284524   0.971492   0.500000   x
            x  P                43         0.323030   0.840768   0.000000   x
            x  P                44         0.197155   0.717127   0.500000   x
            x  P                45         0.358193   0.709616   0.500000   x
            x  P                46         0.485685   0.831741   0.000000   x
            x  P                47         0.387634   0.575383   0.000000   x
            x  P                48         0.517760   0.698247   0.500000   x
            x  In                1         0.237227   0.394354  -0.000000   x
            x  In                2         0.113780   0.274759   0.500000   x
            x  In                3         0.336736   0.326098   0.500000   x
            x  In                4         0.465106   0.446383   0.000000   x
            x  In                5         0.349464   0.179855   0.000000   x
            x  In                6         0.482041   0.301823   0.500000   x
            x  In                7         0.514233   0.168498  -0.000000   x
            x  In                8         0.388007   0.046194   0.500000   x
            x  In                9         0.551386   0.035777   0.500000   x
            x  In               10         0.676975   0.159447  -0.000000   x
            x  In               11         0.590365   0.889806   0.000000   x
            x  In               12         0.714821   0.027988   0.500000   x
            x  In               13         0.490635   0.633148   0.000000   x
            x  In               14         0.362905   0.511235   0.500000   x
            x  In               15         0.591174   0.566717   0.500000   x
            x  In               16         0.715854   0.680175   0.000000   x
            x  In               17         0.612202   0.424566  -0.000000   x
            x  In               18         0.739312   0.543458   0.500000   x
            x  In               19         0.769157   0.412033  -0.000000   x
            x  In               20         0.641713   0.290359   0.500000   x
            x  In               21         0.802816   0.282724   0.500000   x
            x  In               22         0.929501   0.405890  -0.000000   x
            x  In               23         0.839336   0.153797   0.000000   x
            x  In               24         0.965779   0.281895   0.500000   x
            x  In               25         0.755336   0.886981   0.000000   x
            x  In               26         0.623938   0.756501   0.500000   x
            x  In               27         0.819901   0.780705   0.500000   x
            x  In               28         0.935559   0.901815   0.000000   x
            x  In               29         0.865469   0.661910  -0.000000   x
            x  In               30         0.989406   0.790114   0.500000   x
            x  In               31         0.016170   0.660936  -0.000000   x
            x  In               32         0.896783   0.533304   0.500000   x
            x  In               33         0.049791   0.533924   0.500000   x
            x  In               34         0.174306   0.654506  -0.000000   x
            x  In               35         0.082565   0.406936  -0.000000   x
            x  In               36         0.206779   0.525340   0.500000   x
            x  In               37         0.996916   0.154480   0.000000   x
            x  In               38         0.882544   0.027853   0.500000   x
            x  In               39         0.047630   0.039835   0.500000   x
            x  In               40         0.172679   0.165389   0.000000   x
            x  In               41         0.102463   0.913537  -0.000000   x
            x  In               42         0.223658   0.049661   0.500000   x
            x  In               43         0.264011   0.908005   0.000000   x
            x  In               44         0.138677   0.782535   0.500000   x
            x  In               45         0.300815   0.777328   0.500000   x
            x  In               46         0.426802   0.900278   0.000000   x
            x  In               47         0.334359   0.646236  -0.000000   x
            x  In               48         0.462450   0.768201   0.500000   x
            xxxxxxxxxxxxxxxxxxxxxxxxxxxxxxxxxxxxxxxxxxxxxxxxxxxxxxxxxxxxxxxxx


------------------------------------------------------------------------ <-- SCF
SCF loop      Energy           Fermi           Energy gain       Timer   <-- SCF
                               energy          per atom          (sec)   <-- SCF
------------------------------------------------------------------------ <-- SCF
Initial  -9.41596500E+004  0.00000000E+000                     12942.68  <-- SCF
      1  -9.42985466E+004  3.48136447E+000   1.44683955E+000   13417.59  <-- SCF
      2  -9.43112008E+004  3.48192607E+000   1.31814457E-001   13976.77  <-- SCF
      3  -9.43112999E+004  3.48968584E+000   1.03226924E-003   14377.75  <-- SCF
      4  -9.43113314E+004  3.49781267E+000   3.28671499E-004   14774.20  <-- SCF
      5  -9.43113281E+004  3.49940478E+000  -3.43052956E-005   15217.69  <-- SCF
      6  -9.43113213E+004  3.50062004E+000  -7.13379728E-005   15621.51  <-- SCF
      7  -9.43113131E+004  3.50186216E+000  -8.57452784E-005   16023.24  <-- SCF
      8  -9.43113047E+004  3.50342898E+000  -8.66610725E-005   16418.13  <-- SCF
      9  -9.43113015E+004  3.50413281E+000  -3.36413842E-005   16818.16  <-- SCF
     10  -9.43113014E+004  3.50364593E+000  -1.62260766E-006   17227.74  <-- SCF
     11  -9.43113013E+004  3.50342547E+000  -2.48733987E-007   17579.28  <-- SCF
     12  -9.43113013E+004  3.50323311E+000  -6.59687132E-008   17917.86  <-- SCF
     13  -9.43113013E+004  3.50316561E+000  -4.05155396E-009   18221.16  <-- SCF
     14  -9.43113013E+004  3.50312170E+000  -1.00322106E-009   18487.90  <-- SCF
------------------------------------------------------------------------ <-- SCF
 
Final energy, E             =  -94311.15391250     eV
Final free energy (E-TS)    =  -94311.30133218     eV
(energies not corrected for finite basis set)
 
NB est. 0K energy (E-0.5TS)      =  -94311.22762234     eV
 

 ************************************** Forces **************************************
 *                                                                                  *
 *                           Cartesian components (eV/A)                            *
 * -------------------------------------------------------------------------------- *
 *                         x                    y                    z              *
 *                                                                                  *
 * P               1     -0.65250             -0.47689             -0.00000         *
 * P               2      0.80639             -0.21316             -0.00000         *
 * P               3      0.07435              0.34076              0.00000         *
[...]
  P              10     1.738   3.934   0.000   0.000   5.672    -0.672
  P              11     1.758   3.891   0.000   0.000   5.649    -0.649
  P              12     1.743   3.920   0.000   0.000   5.663    -0.663
  P              13     1.740   3.931   0.000   0.000   5.671    -0.671
  P              14     1.745   3.921   0.000   0.000   5.666    -0.666
  P              15     1.736   3.942   0.000   0.000   5.677    -0.677
  P              16     1.730   3.946   0.000   0.000   5.676    -0.676
  P              17     1.735   3.939   0.000   0.000   5.674    -0.674
  P              18     1.731   3.946   0.000   0.000   5.677    -0.677
  P              19     1.731   3.946   0.000   0.000   5.677    -0.677
  P              20     1.736   3.938   0.000   0.000   5.674    -0.674
  P              21     1.733   3.943   0.000   0.000   5.676    -0.676
  P              22     1.729   3.948   0.000   0.000   5.677    -0.677
  P              23     1.736   3.934   0.000   0.000   5.670    -0.670
  P              24     1.731   3.942   0.000   0.000   5.673    -0.673
  P              25     1.744   3.895   0.000   0.000   5.640    -0.640
  P              26     1.740   3.909   0.000   0.000   5.649    -0.649
  P              27     1.731   3.933   0.000   0.000   5.664    -0.664
  P              28     1.734   3.940   0.000   0.000   5.674    -0.674
  P              29     1.729   3.949   0.000   0.000   5.678    -0.678
  P              30     1.732   3.945   0.000   0.000   5.677    -0.677
  P              31     1.730   3.947   0.000   0.000   5.677    -0.677
  P              32     1.730   3.948   0.000   0.000   5.677    -0.677
  P              33     1.727   3.951   0.000   0.000   5.678    -0.678
  P              34     1.732   3.942   0.000   0.000   5.674    -0.674
  P              35     1.722   3.957   0.000   0.000   5.678    -0.678
  P              36     1.731   3.932   0.000   0.000   5.663    -0.663
  P              37     1.746   3.918   0.000   0.000   5.665    -0.665
  P              38     1.739   3.930   0.000   0.000   5.669    -0.669
  P              39     1.738   3.934   0.000   0.000   5.671    -0.671
  P              40     1.748   3.916   0.000   0.000   5.664    -0.664
  P              41     1.735   3.938   0.000   0.000   5.673    -0.673
  P              42     1.740   3.930   0.000   0.000   5.669    -0.669
  P              43     1.739   3.931   0.000   0.000   5.670    -0.670
  P              44     1.733   3.942   0.000   0.000   5.675    -0.675
  P              45     1.738   3.932   0.000   0.000   5.670    -0.670
  P              46     1.744   3.921   0.000   0.000   5.665    -0.665
  P              47     1.738   3.927   0.000   0.000   5.665    -0.665
  P              48     1.744   3.914   0.000   0.000   5.658    -0.658
  In              1     0.916   1.437   9.988   0.000  12.342     0.658
  In              2     0.900   1.453   9.988   0.000  12.341     0.659
  In              3     0.936   1.404   9.991   0.000  12.330     0.670
  In              4     0.901   1.428   9.990   0.000  12.319     0.681
  In              5     0.929   1.414   9.991   0.000  12.334     0.666
  In              6     0.917   1.431   9.990   0.000  12.339     0.661
  In              7     0.908   1.435   9.990   0.000  12.333     0.667
  In              8     0.916   1.431   9.990   0.000  12.338     0.662
  In              9     0.917   1.435   9.990   0.000  12.342     0.658
  In             10     0.900   1.442   9.989   0.000  12.331     0.669
  In             11     0.926   1.428   9.991   0.000  12.345     0.655
  In             12     0.910   1.444   9.990   0.000  12.344     0.656
  In             13     0.924   1.418   9.990   0.000  12.332     0.668
  In             14     0.908   1.429   9.990   0.000  12.327     0.673
  In             15     0.907   1.429   9.989   0.000  12.324     0.676
  In             16     1.013   1.557   9.989   0.000  12.559     0.441
  In             17     0.898   1.444   9.989   0.000  12.332     0.668
  In             18     0.879   1.460   9.988   0.000  12.327     0.673
  In             19     0.879   1.452   9.988   0.000  12.319     0.681
  In             20     0.897   1.442   9.989   0.000  12.329     0.671
  In             21     0.890   1.447   9.989   0.000  12.326     0.674
  In             22     0.875   1.452   9.988   0.000  12.316     0.684
  In             23     0.892   1.445   9.989   0.000  12.326     0.674
  In             24     0.884   1.445   9.989   0.000  12.318     0.682
  In             25     0.914   1.429   9.990   0.000  12.334     0.666
  In             26     0.921   1.419   9.991   0.000  12.331     0.669
  In             27     1.000   1.558   9.989   0.000  12.547     0.453
  In             28     0.920   1.442   9.989   0.000  12.352     0.648
  In             29     0.858   1.453   9.988   0.000  12.300     0.700
  In             30     0.876   1.453   9.988   0.000  12.317     0.683
  In             31     0.883   1.449   9.988   0.000  12.320     0.680
  In             32     0.877   1.451   9.988   0.000  12.317     0.683
  In             33     0.875   1.451   9.988   0.000  12.315     0.685
  In             34     0.886   1.447   9.989   0.000  12.322     0.678
  In             35     0.866   1.453   9.988   0.000  12.307     0.693
  In             36     0.886   1.448   9.988   0.000  12.322     0.678
  In             37     0.890   1.443   9.989   0.000  12.321     0.679
  In             38     0.902   1.440   9.989   0.000  12.332     0.668
  In             39     0.906   1.440   9.990   0.000  12.336     0.664
  In             40     0.937   1.401   9.991   0.000  12.329     0.671
  In             41     0.905   1.442   9.989   0.000  12.336     0.664
  In             42     0.920   1.432   9.990   0.000  12.342     0.658
  In             43     0.908   1.436   9.990   0.000  12.334     0.666
  In             44     0.888   1.446   9.989   0.000  12.324     0.676
  In             45     0.901   1.442   9.989   0.000  12.333     0.667
  In             46     0.915   1.435   9.990   0.000  12.340     0.660
  In             47     0.898   1.443   9.989   0.000  12.329     0.671
  In             48     0.918   1.444   9.990   0.000  12.352     0.648
==========================================================================

                 Bond                   Population      Length (A)
======================================================================
              P 1  -- P 2                    0.55        2.24124
              P 35 -- In 1                   0.58        2.49854
              P 24 -- In 2                   0.61        2.50425
              P 35 -- In 2                   1.38        2.50608
              P 27 -- In 30                  0.62        2.51091
              P 36 -- In 14                  0.54        2.51582
              P 22 -- In 35                  0.58        2.51872
              P 35 -- In 35                  0.55        2.52085
              P 1  -- In 3                   1.23        2.52110
              P 33 -- In 36                  0.58        2.52594
              P 33 -- In 33                  0.55        2.52820
              P 33 -- In 35                  1.39        2.52839
              P 16 -- In 29                  0.56        2.52877
              P 29 -- In 29                  0.55        2.52878
              P 16 -- In 18                  1.43        2.52897
              P 29 -- In 31                  0.58        2.52931
              P 19 -- In 22                  0.57        2.52991
              P 18 -- In 32                  0.56        2.53141
              P 30 -- In 44                  0.58        2.53151
              P 36 -- In 1                   1.39        2.53203
              P 21 -- In 24                  0.57        2.53285
              P 31 -- In 34                  0.57        2.53319
              P 32 -- In 32                  0.55        2.53319
              P 34 -- In 47                  0.56        2.53332
              P 27 -- In 29                  1.39        2.53372
              P 32 -- In 33                  0.58        2.53390
              P 31 -- In 31                  0.55        2.53409
              P 24 -- In 37                  1.34        2.53456
              P 14 -- In 4                   1.29        2.53556
              P 17 -- In 19                  0.55        2.53580
              P 22 -- In 22                  0.56        2.53640
              P 15 -- In 18                  0.50        2.53660
              P 2  -- In 40                  1.17        2.53689
              P 29 -- In 32                  1.36        2.53851
              P 44 -- In 45                  0.56        2.53964
              P 13 -- In 15                  1.29        2.53998
              P 20 -- In 21                  0.56        2.54086
              P 18 -- In 18                  0.56        2.54186
              P 28 -- In 41                  0.59        2.54195
              P 47 -- In 13                  0.55        2.54238
              P 19 -- In 19                  0.57        2.54276
              P 31 -- In 33                  1.37        2.54373
              P 22 -- In 24                  1.37        2.54388
              P 28 -- In 30                  1.31        2.54446
              P 34 -- In 34                  0.55        2.54527
              P 30 -- In 30                  0.55        2.54565
              P 34 -- In 36                  1.36        2.54632
              P 41 -- In 43                  0.57        2.54639
              P 15 -- In 17                  1.41        2.54657
              P 18 -- In 19                  1.37        2.54675
              P 30 -- In 31                  1.35        2.54721
              P 45 -- In 48                  0.54        2.54744
              P 6  -- In 20                  0.54        2.54819
              P 23 -- In 37                  0.57        2.54847
              P 32 -- In 22                  1.37        2.54849
              P 36 -- In 36                  0.53        2.54904
              P 44 -- In 44                  0.56        2.54956
              P 10 -- In 23                  0.56        2.54985
              P 25 -- In 28                  0.57        2.55007
              P 4  -- In 17                  0.49        2.55112
              P 7  -- In 10                  0.55        2.55129
              P 19 -- In 21                  1.35        2.55183
              P 8  -- In 9                   0.54        2.55236
              P 21 -- In 21                  0.57        2.55246
              P 21 -- In 23                  1.34        2.55267
              P 3  -- In 5                   1.29        2.55289
              P 44 -- In 34                  1.34        2.55390
              P 25 -- In 25                  0.58        2.55428
              P 42 -- In 8                   0.55        2.55438
              P 43 -- In 46                  0.55        2.55507
              P 39 -- In 39                  0.57        2.55588
              P 26 -- In 16                  1.27        2.55630
              P 4  -- In 6                   1.37        2.55632
              P 23 -- In 38                  1.32        2.55658
              P 41 -- In 44                  1.33        2.55662
              P 17 -- In 20                  1.35        2.55745
              P 24 -- In 24                  0.52        2.55785
              P 23 -- In 23                  0.55        2.55801
              P 41 -- In 41                  0.56        2.55814
              P 39 -- In 41                  1.29        2.55828
              P 37 -- In 39                  1.25        2.55831
              P 38 -- In 28                  1.26        2.55836
              P 38 -- In 38                  0.56        2.55868
              P 39 -- In 42                  0.57        2.55927
              P 47 -- In 14                  1.34        2.55937
              P 5  -- In 7                   0.53        2.55941
              P 28 -- In 28                  0.56        2.56025
              P 9  -- In 12                  0.54        2.56090
              P 12 -- In 12                  0.57        2.56093
              P 17 -- In 17                  0.57        2.56101
              P 20 -- In 10                  1.33        2.56152
              P 20 -- In 20                  0.57        2.56326
              P 45 -- In 47                  1.34        2.56353
              P 45 -- In 45                  0.56        2.56410
              P 25 -- In 27                  1.25        2.56426
              P 38 -- In 39                  0.58        2.56566
              P 43 -- In 45                  1.32        2.56633
              P 48 -- In 48                  0.57        2.56635
              P 6  -- In 7                   1.33        2.56680
              P 47 -- In 47                  0.56        2.56738
              P 10 -- In 12                  1.31        2.56739
              P 10 -- In 10                  0.58        2.56777
              P 40 -- In 40                  0.58        2.56807
              P 37 -- In 37                  0.55        2.56883
              P 5  -- In 8                   1.31        2.56970
              P 48 -- In 26                  0.53        2.57009
              P 42 -- In 43                  1.31        2.57039
              P 42 -- In 42                  0.57        2.57168
              P 3  -- In 6                   0.50        2.57323
              P 8  -- In 46                  1.31        2.57336
              P 6  -- In 6                   0.57        2.57352
              P 12 -- In 38                  0.58        2.57375
              P 43 -- In 43                  0.56        2.57381
              P 46 -- In 11                  0.54        2.57466
              P 26 -- In 15                  0.60        2.57567
              P 27 -- In 27                  0.53        2.57613
              P 46 -- In 48                  1.31        2.57679
              P 7  -- In 9                   1.31        2.57764
              P 48 -- In 13                  1.31        2.57810
              P 12 -- In 25                  1.26        2.58183
              P 9  -- In 11                  1.30        2.58286
              P 40 -- In 42                  1.26        2.58477
              P 3  -- In 3                   0.55        2.58510
              P 15 -- In 15                  0.55        2.58918
              P 46 -- In 46                  0.56        2.58962
              P 7  -- In 7                   0.57        2.59013
              P 11 -- In 26                  1.26        2.59151
              P 4  -- In 4                   0.55        2.59163
              P 16 -- In 16                  0.52        2.59263
              P 2  -- In 2                   0.53        2.59271
              P 8  -- In 8                   0.57        2.59290
              P 37 -- In 40                  0.59        2.59441
              P 40 -- In 5                   0.52        2.59475
              P 26 -- In 26                  0.55        2.59569
              P 9  -- In 9                   0.56        2.59738
              P 5  -- In 5                   0.57        2.59951
              P 13 -- In 13                  0.53        2.60344
              P 13 -- In 4                   0.59        2.60619
              P 14 -- In 14                  0.51        2.61537
              P 11 -- In 11                  0.56        2.61565
              P 1  -- In 1                   0.47        2.62861
              P 14 -- In 3                   0.59        2.63240
              P 11 -- In 25                  0.53        2.63491
             In 16 -- In 27                 -0.25        2.82799
======================================================================

 Hirshfeld supercell size:           1           1           4
Standard grid dimensions: 250 250 180
Fine grid dimensions:     250 250 180


     Hirshfeld Analysis
     ------------------
Species   Ion     Hirshfeld Charge (e)
======================================
  P        1                -0.15
  P        2                -0.14
  P        3                -0.24
  P        4                -0.25
  P        5                -0.24
  P        6                -0.24
  P        7                -0.24
  P        8                -0.24
  P        9                -0.24
  P       10                -0.24
  P       11                -0.23
  P       12                -0.24
  P       13                -0.24
  P       14                -0.24
  P       15                -0.24
  P       16                -0.25
  P       17                -0.24
  P       18                -0.24
  P       19                -0.24
  P       20                -0.24
  P       21                -0.24
  P       22                -0.24
  P       23                -0.24
  P       24                -0.24
  P       25                -0.24
  P       26                -0.25
  P       27                -0.24
  P       28                -0.24
  P       29                -0.24
  P       30                -0.24
  P       31                -0.24
  P       32                -0.24
  P       33                -0.24
  P       34                -0.24
  P       35                -0.25
  P       36                -0.24
  P       37                -0.24
  P       38                -0.24
  P       39                -0.24
  P       40                -0.24
  P       41                -0.24
  P       42                -0.24
  P       43                -0.24
  P       44                -0.24
  P       45                -0.24
  P       46                -0.24
  P       47                -0.24
  P       48                -0.24
  In       1                 0.24
  In       2                 0.23
  In       3                 0.25
  In       4                 0.24
  In       5                 0.25
  In       6                 0.24
  In       7                 0.24
  In       8                 0.24
  In       9                 0.24
  In      10                 0.24
  In      11                 0.24
  In      12                 0.23
  In      13                 0.25
  In      14                 0.25
  In      15                 0.24
  In      16                 0.14
  In      17                 0.24
  In      18                 0.23
  In      19                 0.24
  In      20                 0.24
  In      21                 0.24
  In      22                 0.24
  In      23                 0.24
  In      24                 0.24
  In      25                 0.24
  In      26                 0.25
  In      27                 0.15
  In      28                 0.23
  In      29                 0.23
  In      30                 0.23
  In      31                 0.24
  In      32                 0.24
  In      33                 0.24
  In      34                 0.24
  In      35                 0.24
  In      36                 0.24
  In      37                 0.24
  In      38                 0.24
  In      39                 0.24
  In      40                 0.25
  In      41                 0.24
  In      42                 0.24
  In      43                 0.24
  In      44                 0.24
  In      45                 0.24
  In      46                 0.24
  In      47                 0.24
  In      48                 0.23
======================================


Writing analysis data to DFT_Quads_1.castep_bin
 
 A BibTeX formatted list of references used in this run has been written to 
 DFT_Quads_1.bib
 
Initialisation time =     27.94 s
Calculation time    =  37310.91 s
Finalisation time   =     92.38 s
Total time          =  37431.24 s
Peak Memory Use     = 12020140 kB
 
Overall parallel efficiency rating: Poor (37%)
 
Data was distributed by:-
G-vector (4-way); efficiency rating: Poor (40%)
k-point (20-way); efficiency rating: Very good (85%)
