65
Lattice="11.80255 0.0 0.0 0.0 11.80255 0.0 0.0 0.0 11.80255" Properties=species:S:1:pos:R:3:mulliken_charges:R:1 fermi_energy=4.781312370495001 core_to_fermi_energy=16.851734769525017 config_type=Interstitial energy=-273.280623095012 pbc="T T T"
P        1.47531875       1.47531875       4.42363817      -0.63200000
P        4.42363817       1.47531875       1.47531875      -0.63200000
P        1.47531875       4.42363817       1.47531875      -0.63200000
P        4.42561363       4.42561363       4.42561363      -0.67300000
P        1.47531875       1.47531875      10.32954933      -0.63200000
P        4.42444484       1.47531875       7.37659375      -0.67100000
P        1.47531875       4.42444484       7.37659375      -0.67100000
P        4.54259363       4.54259363      10.21059387      -0.67000000
P        1.47531875       7.37659375       4.42444484      -0.67100000
P        4.42444484       7.37659375       1.47531875      -0.67100000
P        1.47531875      10.32954933       1.47531875      -0.63200000
P        4.54259363      10.21059387       4.54259363      -0.67000000
P        1.47531875       7.37659375      10.32874266      -0.67100000
P        4.43899314       7.37659375       7.37659375      -0.67400000
P        1.47531875      10.32874266       7.37659375      -0.67100000
P        4.42561363      10.32757387      10.32757387      -0.67300000
P        7.37659375       1.47531875       4.42444484      -0.67100000
P       10.32954933       1.47531875       1.47531875      -0.63200000
P        7.37659375       4.42444484       1.47531875      -0.67100000
P       10.21059387       4.54259363       4.54259363      -0.67000000
P        7.37659375       1.47531875      10.32874266      -0.67100000
P       10.32874266       1.47531875       7.37659375      -0.67100000
P        7.37659375       4.43899314       7.37659375      -0.67400000
P       10.32757387       4.42561363      10.32757387      -0.67300000
P        7.37659375       7.37659375       4.43899314      -0.67400000
P       10.32874266       7.37659375       1.47531875      -0.67100000
P        7.37659375      10.32874266       1.47531875      -0.67100000
P       10.32757387      10.32757387       4.42561363      -0.67300000
P        7.37659375       7.37659375      10.31419436      -0.67400000
P       10.31419436       7.37659375       7.37659375      -0.67400000
P        7.37659375      10.31419436       7.37659375      -0.67400000
P       10.21059387      10.21059387      10.21059387      -0.67000000
In      -0.17245682      -0.17245682      -0.17245682       0.61300000
In       3.12309432      -0.17245682       3.12309432       0.61300000
In      -0.17245682       3.12309432       3.12309432       0.61300000
In       3.12309432       3.12309432      -0.17245682       0.61300000
In      -0.01118053      -0.01118053       5.90725644       0.66000000
In       2.96181803      -0.01118053       8.84593106       0.66000000
In      -0.01118053       2.96181803       8.84593106       0.66100000
In       2.96181803       2.96181803       5.90725644       0.66000000
In      -0.01118053       5.90725644      -0.01118053       0.66000000
In       2.96181803       5.90725644       2.96181803       0.66000000
In      -0.01118053       8.84593106       2.96181803       0.66100000
In       2.96181803       8.84593106      -0.01118053       0.66100000
In       0.01918847       5.93638680       5.93638680       0.65700000
In       2.93144903       5.93638680       8.81680070       0.65700000
In       0.01918847       8.81680070       8.81680070       0.65700000
In       2.93144903       8.81680070       5.93638680       0.65700000
In       5.90725644      -0.01118053      -0.01118053       0.66000000
In       8.84593106      -0.01118053       2.96181803       0.66000000
In       5.90725644       2.96181803       2.96181803       0.66000000
In       8.84593106       2.96181803      -0.01118053       0.66100000
In       5.93638680       0.01918847       5.93638680       0.65700000
In       8.81680070       0.01918847       8.81680070       0.65700000
In       5.93638680       2.93144903       8.81680070       0.65700000
In       8.81680070       2.93144903       5.93638680       0.65700000
In       5.93638680       5.93638680       0.01918847       0.65700000
In       8.81680070       5.93638680       2.93144903       0.65700000
In       5.93638680       8.81680070       2.93144903       0.65700000
In       8.81680070       8.81680070       0.01918847       0.65700000
In       5.89781362       5.89781362       5.89781362       0.66500000
In       8.85537388       5.89781362       8.85537388       0.66500000
In       5.89781362       8.85537388       8.85537388       0.66500000
In       8.85537388       8.85537388       5.89781362       0.66500000
In       1.47531875       1.47531875       1.47531875       0.34500000
65
Lattice="11.80255 0.0 0.0 0.0 11.80255 0.0 0.0 0.0 11.80255" Properties=species:S:1:pos:R:3:mulliken_charges:R:1 fermi_energy=4.781312370495001 core_to_fermi_energy=16.851734769525017 config_type=Interstitial energy=-273.26948180956543 pbc="T T T"
P        1.50980067       1.44083683       4.42076605      -0.63200000
P        4.44003519       1.46606506       1.47282611      -0.63200000
P        1.50980067       4.41400500       1.44759788      -0.63200000
P        4.42770119       4.42101191       4.42777296      -0.67300000
P        1.48457244       1.46606506      10.31991336      -0.63200000
P        4.43957581       1.46081639       7.37193186      -0.67100000
P        1.48396008       4.41095184       7.37282282      -0.67100000
P        4.57337491       4.53954102      10.18657364      -0.67000000
P        1.48396008       7.36606177       4.41771289      -0.67100000
P        4.43957581       7.36517081       1.46757744      -0.67100000
P        1.48457244      10.31315231       1.47282611      -0.63200000
P        4.57337491      10.17981259       4.54630207      -0.67000000
P        1.48982111       7.36517081      10.32037274      -0.67100000
P        4.45517785       7.36468249       7.37144354      -0.67400000
P        1.48982111      10.31361169       7.37193186      -0.67100000
P        4.43405447      10.31913303      10.32589408      -0.67300000
P        7.38712573       1.46667742       4.41771289      -0.67100000
P       10.33918250       1.44083683       1.44759788      -0.63200000
P        7.38712573       4.41095184       1.47343847      -0.67100000
P       10.27482573       4.47836177       4.48512282      -0.67000000
P        7.38801669       1.46081639      10.32037274      -0.67100000
P       10.34223566       1.46667742       7.37282282      -0.67100000
P        7.40454460       4.42247807       7.35540395      -0.67400000
P       10.33217559       4.42101191      10.33224736      -0.67300000
P        7.40454460       7.34864290       4.42923912      -0.67400000
P       10.34223566       7.36606177       1.47343847      -0.67100000
P        7.38801669      10.31361169       1.46757744      -0.67100000
P       10.33217559      10.32548631       4.42777296      -0.67300000
P        7.38850501       7.36468249      10.30477071      -0.67400000
P       10.33070943       7.34864290       7.35540395      -0.67400000
P        7.38850501      10.29800965       7.37144354      -0.67400000
P       10.21364648      10.17981259      10.18657364      -0.67000000
In      -0.17838950      -0.20117336      -0.19441231       0.61300000
In       3.15181086      -0.20117336       3.13578805       0.61300000
In      -0.10197619       3.05261369       3.05937474       0.61300000
In       3.15181086       3.12902700      -0.19441231       0.61300000
In       0.00541841      -0.02011356       5.90801173       0.66000000
In       2.97312019      -0.02248269       8.84069058       0.66000000
In      -0.01106225       2.96169975       8.84698300       0.66100000
In       2.97075106       2.94521909       5.90801173       0.66000000
In       0.00541841       5.90125067      -0.01335251       0.66000000
In       2.97075106       5.90125067       2.95198014       0.66000000
In      -0.01106225       8.84022195       2.96846080       0.66100000
In       2.97312019       8.83392953      -0.01572164       0.66100000
In       0.02819182       5.90185517       5.90861622       0.65700000
In       2.94332645       5.92555297       8.80601050       0.65700000
In       0.03218555       8.79089783       8.79765889       0.65700000
In       2.94332645       8.79924945       5.93231402       0.65700000
In       5.91925797      -0.02248269      -0.01572164       0.66000000
In       8.85193683      -0.02011356       2.95198014       0.66000000
In       5.91296555       2.96169975       2.96846080       0.66000000
In       8.85193683       2.94521909      -0.01335251       0.66100000
In       5.95393805       0.00731105       5.93231402       0.65700000
In       8.82763453       0.00731105       8.80601050       0.65700000
In       5.96228967       2.91845195       8.79765889       0.65700000
In       8.85133233       2.92244568       5.90861622       0.65700000
In       5.95393805       5.92555297       0.01407211       0.65700000
In       8.85133233       5.90185517       2.92920673       0.65700000
In       5.96228967       8.79089783       2.92521300       0.65700000
In       8.82763453       8.79924945       0.01407211       0.65700000
In       5.91475186       5.88597900       5.89274005       0.66500000
In       8.86720850       5.88597900       8.84519669       0.66500000
In       5.90581390       8.84737360       8.85413465       0.66500000
In       8.86720850       8.83843564       5.89274005       0.66500000
In       1.54726934       1.40336816       1.41012921       0.34500000
65
Lattice="11.80255 0.0 0.0 0.0 11.80255 0.0 0.0 0.0 11.80255" Properties=species:S:1:pos:R:3:mulliken_charges:R:1 fermi_energy=4.781312370495001 core_to_fermi_energy=16.851734769525017 config_type=Interstitial energy=-273.2150220197027 pbc="T T T"
P        1.53264618       1.41799132       4.43440005      -0.63200000
P        4.45205743       1.47363474       1.48242141      -0.63200000
P        1.53264618       4.42561338       1.42677799      -0.63200000
P        4.42003863       4.43135641       4.44014308      -0.67300000
P        1.47700276       1.47363474      10.30991674      -0.63200000
P        4.44285252       1.45788742       7.37358531      -0.67100000
P        1.48030074       4.41239025       7.37435382      -0.67100000
P        4.59290844       4.54939762      10.16906573      -0.67000000
P        1.48030074       7.36556715       4.42117692      -0.67100000
P        4.44285252       7.36479864       1.46667409      -0.67100000
P        1.47700276      10.30113007       1.48242141      -0.63200000
P        4.59290844      10.16027906       4.55818429      -0.67000000
P        1.49275008       7.36479864      10.31912165      -0.67100000
P        4.46011959       7.36683826       7.37562493      -0.67400000
P        1.49275008      10.31033498       7.37358531      -0.67100000
P        4.42488927      10.32829823      10.33708490      -0.67300000
P        7.38762035       1.47033676       4.42117692      -0.67100000
P       10.32757412       1.41799132       1.42677799      -0.63200000
P        7.38762035       4.41239025       1.47912343      -0.67100000
P       10.34432098       4.40886652       4.41765319      -0.67000000
P        7.38838886       1.45788742      10.31912165      -0.67100000
P       10.34079725       1.47033676       7.37435382      -0.67100000
P        7.42092704       4.41542532       7.34104713      -0.67400000
P       10.32183109       4.43135641      10.34193555      -0.67300000
P        7.42092704       7.33226046       4.42421199      -0.67400000
P       10.34079725       7.36556715       1.47912343      -0.67100000
P        7.38838886      10.31033498       1.46667409      -0.67100000
P       10.32183109      10.33314887       4.44014308      -0.67300000
P        7.38634924       7.36683826      10.30185458      -0.67400000
P       10.33776218       7.33226046       7.34104713      -0.67400000
P        7.38634924      10.29306791       7.37562493      -0.67400000
P       10.20378988      10.16027906      10.16906573      -0.67000000
In      -0.21123670      -0.21270729      -0.20392062       0.61300000
In       3.16334479      -0.21270729       3.17066087       0.61300000
In      -0.01927896       2.96991646       2.97870313       0.61300000
In       3.16334479       3.16187420      -0.20392062       0.61300000
In       0.00711964      -0.01877489       5.91816846       0.66000000
In       2.97010281      -0.01946531       8.84095956       0.66000000
In      -0.02891106       2.97954856       8.84816381       0.66100000
In       2.96941239       2.94351786       5.91816846       0.66000000
In       0.00711964       5.90938179      -0.00998822       0.66000000
In       2.96941239       5.90938179       2.95230453       0.66000000
In      -0.02891106       8.83937714       2.98833523       0.66100000
In       2.97010281       8.83217289      -0.01067864       0.66100000
In       0.01978898       5.87298544       5.88177211       0.65700000
In       2.94339047       5.92710844       8.80148589       0.65700000
In       0.03602137       8.77787524       8.78666191       0.65700000
In       2.94339047       8.79269922       5.93589511       0.65700000
In       5.92101461      -0.01946531      -0.01067864       0.66000000
In       8.84380571      -0.01877489       2.95230453       0.66000000
In       5.91381036       2.97954856       2.98833523       0.66000000
In       8.84380571       2.94351786      -0.00998822       0.66100000
In       5.96048828       0.00724703       5.93589511       0.65700000
In       8.82607906       0.00724703       8.80148589       0.65700000
In       5.97531226       2.91461613       8.78666191       0.65700000
In       8.88020206       2.93084852       5.88177211       0.65700000
In       5.96048828       5.92710844       0.01603370       0.65700000
In       8.88020206       5.87298544       2.93963519       0.65700000
In       5.97531226       8.77787524       2.92340280       0.65700000
In       8.82607906       8.79269922       0.01603370       0.65700000
In       5.92271404       5.88905204       5.89783871       0.66500000
In       8.86413546       5.88905204       8.83926013       0.66500000
In       5.89619747       8.85699003       8.86577670       0.66500000
In       8.86413546       8.83047346       5.89783871       0.66500000
In       1.63795065       1.31268685       1.32147352       0.34500000
65
Lattice="11.80255 0.0 0.0 0.0 11.80255 0.0 0.0 0.0 11.80255" Properties=species:S:1:pos:R:3:mulliken_charges:R:1 fermi_energy=4.781312370495001 core_to_fermi_energy=16.851734769525017 config_type=Interstitial energy=-273.10073620708295 pbc="T T T"
P        1.54090850       1.40972900       4.45294146      -0.63200000
P        4.46890453       1.48683622       1.49581401      -0.63200000
P        1.54090850       4.44396367       1.41870679      -0.63200000
P        4.41458077       4.44318473       4.45216251      -0.67300000
P        1.46380128       1.48683622      10.29326076      -0.63200000
P        4.44203894       1.45922906       7.37417625      -0.67100000
P        1.47532364       4.41973515       7.37493114      -0.67100000
P        4.60172278       4.55889624      10.16044251      -0.67000000
P        1.47532364       7.36595335       4.42871293      -0.67100000
P        4.44203894       7.36519846       1.46820685      -0.67100000
P        1.46380128      10.28428297       1.49581401      -0.63200000
P        4.60172278      10.15146472       4.56787403      -0.67000000
P        1.49140844       7.36519846      10.32012635      -0.67100000
P        4.46070282       7.37320397       7.38218176      -0.67400000
P        1.49140844      10.31114856       7.37417625      -0.67100000
P        4.40999609      10.34319141      10.35216920      -0.67300000
P        7.38723415       1.47531386       4.42871293      -0.67100000
P       10.30922383       1.40972900       1.41870679      -0.63200000
P        7.38723415       4.41973515       1.48429165      -0.67100000
P       10.40012941       4.35305809       4.36203588      -0.67000000
P        7.38798904       1.45922906      10.32012635      -0.67100000
P       10.33345235       1.47531386       7.37493114      -0.67100000
P        7.42670254       4.41253999       7.33546274      -0.67400000
P       10.31000277       4.44318473      10.34758452      -0.67300000
P        7.42670254       7.32648496       4.42151778      -0.67400000
P       10.33345235       7.36595335       1.48429165      -0.67100000
P        7.38798904      10.31114856       1.46820685      -0.67100000
P       10.31000277      10.33860673       4.45216251      -0.67300000
P        7.37998353       7.37320397      10.30146247      -0.67400000
P       10.34064751       7.32648496       7.33546274      -0.67400000
P        7.37998353      10.29248468       7.38218176      -0.67400000
P       10.19429126      10.15146472      10.16044251      -0.67000000
In      -0.25711470      -0.20702224      -0.19804445       0.61300000
In       3.15765974      -0.20702224       3.21672999       0.61300000
In       0.05851228       2.89212522       2.90110301       0.61300000
In       3.15765974       3.20775220      -0.19804445       0.61300000
In       0.00197534      -0.01574258       5.92755920       0.66000000
In       2.96344868      -0.01281118       8.83863182       0.66000000
In      -0.05065443       3.00129193       8.84074243       0.66100000
In       2.96638008       2.94866216       5.92755920       0.66000000
In       0.00197534       5.91858141      -0.00676479       0.66000000
In       2.96638008       5.91858141       2.95763995       0.66000000
In      -0.05065443       8.83176464       3.01026972       0.66100000
In       2.96344868       8.82965403      -0.00383339       0.66100000
In       0.00519565       5.85339143       5.86236921       0.65700000
In       2.94082952       5.93122740       8.79973478       0.65700000
In       0.03835159       8.77456716       8.78354495       0.65700000
In       2.94082952       8.79075700       5.94020518       0.65700000
In       5.92353347      -0.01281118      -0.00383339       0.66000000
In       8.83460609      -0.01574258       2.95763995       0.66000000
In       5.92142286       3.00129193       3.01026972       0.66000000
In       8.83460609       2.94866216      -0.00676479       0.66100000
In       5.96243050       0.00980798       5.94020518       0.65700000
In       8.82196010       0.00980798       8.79973478       0.65700000
In       5.97862034       2.91228591       8.78354495       0.65700000
In       8.89979607       2.94544185       5.86236921       0.65700000
In       5.96243050       5.93122740       0.01878577       0.65700000
In       8.89979607       5.85339143       2.95441964       0.65700000
In       5.97862034       8.77456716       2.92126370       0.65700000
In       8.82196010       8.79075700       0.01878577       0.65700000
In       5.92666473       5.89658402       5.90556181       0.66500000
In       8.85660348       5.89658402       8.83550055       0.66500000
In       5.88167750       8.87151000       8.88048779       0.66500000
In       8.85660348       8.82652277       5.90556181       0.66500000
In       1.75093448       1.19970302       1.20868080       0.34500000
65
Lattice="11.80255 0.0 0.0 0.0 11.80255 0.0 0.0 0.0 11.80255" Properties=species:S:1:pos:R:3:mulliken_charges:R:1 fermi_energy=4.781312370495001 core_to_fermi_energy=16.851734769525017 config_type=Interstitial energy=-272.9395577778801 pbc="T T T"
P        1.53823762       1.41239988       4.46691862      -0.63200000
P        4.48617246       1.49870679       1.50768912      -0.63200000
P        1.53823762       4.45793629       1.42138221      -0.63200000
P        4.41301315       4.45008390       4.45906623      -0.67300000
P        1.45193071       1.49870679      10.27599737      -0.63200000
P        4.44128530       1.46066177       7.37233835      -0.67100000
P        1.47390947       4.42548354       7.37422253      -0.67100000
P        4.60225380       4.56111787      10.15991603      -0.67000000
P        1.47390947       7.36524020       4.43446587      -0.67100000
P        4.44128530       7.36335602       1.46964410      -0.67100000
P        1.45193071      10.26701504       1.50768912      -0.63200000
P        4.60225380      10.15093370       4.57010020      -0.67000000
P        1.48997573       7.36335602      10.32088453      -0.67100000
P        4.46063864       7.37789717       7.38687950      -0.67400000
P        1.48997573      10.31190220       7.37233835      -0.67100000
P        4.39691326      10.35627424      10.36525657      -0.67300000
P        7.38794730       1.47672803       4.43446587      -0.67100000
P       10.29525121       1.41239988       1.42138221      -0.63200000
P        7.38794730       4.42548354       1.48571036      -0.67100000
P       10.42959452       4.32359298       4.33257531      -0.67000000
P        7.38983148       1.46066177      10.32088453      -0.67100000
P       10.32770396       1.47672803       7.37422253      -0.67100000
P        7.42652539       4.41117321       7.33564444      -0.67400000
P       10.30310360       4.45008390      10.34915668      -0.67300000
P        7.42652539       7.32666211       4.42015554      -0.67400000
P       10.32770396       7.36524020       1.48571036      -0.67100000
P        7.38983148      10.31190220       1.46964410      -0.67100000
P       10.30310360      10.34017435       4.45906623      -0.67300000
P        7.37529033       7.37789717      10.30153119      -0.67400000
P       10.34201429       7.32666211       7.33564444      -0.67400000
P        7.37529033      10.29254886       7.38687950      -0.67400000
P       10.19206963      10.15093370      10.15991603      -0.67000000
In      -0.29893444      -0.19223240      -0.18325007       0.61300000
In       3.14286990      -0.19223240       3.25855427       0.61300000
In       0.11067748       2.83996002       2.84894235       0.61300000
In       3.14286990       3.24957194      -0.18325007       0.61300000
In      -0.00292310      -0.01441254       5.93213356       0.66000000
In       2.95834915      -0.00771165       8.83284549       0.66000000
In      -0.06803247       3.01866997       8.82867399       0.66100000
In       2.96505004       2.95356060       5.93213356       0.66000000
In      -0.00292310       5.92315123      -0.00543021       0.66000000
In       2.96505004       5.92315123       2.96254293       0.66000000
In      -0.06803247       8.81969166       3.02765230       0.66100000
In       2.95834915       8.82386316       0.00127068       0.66100000
In      -0.00485942       5.84459923       5.85358156       0.65700000
In       2.94042098       5.93320120       8.79942248       0.65700000
In       0.04087225       8.77557636       8.78455870       0.65700000
In       2.94042098       8.79044015       5.94218353       0.65700000
In       5.92932434      -0.00771165       0.00127068       0.66000000
In       8.83003627      -0.01441254       2.96254293       0.66000000
In       5.93349584       3.01866997       3.02765230       0.66000000
In       8.83003627       2.95356060      -0.00543021       0.66100000
In       5.96274735       0.01021652       5.94218353       0.65700000
In       8.81998630       0.01021652       8.79942248       0.65700000
In       5.97761114       2.90976525       8.78455870       0.65700000
In       8.90858827       2.95549692       5.85358156       0.65700000
In       5.96274735       5.93320120       0.01919885       0.65700000
In       8.90858827       5.84459923       2.96447925       0.65700000
In       5.97761114       8.77557636       2.91874758       0.65700000
In       8.81998630       8.79044015       0.01919885       0.65700000
In       5.92874456       5.90203531       5.91101764       0.66500000
In       8.85115219       5.90203531       8.83342527       0.66500000
In       5.87081411       8.88237339       8.89135572       0.66500000
In       8.85115219       8.82444294       5.91101764       0.66500000
In       1.88333101       1.06730649       1.07628882       0.34500000
65
Lattice="11.80255 0.0 0.0 0.0 11.80255 0.0 0.0 0.0 11.80255" Properties=species:S:1:pos:R:3:mulliken_charges:R:1 fermi_energy=4.781312370495001 core_to_fermi_energy=16.851734769525017 config_type=Interstitial energy=-272.7919759951813 pbc="T T T"
P        1.53156158       1.41907592       4.47404039      -0.63200000
P        4.49673982       1.50837995       1.51736128      -0.63200000
P        1.53156158       4.46505906       1.42805725      -0.63200000
P        4.41292826       4.45330337       4.46228469      -0.67300000
P        1.44225755       1.50837995      10.26542901      -0.63200000
P        4.44066791       1.46167442       7.37018526      -0.67100000
P        1.47468168       4.42842017       7.37326821      -0.67100000
P        4.59875928       4.55867701      10.16340955      -0.67000000
P        1.47468168       7.36428688       4.43740150      -0.67100000
P        4.44066791       7.36120393       1.47065574      -0.67100000
P        1.44225755      10.25644768       1.51736128      -0.63200000
P        4.59875928      10.15442822       4.56765834      -0.67000000
P        1.48896308       7.36120393      10.32150092      -0.67100000
P        4.46045385       7.38086833       7.38984965      -0.67400000
P        1.48896308      10.31251959       7.37018526      -0.67100000
P        4.38574199      10.36744551      10.37642683      -0.67300000
P        7.38890062       1.47595582       4.43740150      -0.67100000
P       10.28812844       1.41907592       1.42805725      -0.63200000
P        7.38890062       4.42842017       1.48493715      -0.67100000
P       10.43733978       4.31584772       4.32482905      -0.67000000
P        7.39198357       1.46167442      10.32150092      -0.67100000
P       10.32476733       1.47595582       7.37326821      -0.67100000
P        7.42461653       4.41067174       7.33755230      -0.67400000
P       10.29988413       4.45330337      10.34924057      -0.67300000
P        7.42461653       7.32857097       4.41965307      -0.67400000
P       10.32476733       7.36428688       1.48493715      -0.67100000
P        7.39198357      10.31251959       1.47065574      -0.67100000
P       10.29988413      10.34025924       4.46228469      -0.67300000
P        7.37231917       7.38086833      10.30171498      -0.67400000
P       10.34251576       7.32857097       7.33755230      -0.67400000
P        7.37231917      10.29273365       7.38984965      -0.67400000
P       10.19451049      10.15442822      10.16340955      -0.67000000
In      -0.32493034      -0.17652474      -0.16754341       0.61300000
In       3.12716224      -0.17652474       3.28454916       0.61300000
In       0.13013460       2.82050290       2.82948423       0.61300000
In       3.12716224       3.27556784      -0.16754341       0.61300000
In      -0.00575116      -0.01427692       5.93280203       0.66000000
In       2.95423048      -0.00359298       8.82658595       0.66000000
In      -0.08013987       3.03077737       8.81762713       0.66100000
In       2.96491442       2.95638866       5.93280203       0.66000000
In      -0.00575116       5.92382071      -0.00529559       0.66000000
In       2.96491442       5.92382071       2.96536999       0.66000000
In      -0.08013987       8.80864581       3.03975869       0.66100000
In       2.95423048       8.81760462       0.00538835       0.66100000
In      -0.00870748       5.84306649       5.85204781       0.65700000
In       2.94136252       5.93359053       8.80010266       0.65700000
In       0.04242476       8.77770939       8.78669071       0.65700000
In       2.94136252       8.79112134       5.94257185       0.65700000
In       5.93558288      -0.00359298       0.00538835       0.66000000
In       8.82936679      -0.01427692       2.96536999       0.66000000
In       5.94454169       3.03077737       3.03975869       0.66000000
In       8.82936679       2.95638866      -0.00529559       0.66100000
In       5.96206616       0.00927498       5.94257185       0.65700000
In       8.81959697       0.00927498       8.80010266       0.65700000
In       5.97547811       2.90821274       8.78669071       0.65700000
In       8.91012101       2.95934498       5.85204781       0.65700000
In       5.96206616       5.93359053       0.01825630       0.65700000
In       8.91012101       5.84306649       2.96832631       0.65700000
In       5.97547811       8.77770939       2.91719407       0.65700000
In       8.81959697       8.79112134       0.01825630       0.65700000
In       5.92949278       5.90523699       5.91421832       0.66500000
In       8.84795051       5.90523699       8.83267604       0.66500000
In       5.86397487       8.88921263       8.89819396       0.66500000
In       8.84795051       8.82369472       5.91421832       0.66500000
In       2.01435883       0.93627867       0.94525999       0.34500000
65
Lattice="11.80255 0.0 0.0 0.0 11.80255 0.0 0.0 0.0 11.80255" Properties=species:S:1:pos:R:3:mulliken_charges:R:1 fermi_energy=4.781312370495001 core_to_fermi_energy=16.851734769525017 config_type=Interstitial energy=-272.71665713410016 pbc="T T T"
P        1.52452586       1.42611164       4.47628357      -0.63200000
P        4.50165610       1.51652062       1.52550124      -0.63200000
P        1.52452586       4.46730295       1.43509226      -0.63200000
P        4.41323338       4.45536734       4.46434797      -0.67300000
P        1.43411688       1.51652062      10.26051202      -0.63200000
P        4.43991064       1.46237537       7.36857042      -0.67100000
P        1.47597869       4.42985975       7.37231046      -0.67100000