63
Lattice="11.8016818 -7.6e-06 -7.6e-06 -7.6e-06 11.8016818 -7.8e-06 -7.6e-06 -7.8e-06 11.8016816" Properties=species:S:1:pos:R:3:mulliken_charges:R:1 virial="-0.001343979365248383 3.847269175329341e-05 3.847269175329341e-05 3.847269175329341e-05 -0.001345261788306826 3.847269175329341e-05 3.847269175329341e-05 3.847269175329341e-05 -0.0013426969421899398" fermi_energy=3.4539138232004998 core_to_fermi_energy=15.43004959127955 config_type=Accurate_Bulk energy=-268.7783653991143 pbc="T T T"
P        1.48728439       1.48728434       4.43468494      -0.67500000
P        4.43468501       1.48728439       1.48728439      -0.67500000
P        1.48728439       4.43468500       1.48728434      -0.67500000
P        4.59078324       4.59078321       4.59078316      -0.67500000
In       0.00000092       0.00000090       0.00000090       0.67500000
In       2.96815545       0.00040526       2.96815535       0.67500000
In       0.00040532       2.96815539       2.96815530       0.67500000
In       2.96815545       2.96815543       0.00040526       0.67500000
P        1.47871566       1.47871550      10.32295535      -0.67500000
P        4.42921863       1.49412206       7.37245209      -0.67500000
P        1.49412215       4.42921853       7.37245204      -0.67500000
P        4.42921475       4.42921459      10.30754389      -0.67500000
In      -0.00000274      -0.00000287       5.90084125       0.67500000
In       2.96815145      -0.00041502       8.83352392       0.67500000
In      -0.00041485       2.96815128       8.83352387       0.67500000
In       3.03147937       3.03147926       5.84623720       0.67500000
P        1.49412215       7.37245219       4.42921847      -0.67500000
P        4.42921863       7.37245224       1.49412205      -0.67500000
P        1.47871566      10.32295554       1.47871549      -0.67500000
P        4.42921474      10.30754409       4.42921453      -0.67500000
In      -0.00000274       5.90084135      -0.00000287       0.67500000
In       3.03147938       5.84623731       3.03147920       0.67500000
In      -0.00041485       8.83352399       2.96815119       0.67500000
In       2.96815145       8.83352404      -0.00041503       0.67500000
P        1.48727575       7.36698660      10.31438703      -0.67500000
P        4.59077432       7.21088721       7.21088706      -0.67500000
P        1.48727574      10.31438723       7.36698645      -0.67500000
P        4.43467316      10.31438336      10.31438316      -0.67500000
In      -0.00000718       5.90083713       5.90083703       0.67500000
In       3.03147352       5.95543397       8.77019335       0.67500000
In       0.00039705       8.83351992       8.83351980       0.67500000
In       3.03147352       8.77019349       5.95543388       0.67500000
P        7.37245225       1.49412210       4.42921857      -0.67500000
P       10.32295555       1.47871565       1.47871564      -0.67500000
P        7.37245224       4.42921863       1.49412210      -0.67500000
P       10.30754414       4.42921469       4.42921463      -0.67500000
In       5.90084136      -0.00000277      -0.00000277       0.67500000
In       8.83352405      -0.00041491       2.96815134       0.67500000
In       5.84623737       3.03147933       3.03147926       0.67500000
In       8.83352406       2.96815143      -0.00041492       0.67500000
P        7.36698677       1.48727558      10.31438714      -0.67500000
P       10.31438735       1.48727563       7.36698661      -0.67500000
P        7.21088736       4.59077417       7.21088718      -0.67500000
P       10.31438353       4.43467299      10.31438327      -0.67500000
In       5.90083724      -0.00000729       5.90083713       0.67500000
In       8.83352009       0.00039688       8.83351996       0.67500000
In       5.95543413       3.03147334       8.77019342       0.67500000
In       8.77019361       3.03147339       5.95543398       0.67500000
P        7.21088736       7.21088733       4.59077412      -0.67500000
P       10.31438735       7.36698675       1.48727563      -0.67500000
P        7.36698677      10.31438734       1.48727558      -0.67500000
P       10.31438353      10.31438347       4.43467293      -0.67500000
In       5.90083724       5.90083723      -0.00000729       0.67500000
In       8.77019360       5.95543407       3.03147333       0.67500000
In       5.95543413       8.77019356       3.03147327       0.67500000
In       8.83352009       8.83352008       0.00039689       0.67500000
P        7.37244454       7.37244438      10.30754032      -0.67500000
P       10.30754061       7.37244443       7.37244429      -0.67500000
P        7.37244454      10.30754051       7.37244423      -0.67500000
P       10.32294398      10.32294382      10.32294363      -0.67500000
In       8.77018918       5.84622924       8.77018894       0.67500000
In       5.84622940       8.77018900       8.77018887       0.67500000
In       8.77018919       8.77018908       5.84622913       0.67500000
63
Lattice="11.8016818 -7.6e-06 -7.6e-06 -7.6e-06 11.8016818 -7.8e-06 -7.6e-06 -7.8e-06 11.8016816" Properties=species:S:1:pos:R:3:mulliken_charges:R:1 virial="-0.001343979365248383 3.847269175329341e-05 3.847269175329341e-05 3.847269175329341e-05 -0.001345261788306826 3.847269175329341e-05 3.847269175329341e-05 3.847269175329341e-05 -0.0013426969421899398" fermi_energy=3.4539138232004998 core_to_fermi_energy=15.43004959127955 config_type=Accurate_Bulk energy=-268.733227088122 pbc="T T T"
P        1.56976187       1.56976182       4.49608355      -0.67500000
P        4.44125328       1.48951759       1.48304932      -0.67500000
P        1.48951760       4.44125327       1.48304927      -0.67500000
P        4.67941927       4.67941923       4.52209772      -0.67500000
In       0.01551569       0.01551567       0.00161227       0.67500000
In       2.97081414       0.04057537       3.00115326       0.67500000
In       0.04057543       2.97081408       3.00115321       0.67500000
In       2.97962064       2.97962062       0.00061834       0.67500000
P        1.49288666       1.49288650      10.31756202      -0.67500000
P        4.46954568       1.53056761       7.38044973      -0.67500000
P        1.53056772       4.46954557       7.38044967      -0.67500000
P        4.44362563       4.44362548      10.31656956      -0.67500000
In       0.04268122       0.04268110       5.88474600       0.67500000
In       2.97810383       0.03094530       8.81093913       0.67500000
In       0.03094547       2.97810366       8.81093908       0.67500000
In       3.16663986       3.16663974       5.87711991       0.67500000
P        1.50819435       7.38708849       4.41821181      -0.67500000
P        4.44264409       7.40519672       1.47447989      -0.67500000
P        1.49411875      10.35733691       1.49576904      -0.67500000
P        4.43729300      10.32444137       4.43480674      -0.67500000
In      -0.00235909       5.91209396       0.00319661       0.67500000
In       3.03483625       5.87519707       2.99147989       0.67500000
In       0.00915426       8.85230820       2.96486805       0.67500000
In       2.97917180       8.88300868      -0.00072033       0.67500000
P        1.47965109       7.40802501      10.33965632      -0.67500000
P        4.58086485       7.22135969       7.22814845      -0.67500000
P        1.49908746      10.33422010       7.35758523      -0.67500000
P        4.44471883      10.34105242      10.29397632      -0.67500000
In       0.02153951       5.91328490       5.89508575       0.67500000
In       3.02630127       5.99736231       8.81747309       0.67500000
In       0.00647678       8.85481638       8.82374628       0.67500000
In       3.04028366       8.78235578       5.95507319       0.67500000
P        7.38708854       1.50819430       4.41821191      -0.67500000
P       10.35733692       1.49411874       1.49576919      -0.67500000
P        7.40519672       4.44264409       1.47447994      -0.67500000
P       10.32444142       4.43729294       4.43480685      -0.67500000
In       5.91209398      -0.00235911       0.00319671       0.67500000
In       8.85230826       0.00915420       2.96486820       0.67500000
In       5.87519713       3.03483620       2.99147994       0.67500000
In       8.88300870       2.97917178      -0.00072022       0.67500000
P        7.40802517       1.47965092      10.33965643      -0.67500000
P       10.33422022       1.49908734       7.35758538      -0.67500000
P        7.22135984       4.58086470       7.22814856      -0.67500000
P       10.34105259       4.44471866      10.29397642      -0.67500000
In       5.91328501       0.02153940       5.89508585       0.67500000
In       8.85481655       0.00647661       8.82374643       0.67500000
In       5.99736247       3.02630109       8.81747317       0.67500000
In       8.78235590       3.04028353       5.95507329       0.67500000
P        7.21813348       7.21813344       4.59494093      -0.67500000
P       10.31885456       7.37980111       1.49256972      -0.67500000
P        7.37980112      10.31885455       1.49256967      -0.67500000
P       10.34039529      10.34039523       4.43802571      -0.67500000
In       5.91898785       5.91898785      -0.00270681       0.67500000
In       8.78144877       5.95971393       3.03744357       0.67500000
In       5.95971399       8.78144872       3.03744351       0.67500000
In       8.84288430       8.84288428      -0.00304708       0.67500000
P        7.38634170       7.38634155      10.29720929      -0.67500000
P       10.32223137       7.38490347       7.36253642      -0.67500000
P        7.38490357      10.32223127       7.36253637      -0.67500000
P       10.33667427      10.33667411      10.32485402      -0.67500000
In       8.78359569       5.85827596       8.76066087       0.67500000
In       5.85827613       8.78359551       8.76066080       0.67500000
In       8.78612990       8.78612979       5.83685540       0.67500000
63
Lattice="11.8016818 -7.6e-06 -7.6e-06 -7.6e-06 11.8016818 -7.8e-06 -7.6e-06 -7.8e-06 11.8016816" Properties=species:S:1:pos:R:3:mulliken_charges:R:1 virial="-0.001343979365248383 3.847269175329341e-05 3.847269175329341e-05 3.847269175329341e-05 -0.001345261788306826 3.847269175329341e-05 3.847269175329341e-05 3.847269175329341e-05 -0.0013426969421899398" fermi_energy=3.4539138232004998 core_to_fermi_energy=15.43004959127955 config_type=Accurate_Bulk energy=-268.5483190443013 pbc="T T T"
P        1.63754725       1.63754720       4.56689899      -0.67500000
P        4.42671812       1.46934092       1.47899904      -0.67500000
P        1.46934092       4.42671812       1.47899899      -0.67500000
P        4.76379186       4.76379183       4.42390667      -0.67500000
In       0.01323205       0.01323203       0.00329645       0.67500000
In       2.94422998       0.06241955       3.03475887       0.67500000
In       0.06241960       2.94422992       3.03475882       0.67500000
In       2.97719221       2.97719220       0.00261629       0.67500000
P        1.49146243       1.49146227      10.31607720      -0.67500000
P        4.48736309       1.55082584       7.38752148      -0.67500000
P        1.55082595       4.48736296       7.38752140      -0.67500000
P        4.44093995       4.44093979      10.32207714      -0.67500000
In       0.06301873       0.06301861       5.85975790       0.67500000
In       2.96578000       0.04341051       8.79213562       0.67500000
In       0.04341069       2.96577983       8.79213556       0.67500000
In       3.34257347       3.34257333       5.94296232       0.67500000
P        1.50539328       7.38586882       4.41169864      -0.67500000
P        4.43842194       7.41704645       1.45912729      -0.67500000
P        1.49226391      10.36767422       1.50619387      -0.67500000
P        4.42744251      10.32523829       4.43755724      -0.67500000
In      -0.02197056       5.90378646       0.00415296       0.67500000
In       3.00809777       5.88724071       2.94817238       0.67500000
In       0.00269819       8.85348825       2.96072614       0.67500000
In       2.97703614       8.90679783      -0.00294916       0.67500000
P        1.45466341       7.42874381      10.36393031      -0.67500000
P        4.55385390       7.21022388       7.24567369      -0.67500000
P        1.49215570      10.33642980       7.34703103      -0.67500000
P        4.43764434      10.34735240      10.27252761      -0.67500000
In       0.02607714       5.90559451       5.88890968       0.67500000
In       2.99858284       6.02039805       8.86293657       0.67500000
In      -0.00198627       8.85807327       8.81420626       0.67500000
In       3.03609961       8.77998337       5.95700911       0.67500000
P        7.38586887       1.50539323       4.41169874      -0.67500000
P       10.36767423       1.49226390       1.50619402      -0.67500000
P        7.41704645       4.43842194       1.45912733      -0.67500000
P       10.32523833       4.42744246       4.43755734      -0.67500000
In       5.90378647      -0.02197058       0.00415306       0.67500000
In       8.85348831       0.00269813       2.96072629       0.67500000
In       5.88724077       3.00809772       2.94817243       0.67500000
In       8.90679785       2.97703612      -0.00294906       0.67500000
P        7.42874398       1.45466324      10.36393043      -0.67500000
P       10.33642991       1.49215558       7.34703118      -0.67500000
P        7.21022402       4.55385375       7.24567380      -0.67500000
P       10.34735258       4.43764417      10.27252771      -0.67500000
In       5.90559462       0.02607703       5.88890979       0.67500000
In       8.85807343      -0.00198644       8.81420641       0.67500000
In       6.02039822       2.99858266       8.86293666       0.67500000
In       8.77998348       3.03609949       5.95700921       0.67500000
P        7.20439174       7.20439171       4.59895216      -0.67500000
P       10.30790210       7.37499371       1.49614354      -0.67500000
P        7.37499372      10.30790209       1.49614349      -0.67500000
P       10.34187072      10.34187067       4.43842920      -0.67500000
In       5.91765682       5.91765681      -0.00334257       0.67500000
In       8.77827266       5.94762258       3.04241505       0.67500000
In       5.94762264       8.77827262       3.04241499       0.67500000
In       8.83777541       8.83777539      -0.00608658       0.67500000
P        7.38271837       7.38271821      10.29175355      -0.67500000
P       10.32030237       7.37763802       7.35458746      -0.67500000
P        7.37763813      10.32030226       7.35458741      -0.67500000
P       10.33386373      10.33386356      10.32429562      -0.67500000
In       8.77597822       5.85420666       8.75272337       0.67500000
In       5.85420682       8.77597804       8.75272330       0.67500000
In       8.78104474       8.78104463       5.83184685       0.67500000
63
Lattice="11.8016818 -7.6e-06 -7.6e-06 -7.6e-06 11.8016818 -7.8e-06 -7.6e-06 -7.8e-06 11.8016816" Properties=species:S:1:pos:R:3:mulliken_charges:R:1 virial="-0.001343979365248383 3.847269175329341e-05 3.847269175329341e-05 3.847269175329341e-05 -0.001345261788306826 3.847269175329341e-05 3.847269175329341e-05 3.847269175329341e-05 -0.0013426969421899398" fermi_energy=3.4539138232004998 core_to_fermi_energy=15.43004959127955 config_type=Accurate_Bulk energy=-268.21978780513876 pbc="T T T"
P        1.66466754       1.66466750       4.60732736      -0.67500000
P        4.41522232       1.45078814       1.47477540      -0.67500000
P        1.45078814       4.41522232       1.47477535      -0.67500000
P        4.81829246       4.81829242       4.32704507      -0.67500000
In       0.01052544       0.01052542       0.00317084       0.67500000
In       2.91819787       0.07070603       3.05318335       0.67500000
In       0.07070608       2.91819781       3.05318330       0.67500000
In       2.97509140       2.97509139       0.00611741       0.67500000
P        1.49089825       1.49089809      10.31540279      -0.67500000
P        4.49016510       1.56537070       7.38725981      -0.67500000
P        1.56537083       4.49016496       7.38725973      -0.67500000
P        4.43686357       4.43686342      10.32363955      -0.67500000
In       0.06820402       0.06820391       5.83618934       0.67500000
In       2.95491917       0.04940497       8.78300592       0.67500000
In       0.04940515       2.95491901       8.78300586       0.67500000
In       3.54785938       3.54785922       6.06176723       0.67500000
P        1.50121214       7.38441767       4.41091482      -0.67500000
P        4.43393357       7.42165770       1.45176711      -0.67500000
P        1.48821355      10.36698114       1.50614505      -0.67500000
P        4.42110440      10.32401720       4.43789876      -0.67500000
In      -0.03687823       5.89633542       0.00273578       0.67500000
In       2.97818565       5.89648907       2.91778404       0.67500000
In      -0.00272590       8.85329684       2.95701781       0.67500000
In       2.97584987       8.91634271      -0.00532698       0.67500000
P        1.43606434       7.43959527      10.37917281      -0.67500000
P        4.53174257       7.19454557       7.25657674      -0.67500000
P        1.48618705      10.33673778       7.34103286      -0.67500000
P        4.43319827      10.34628212      10.25698554      -0.67500000
In       0.02786400       5.89764109       5.88548436       0.67500000
In       2.97048613       6.03244224       8.89270379       0.67500000
In      -0.00680543       8.85909699       8.80811901       0.67500000
In       3.03310276       8.77989783       5.95871497       0.67500000
P        7.38441772       1.50121209       4.41091491      -0.67500000
P       10.36698115       1.48821354       1.50614520      -0.67500000
P        7.42165770       4.43393357       1.45176715      -0.67500000
P       10.32401724       4.42110435       4.43789886      -0.67500000
In       5.89633543      -0.03687825       0.00273588       0.67500000
In       8.85329690      -0.00272595       2.95701796       0.67500000
In       5.89648912       2.97818561       2.91778409       0.67500000
In       8.91634273       2.97584986      -0.00532688       0.67500000
P        7.43959544       1.43606417      10.37917293      -0.67500000
P       10.33673789       1.48618694       7.34103301      -0.67500000
P        7.19454570       4.53174242       7.25657685      -0.67500000
P       10.34628230       4.43319810      10.25698563      -0.67500000
In       5.89764121       0.02786389       5.88548446       0.67500000
In       8.85909716      -0.00680560       8.80811916       0.67500000
In       6.03244241       2.97048595       8.89270389       0.67500000
In       8.77989794       3.03310265       5.95871508       0.67500000
P        7.19301423       7.19301419       4.60258521      -0.67500000
P       10.29966657       7.37039006       1.49733519      -0.67500000
P        7.37039008      10.29966656       1.49733514      -0.67500000
P       10.33540023      10.33540017       4.43559933      -0.67500000
In       5.91331825       5.91331824      -0.00143496       0.67500000
In       8.77566655       5.93994504       3.04601758       0.67500000
In       5.93994510       8.77566650       3.04601753       0.67500000
In       8.83439380       8.83439378      -0.00829942       0.67500000
P        7.37765569       7.37765553      10.29090500      -0.67500000
P       10.31746700       7.37049694       7.35075599      -0.67500000
P        7.37049705      10.31746690       7.35075595      -0.67500000
P       10.33077787      10.33077771      10.32234592      -0.67500000
In       8.76516603       5.85099483       8.74692194       0.67500000
In       5.85099499       8.76516585       8.74692188       0.67500000
In       8.77649813       8.77649802       5.82949332       0.67500000
63
Lattice="11.8016818 -7.6e-06 -7.6e-06 -7.6e-06 11.8016818 -7.8e-06 -7.6e-06 -7.8e-06 11.8016816" Properties=species:S:1:pos:R:3:mulliken_charges:R:1 virial="-0.001343979365248383 3.847269175329341e-05 3.847269175329341e-05 3.847269175329341e-05 -0.001345261788306826 3.847269175329341e-05 3.847269175329341e-05 3.847269175329341e-05 -0.0013426969421899398" fermi_energy=3.4539138232004998 core_to_fermi_energy=15.43004959127955 config_type=Accurate_Bulk energy=-267.82898596438747 pbc="T T T"
P        1.65574204       1.65574200       4.61323987      -0.67500000
P        4.40930687       1.43669345       1.46861935      -0.67500000
P        1.43669345       4.40930686       1.46861931      -0.67500000
P        4.83376442       4.83376438       4.24062222      -0.67500000
In       0.00967662       0.00967660       0.00204500       0.67500000
In       2.90325526       0.07020414       3.05896901       0.67500000
In       0.07020418       2.90325520       3.05896896       0.67500000
In       2.97273676       2.97273675       0.00924285       0.67500000
P        1.49079096       1.49079080      10.31409961      -0.67500000
P        4.48073227       1.58335779       7.37660926      -0.67500000
P        1.58335792       4.48073212       7.37660916      -0.67500000
P        4.43354245       4.43354230      10.32517369      -0.67500000
In       0.06526104       0.06526093       5.82257072       0.67500000
In       2.95238926       0.05660788       8.77659857       0.67500000
In       0.05660806       2.95238910       8.77659851       0.67500000
In       3.76885185       3.76885168       6.21152974       0.67500000
P        1.49607531       7.38302290       4.41182011      -0.67500000
P        4.43124928       7.42506363       1.44795312      -0.67500000
P        1.48470813      10.36357320       1.50249261      -0.67500000
P        4.41955922      10.32304565       4.43906632      -0.67500000
In      -0.04779655       5.89174267       0.00030341       0.67500000
In       2.95316219       5.90543110       2.89729143       0.67500000
In      -0.00578868       8.85383459       2.95507869       0.67500000
In       2.97493799       8.92078550      -0.00752839       0.67500000
P        1.42312865       7.44600360      10.38878389      -0.67500000
P        4.51368977       7.17729062       7.26447074      -0.67500000
P        1.48418377      10.33646228       7.33922833      -0.67500000
P        4.43142211      10.34249095      10.24607568      -0.67500000
In       0.03164741       5.88992072       5.88904797       0.67500000
In       2.94258550       6.03401434       8.91093511       0.67500000
In      -0.00902008       8.85986181       8.80466726       0.67500000
In       3.02982848       8.77995012       5.95726227       0.67500000
P        7.38302294       1.49607527       4.41182020      -0.67500000
P       10.36357321       1.48470812       1.50249276      -0.67500000
P        7.42506364       4.43124928       1.44795317      -0.67500000
P       10.32304569       4.41955917       4.43906642      -0.67500000
In       5.89174268      -0.04779658       0.00030352       0.67500000
In       8.85383465      -0.00578874       2.95507884       0.67500000
In       5.90543115       2.95316215       2.89729148       0.67500000
In       8.92078552       2.97493798      -0.00752829       0.67500000
P        7.44600377       1.42312848      10.38878401      -0.67500000
P       10.33646239       1.48418366       7.33922848      -0.67500000
P        7.17729074       4.51368963       7.26447085      -0.67500000
P       10.34249113       4.43142194      10.24607578      -0.67500000
In       5.88992084       0.03164729       5.88904808       0.67500000
In       8.85986198      -0.00902024       8.80466741       0.67500000
In       6.03401451       2.94258533       8.91093520       0.67500000
In       8.77995023       3.02982836       5.95726237       0.67500000
P        7.18530593       7.18530589       4.60689750      -0.67500000
P       10.29432841       7.36816481       1.49803589      -0.67500000
P        7.36816482      10.29432840       1.49803584      -0.67500000
P       10.32883671      10.32883666       4.43261635      -0.67500000
In       5.90876619       5.90876618       0.00195073       0.67500000
In       8.77362178       5.93697025       3.04964610       0.67500000
In       5.93697031       8.77362174       3.04964604       0.67500000
In       8.83325005       8.83325003      -0.00938053       0.67500000
P        7.37346519       7.37346503      10.29260400      -0.67500000
P       10.31464210       7.36638355       7.34906036      -0.67500000
P        7.36638366      10.31464199       7.34906032      -0.67500000
P       10.32895097      10.32895081      10.32092629      -0.67500000
In       8.75551451       5.85042190       8.74300131       0.67500000
In       5.85042207       8.75551434       8.74300125       0.67500000
In       8.77497348       8.77497337       5.82670243       0.67500000
63
Lattice="11.8016818 -7.6e-06 -7.6e-06 -7.6e-06 11.8016818 -7.8e-06 -7.6e-06 -7.8e-06 11.8016816" Properties=species:S:1:pos:R:3:mulliken_charges:R:1 virial="-0.001343979365248383 3.847269175329341e-05 3.847269175329341e-05 3.847269175329341e-05 -0.001345261788306826 3.847269175329341e-05 3.847269175329341e-05 3.847269175329341e-05 -0.0013426969421899398" fermi_energy=3.4539138232004998 core_to_fermi_energy=15.43004959127955 config_type=Accurate_Bulk energy=-267.4934477251666 pbc="T T T"
P        1.64413793       1.64413789       4.61091816      -0.67500000
P        4.40596675       1.42285188       1.45978685      -0.67500000
P        1.42285187       4.40596674       1.45978680      -0.67500000
P        4.79957492       4.79957489       4.14977950      -0.67500000
In       0.01013359       0.01013357      -0.00028947       0.67500000
In       2.89594663       0.06844625       3.06050238       0.67500000
In       0.06844630       2.89594657       3.06050233       0.67500000
In       2.96979948       2.96979947       0.01193294       0.67500000
P        1.48947970       1.48947955      10.31296233      -0.67500000
P        4.46008078       1.61247829       7.35637079      -0.67500000
P        1.61247842       4.46008063       7.35637069      -0.67500000
P        4.43024873       4.43024858      10.32610839      -0.67500000
In       0.06236652       0.06236641       5.81695518       0.67500000
In       2.95758950       0.07074434       8.76707968       0.67500000
In       0.07074453       2.95758934       8.76707961       0.67500000
In       4.02980971       4.02980952       6.36945262       0.67500000
P        1.48753657       7.38135955       4.41350266      -0.67500000
P        4.42924469       7.42888899       1.44579458      -0.67500000
P        1.48183501      10.36130920       1.49933283      -0.67500000
P        4.42009742      10.32313753       4.44177807      -0.67500000
In      -0.05946960       5.88753309      -0.00292210       0.67500000
In       2.92546862       5.91744946       2.87842196       0.67500000
In      -0.00823536       8.85469778       2.95437903       0.67500000
In       2.97423701       8.92414078      -0.00927973       0.67500000
P        1.41003317       7.45237161      10.39826337      -0.67500000
P        4.49044452       7.15761427       7.27493409      -0.67500000
P        1.48486027      10.33550270       7.33958209      -0.67500000
P        4.42988514      10.33657750      10.23458493      -0.67500000
In       0.04091152       5.87746405       5.90076083       0.67500000
In       2.90660382       6.02709359       8.92820300       0.67500000
In      -0.01105448       8.86060198       8.80223210       0.67500000
In       3.02303228       8.77939298       5.95031512       0.67500000
P        7.38135960       1.48753653       4.41350276      -0.67500000
P       10.36130921       1.48183500       1.49933298      -0.67500000
P        7.42888899       4.42924468       1.44579463      -0.67500000
P       10.32313758       4.42009737       4.44177817      -0.67500000
In       5.88753310      -0.05946962      -0.00292199       0.67500000
In       8.85469784      -0.00823542       2.95437918       0.67500000
In       5.91744951       2.92546858       2.87842202       0.67500000
In       8.92414081       2.97423700      -0.00927962       0.67500000
P        7.45237178       1.41003300      10.39826349      -0.67500000
P       10.33550281       1.48486016       7.33958225      -0.67500000
P        7.15761440       4.49044437       7.27493420      -0.67500000
P       10.33657768       4.42988497      10.23458502      -0.67500000
In       5.87746417       0.04091140       5.90076093       0.67500000
In       8.86060215      -0.01105465       8.80223225       0.67500000
In       6.02709376       2.90660365       8.92820310       0.67500000
In       8.77939309       3.02303216       5.95031522       0.67500000
P        7.17900984       7.17900981       4.61268902      -0.67500000
P       10.28965819       7.36722159       1.49858482      -0.67500000
P        7.36722160      10.28965818       1.49858477      -0.67500000
P       10.32439625      10.32439620       4.43088636      -0.67500000
In       5.90157306       5.90157305       0.00610435       0.67500000
In       8.77160521       5.93708169       3.05419914       0.67500000
In       5.93708175       8.77160516       3.05419909       0.67500000
In       8.83336865       8.83336863      -0.00922750       0.67500000
P        7.36891797       7.36891781      10.29670218      -0.67500000
P       10.31168955       7.36308390       7.34737411      -0.67500000
P        7.36308401      10.31168944       7.34737407      -0.67500000
P       10.32730346      10.32730330      10.31981881      -0.67500000
In       8.74514389       5.85388541       8.74028702       0.67500000
In       5.85388557       8.74514372       8.74028696       0.67500000
In       8.77508068       8.77508057       5.82288916       0.67500000
63