63
Lattice="11.8016818 -7.6e-06 -7.6e-06 -7.6e-06 11.8016818 -7.8e-06 -7.6e-06 -7.8e-06 11.8016816" Properties=species:S:1:pos:R:3:mulliken_charges:R:1 virial="-0.001343979365248383 3.847269175329341e-05 3.847269175329341e-05 3.847269175329341e-05 -0.001345261788306826 3.847269175329341e-05 3.847269175329341e-05 3.847269175329341e-05 -0.0013426969421899398" fermi_energy=3.4539138232004998 core_to_fermi_energy=15.43004959127955 config_type=Accurate_Bulk energy=-268.7783653991143 pbc="T T T"
P        1.48728439       1.48728434       4.43468494      -0.67500000
P        4.43468501       1.48728439       1.48728439      -0.67500000
P        1.48728439       4.43468500       1.48728434      -0.67500000
P        4.59078324       4.59078321       4.59078316      -0.67500000
In       0.00000092       0.00000090       0.00000090       0.67500000
In       2.96815545       0.00040526       2.96815535       0.67500000
In       0.00040532       2.96815539       2.96815530       0.67500000
In       2.96815545       2.96815543       0.00040526       0.67500000
P        1.47871566       1.47871550      10.32295535      -0.67500000
P        4.42921863       1.49412206       7.37245209      -0.67500000
P        1.49412215       4.42921853       7.37245204      -0.67500000
P        4.42921475       4.42921459      10.30754389      -0.67500000
In      -0.00000274      -0.00000287       5.90084125       0.67500000
In       2.96815145      -0.00041502       8.83352392       0.67500000
In      -0.00041485       2.96815128       8.83352387       0.67500000
In       3.03147937       3.03147926       5.84623720       0.67500000
P        1.49412215       7.37245219       4.42921847      -0.67500000
P        4.42921863       7.37245224       1.49412205      -0.67500000
P        1.47871566      10.32295554       1.47871549      -0.67500000
P        4.42921474      10.30754409       4.42921453      -0.67500000
In      -0.00000274       5.90084135      -0.00000287       0.67500000
In       3.03147938       5.84623731       3.03147920       0.67500000
In      -0.00041485       8.83352399       2.96815119       0.67500000
In       2.96815145       8.83352404      -0.00041503       0.67500000
P        1.48727575       7.36698660      10.31438703      -0.67500000
P        4.59077432       7.21088721       7.21088706      -0.67500000
P        1.48727574      10.31438723       7.36698645      -0.67500000
P        4.43467316      10.31438336      10.31438316      -0.67500000
In      -0.00000718       5.90083713       5.90083703       0.67500000
In       3.03147352       5.95543397       8.77019335       0.67500000
In       0.00039705       8.83351992       8.83351980       0.67500000
In       3.03147352       8.77019349       5.95543388       0.67500000
P        7.37245225       1.49412210       4.42921857      -0.67500000
P       10.32295555       1.47871565       1.47871564      -0.67500000
P        7.37245224       4.42921863       1.49412210      -0.67500000
P       10.30754414       4.42921469       4.42921463      -0.67500000
In       5.90084136      -0.00000277      -0.00000277       0.67500000
In       8.83352405      -0.00041491       2.96815134       0.67500000
In       5.84623737       3.03147933       3.03147926       0.67500000
In       8.83352406       2.96815143      -0.00041492       0.67500000
P        7.36698677       1.48727558      10.31438714      -0.67500000
P       10.31438735       1.48727563       7.36698661      -0.67500000
P        7.21088736       4.59077417       7.21088718      -0.67500000
P       10.31438353       4.43467299      10.31438327      -0.67500000
In       5.90083724      -0.00000729       5.90083713       0.67500000
In       8.83352009       0.00039688       8.83351996       0.67500000
In       5.95543413       3.03147334       8.77019342       0.67500000
In       8.77019361       3.03147339       5.95543398       0.67500000
P        7.21088736       7.21088733       4.59077412      -0.67500000
P       10.31438735       7.36698675       1.48727563      -0.67500000
P        7.36698677      10.31438734       1.48727558      -0.67500000
P       10.31438353      10.31438347       4.43467293      -0.67500000
In       5.90083724       5.90083723      -0.00000729       0.67500000
In       8.77019360       5.95543407       3.03147333       0.67500000
In       5.95543413       8.77019356       3.03147327       0.67500000
In       8.83352009       8.83352008       0.00039689       0.67500000
P        7.37244454       7.37244438      10.30754032      -0.67500000
P       10.30754061       7.37244443       7.37244429      -0.67500000
P        7.37244454      10.30754051       7.37244423      -0.67500000
P       10.32294398      10.32294382      10.32294363      -0.67500000
In       8.77018918       5.84622924       8.77018894       0.67500000
In       5.84622940       8.77018900       8.77018887       0.67500000
In       8.77018919       8.77018908       5.84622913       0.67500000
63
Lattice="11.8016818 -7.6e-06 -7.6e-06 -7.6e-06 11.8016818 -7.8e-06 -7.6e-06 -7.8e-06 11.8016816" Properties=species:S:1:pos:R:3:mulliken_charges:R:1 virial="-0.001343979365248383 3.847269175329341e-05 3.847269175329341e-05 3.847269175329341e-05 -0.001345261788306826 3.847269175329341e-05 3.847269175329341e-05 3.847269175329341e-05 -0.0013426969421899398" fermi_energy=3.4539138232004998 core_to_fermi_energy=15.43004959127955 config_type=Accurate_Bulk energy=-268.7753758147797 pbc="T T T"
P        1.50664596       1.50664590       4.44773614      -0.67500000
P        4.44773623       1.50664596       1.50664593      -0.67500000
P        1.50664596       4.44773623       1.50664588      -0.67500000
P        4.62457085       4.62457081       4.62457075      -0.67500000
In       0.00709993       0.00709991       0.00709991       0.67500000
In       2.97706262       0.01375725       2.97706255       0.67500000
In       0.01375732       2.97706256       2.97706250       0.67500000
In       2.97706262       2.97706261       0.01375726       0.67500000
P        1.48767253       1.48767237      10.33360972      -0.67500000
P        4.43703323       1.49903697       7.37943364      -0.67500000
P        1.49903707       4.43703313       7.37943359      -0.67500000
P        4.43385245       4.43385229      10.31266351      -0.67500000
In       0.01376825       0.01376813       5.90453981       0.67500000
In       2.97343588       0.00713021       8.84183129       0.67500000
In       0.00713038       2.97343571       8.84183124       0.67500000
In       3.05474449       3.05474438       5.85845855       0.67500000
P        1.49903707       7.37943372       4.43703305      -0.67500000
P        4.43703323       7.37943377       1.49903694      -0.67500000
P        1.48767253      10.33360989       1.48767234      -0.67500000
P        4.43385244      10.31266368       4.43385222      -0.67500000
In       0.01376825       5.90453991       0.01376813       0.67500000
In       3.05474449       5.85845866       3.05474433       0.67500000
In       0.00713038       8.84183139       2.97343566       0.67500000
In       2.97343588       8.84183144       0.00713021       0.67500000
P        1.49173498       7.37492881      10.32333655      -0.67500000
P        4.59006442       7.21980992       7.21980978      -0.67500000
P        1.49173498      10.32333673       7.37492869      -0.67500000
P        4.44149690      10.32481473      10.32481455      -0.67500000
In       0.00369112       5.90540077       5.90540067       0.67500000
In       3.03307236       5.96256123       8.77957779       0.67500000
In       0.00426125       8.83866577       8.83866562       0.67500000
In       3.03307235       8.77957795       5.96256113       0.67500000
P        7.37943377       1.49903702       4.43703316      -0.67500000
P       10.33360990       1.48767252       1.48767249      -0.67500000
P        7.37943377       4.43703323       1.49903699      -0.67500000
P       10.31266373       4.43385239       4.43385232      -0.67500000
In       5.90453992       0.01376823       0.01376823       0.67500000
In       8.84183146       0.00713032       2.97343581       0.67500000
In       5.85845872       3.05474444       3.05474439       0.67500000
In       8.84183146       2.97343586       0.00713031       0.67500000
P        7.37492898       1.49173481      10.32333666      -0.67500000
P       10.32333684       1.49173486       7.37492885      -0.67500000
P        7.21981007       4.59006427       7.21980990      -0.67500000
P       10.32481490       4.44149673      10.32481466      -0.67500000
In       5.90540088       0.00369101       5.90540077       0.67500000
In       8.83866593       0.00426108       8.83866577       0.67500000
In       5.96256139       3.03307218       8.77957786       0.67500000
In       8.77957807       3.03307223       5.96256124       0.67500000
P        7.21981007       7.21981003       4.59006421      -0.67500000
P       10.32333684       7.37492897       1.49173484      -0.67500000
P        7.37492898      10.32333684       1.49173479      -0.67500000
P       10.32481490      10.32481484       4.44149665      -0.67500000
In       5.90540088       5.90540087       0.00369101       0.67500000
In       8.77957806       5.96256133       3.03307219       0.67500000
In       5.96256139       8.77957802       3.03307213       0.67500000
In       8.83866593       8.83866592       0.00426109       0.67500000
P        7.37736994       7.37736979      10.31179003      -0.67500000
P       10.31179031       7.37736984       7.37736971      -0.67500000
P        7.37736994      10.31179021       7.37736966      -0.67500000
P       10.32944853      10.32944837      10.32944820      -0.67500000
In       8.77732601       5.84951970       8.77732575       0.67500000
In       5.84951986       8.77732583       8.77732567       0.67500000
In       8.77732602       8.77732591       5.84951959       0.67500000
63
Lattice="11.8016818 -7.6e-06 -7.6e-06 -7.6e-06 11.8016818 -7.8e-06 -7.6e-06 -7.8e-06 11.8016816" Properties=species:S:1:pos:R:3:mulliken_charges:R:1 virial="-0.001343979365248383 3.847269175329341e-05 3.847269175329341e-05 3.847269175329341e-05 -0.001345261788306826 3.847269175329341e-05 3.847269175329341e-05 3.847269175329341e-05 -0.0013426969421899398" fermi_energy=3.4539138232004998 core_to_fermi_energy=15.43004959127955 config_type=Accurate_Bulk energy=-268.73462243067354 pbc="T T T"
P        1.53737237       1.53737231       4.46391203      -0.67500000
P        4.46391212       1.53737236       1.53737234      -0.67500000
P        1.53737237       4.46391211       1.53737229      -0.67500000
P        4.70804595       4.70804592       4.70804585      -0.67500000
In       0.01003808       0.01003806       0.01003806       0.67500000
In       2.98173660       0.02942926       2.98173653       0.67500000
In       0.02942933       2.98173654       2.98173649       0.67500000
In       2.98173660       2.98173659       0.02942927       0.67500000
P        1.49348937       1.49348920      10.34089215      -0.67500000
P        4.43803408       1.49913509       7.37724031      -0.67500000
P        1.49913519       4.43803396       7.37724025      -0.67500000
P        4.43117231       4.43117215      10.31307447      -0.67500000
In       0.02844438       0.02844426       5.89926060       0.67500000
In       2.97214001       0.01004802       8.84381877       0.67500000
In       0.01004819       2.97213984       8.84381872       0.67500000
In       3.10113311       3.10113299       5.86334008       0.67500000
P        1.49913519       7.37724039       4.43803389      -0.67500000
P        4.43803408       7.37724044       1.49913506      -0.67500000
P        1.49348937      10.34089232       1.49348918      -0.67500000
P        4.43117231      10.31307464       4.43117208      -0.67500000
In       0.02844438       5.89926070       0.02844426       0.67500000
In       3.10113311       5.86334019       3.10113294       0.67500000
In       0.01004819       8.84381887       2.97213979       0.67500000
In       2.97214001       8.84381892       0.01004801       0.67500000
P        1.48889384       7.37677533      10.32785184      -0.67500000
P        4.57318194       7.22048084       7.22048071      -0.67500000
P        1.48889384      10.32785202       7.37677521      -0.67500000
P        4.44328826      10.33064220      10.33064202      -0.67500000
In       0.00119123       5.90341284       5.90341273       0.67500000
In       3.02328284       5.96042020       8.78604122       0.67500000
In       0.00025075       8.83686296       8.83686281       0.67500000
In       3.02328284       8.78604137       5.96042011       0.67500000
P        7.37724044       1.49913513       4.43803400      -0.67500000
P       10.34089234       1.49348936       1.49348933      -0.67500000
P        7.37724044       4.43803407       1.49913511      -0.67500000
P       10.31307470       4.43117225       4.43117218      -0.67500000
In       5.89926071       0.02844436       0.02844436       0.67500000
In       8.84381894       0.01004813       2.97213994       0.67500000
In       5.86334025       3.10113306       3.10113301       0.67500000
In       8.84381894       2.97214000       0.01004812       0.67500000
P        7.37677550       1.48889368      10.32785195      -0.67500000
P       10.32785213       1.48889373       7.37677536      -0.67500000
P        7.22048100       4.57318180       7.22048083      -0.67500000
P       10.33064237       4.44328809      10.33064214      -0.67500000
In       5.90341295       0.00119111       5.90341284       0.67500000
In       8.83686313       0.00025058       8.83686296       0.67500000
In       5.96042037       3.02328267       8.78604129       0.67500000
In       8.78604149       3.02328272       5.96042021       0.67500000
P        7.22048100       7.22048096       4.57318173      -0.67500000
P       10.32785213       7.37677548       1.48889371      -0.67500000
P        7.37677550      10.32785212       1.48889366      -0.67500000
P       10.33064238      10.33064232       4.44328801      -0.67500000
In       5.90341295       5.90341294       0.00119111       0.67500000
In       8.78604148       5.96042031       3.02328268       0.67500000
In       5.96042037       8.78604144       3.02328262       0.67500000
In       8.83686313       8.83686311       0.00025058       0.67500000
P        7.37456010       7.37455994      10.30707581      -0.67500000
P       10.30707609       7.37455999       7.37455986      -0.67500000
P        7.37456010      10.30707598       7.37455981      -0.67500000
P       10.33069195      10.33069179      10.33069162      -0.67500000
In       8.77371807       5.84288083       8.77371781       0.67500000
In       5.84288100       8.77371788       8.77371772       0.67500000
In       8.77371807       8.77371796       5.84288072       0.67500000
63
Lattice="11.8016818 -7.6e-06 -7.6e-06 -7.6e-06 11.8016818 -7.8e-06 -7.6e-06 -7.8e-06 11.8016816" Properties=species:S:1:pos:R:3:mulliken_charges:R:1 virial="-0.001343979365248383 3.847269175329341e-05 3.847269175329341e-05 3.847269175329341e-05 -0.001345261788306826 3.847269175329341e-05 3.847269175329341e-05 3.847269175329341e-05 -0.0013426969421899398" fermi_energy=3.4539138232004998 core_to_fermi_energy=15.43004959127955 config_type=Accurate_Bulk energy=-268.6475472331828 pbc="T T T"
P        1.55613147       1.55613142       4.47139404      -0.67500000
P        4.47139412       1.55613146       1.55613144      -0.67500000
P        1.55613147       4.47139412       1.55613139      -0.67500000
P        4.79154125       4.79154122       4.79154115      -0.67500000
In       0.00841541       0.00841539       0.00841539       0.67500000
In       2.98010750       0.03454031       2.98010744       0.67500000
In       0.03454038       2.98010744       2.98010739       0.67500000
In       2.98010750       2.98010749       0.03454031       0.67500000
P        1.49317194       1.49317178      10.33967301      -0.67500000
P        4.43299286       1.49943497       7.36769407      -0.67500000
P        1.49943508       4.43299274       7.36769401      -0.67500000
P        4.42660324       4.42660308      10.31068878      -0.67500000
In       0.03295746       0.03295734       5.89297354       0.67500000
In       2.96888218       0.00926436       8.83924313       0.67500000
In       0.00926453       2.96888200       8.83924307       0.67500000
In       3.13886846       3.13886834       5.85353406       0.67500000
P        1.49943507       7.36769414       4.43299267      -0.67500000
P        4.43299286       7.36769420       1.49943494      -0.67500000
P        1.49317194      10.33967319       1.49317175      -0.67500000
P        4.42660324      10.31068895       4.42660301      -0.67500000
In       0.03295746       5.89297364       0.03295734       0.67500000
In       3.13886846       5.85353418       3.13886829       0.67500000
In       0.00926453       8.83924323       2.96888195       0.67500000
In       2.96888218       8.83924328       0.00926435       0.67500000
P        1.48557399       7.37277344      10.32630490      -0.67500000
P        4.56003725       7.21332135       7.21332121      -0.67500000
P        1.48557399      10.32630508       7.37277332      -0.67500000
P        4.44147678      10.32822879      10.32822861      -0.67500000
In      -0.00127857       5.89919401       5.89919391       0.67500000
In       3.01402661       5.95273254       8.78536759       0.67500000
In      -0.00308049       8.83353708       8.83353693       0.67500000
In       3.01402661       8.78536775       5.95273244       0.67500000
P        7.36769419       1.49943502       4.43299278      -0.67500000
P       10.33967320       1.49317193       1.49317190      -0.67500000
P        7.36769419       4.43299285       1.49943499      -0.67500000
P       10.31068901       4.42660318       4.42660311      -0.67500000
In       5.89297366       0.03295744       0.03295744       0.67500000
In       8.83924329       0.00926447       2.96888211       0.67500000
In       5.85353423       3.13886841       3.13886836       0.67500000
In       8.83924329       2.96888216       0.00926446       0.67500000
P        7.37277361       1.48557382      10.32630501      -0.67500000
P       10.32630519       1.48557387       7.37277347      -0.67500000
P        7.21332150       4.56003712       7.21332133      -0.67500000
P       10.32822897       4.44147661      10.32822873      -0.67500000
In       5.89919412      -0.00127868       5.89919401       0.67500000
In       8.83353725      -0.00308066       8.83353708       0.67500000
In       5.95273271       3.01402645       8.78536766       0.67500000
In       8.78536786       3.01402650       5.95273255       0.67500000
P        7.21332150       7.21332147       4.56003705      -0.67500000
P       10.32630519       7.37277359       1.48557385      -0.67500000
P        7.37277361      10.32630519       1.48557380      -0.67500000
P       10.32822896      10.32822891       4.44147653      -0.67500000
In       5.89919412       5.89919411      -0.00127868       0.67500000
In       8.78536785       5.95273265       3.01402646       0.67500000
In       5.95273271       8.78536781       3.01402640       0.67500000
In       8.83353725       8.83353723      -0.00308065       0.67500000
P        7.36969834       7.36969817      10.30274519      -0.67500000
P       10.30274548       7.36969823       7.36969810      -0.67500000
P        7.36969834      10.30274537       7.36969805      -0.67500000
P       10.32829906      10.32829890      10.32829873      -0.67500000
In       8.76471287       5.83845147       8.76471260       0.67500000
In       5.83845165       8.76471267       8.76471251       0.67500000
In       8.76471287       8.76471276       5.83845137       0.67500000
63
Lattice="11.8016818 -7.6e-06 -7.6e-06 -7.6e-06 11.8016818 -7.8e-06 -7.6e-06 -7.8e-06 11.8016816" Properties=species:S:1:pos:R:3:mulliken_charges:R:1 virial="-0.001343979365248383 3.847269175329341e-05 3.847269175329341e-05 3.847269175329341e-05 -0.001345261788306826 3.847269175329341e-05 3.847269175329341e-05 3.847269175329341e-05 -0.0013426969421899398" fermi_energy=3.4539138232004998 core_to_fermi_energy=15.43004959127955 config_type=Accurate_Bulk energy=-268.50740325208295 pbc="T T T"
P        1.56749684       1.56749678       4.47581591      -0.67500000
P        4.47581599       1.56749682       1.56749680      -0.67500000
P        1.56749684       4.47581599       1.56749676      -0.67500000
P        4.88277776       4.88277776       4.88277768      -0.67500000
In       0.00736613       0.00736612       0.00736612       0.67500000
In       2.97803573       0.03608958       2.97803567       0.67500000
In       0.03608965       2.97803568       2.97803562       0.67500000
In       2.97803573       2.97803572       0.03608958       0.67500000
P        1.49226101       1.49226085      10.33718729      -0.67500000
P        4.42760680       1.50223040       7.35775078      -0.67500000
P        1.50223051       4.42760668       7.35775072      -0.67500000
P        4.42441289       4.42441273      10.30936744      -0.67500000
In       0.03369071       0.03369060       5.89048033       0.67500000
In       2.96719246       0.00943554       8.83513673       0.67500000
In       0.00943572       2.96719229       8.83513668       0.67500000
In       3.17015495       3.17015482       5.83766746       0.67500000
P        1.50223051       7.35775085       4.42760661      -0.67500000
P        4.42760680       7.35775092       1.50223037      -0.67500000
P        1.49226101      10.33718747       1.49226082      -0.67500000
P        4.42441289      10.30936762       4.42441266      -0.67500000
In       0.03369071       5.89048043       0.03369060       0.67500000
In       3.17015494       5.83766759       3.17015477       0.67500000
In       0.00943571       8.83513683       2.96719223       0.67500000
In       2.96719246       8.83513688       0.00943553       0.67500000
P        1.48491314       7.36952307      10.32396549      -0.67500000
P        4.55256015       7.20397613       7.20397600      -0.67500000
P        1.48491314      10.32396567       7.36952295      -0.67500000
P        4.44110235      10.32395731      10.32395712      -0.67500000
In      -0.00056097       5.89663861       5.89663851       0.67500000
In       3.00777394       5.94491987       8.78400238       0.67500000
In      -0.00384741       8.83224276       8.83224261       0.67500000
In       3.00777394       8.78400254       5.94491978       0.67500000
P        7.35775091       1.50223045       4.42760672      -0.67500000
P       10.33718748       1.49226101       1.49226098      -0.67500000
P        7.35775091       4.42760679       1.50223043      -0.67500000
P       10.30936767       4.42441283       4.42441276      -0.67500000
In       5.89048045       0.03369069       0.03369069       0.67500000
In       8.83513690       0.00943565       2.96719239       0.67500000
In       5.83766762       3.17015488       3.17015484       0.67500000
In       8.83513690       2.96719244       0.00943565       0.67500000
P        7.36952324       1.48491298      10.32396560      -0.67500000
P       10.32396578       1.48491303       7.36952310      -0.67500000
P        7.20397629       4.55256003       7.20397613      -0.67500000
P       10.32395749       4.44110217      10.32395725      -0.67500000
In       5.89663873      -0.00056108       5.89663862       0.67500000
In       8.83224293      -0.00384758       8.83224277       0.67500000
In       5.94492005       3.00777378       8.78400245       0.67500000
In       8.78400265       3.00777384       5.94491989       0.67500000
P        7.20397629       7.20397626       4.55255996      -0.67500000
P       10.32396578       7.36952322       1.48491301      -0.67500000
P        7.36952324      10.32396578       1.48491295      -0.67500000
P       10.32395748      10.32395743       4.44110210      -0.67500000
In       5.89663872       5.89663872      -0.00056108       0.67500000
In       8.78400264       5.94491998       3.00777379       0.67500000
In       5.94492005       8.78400260       3.00777373       0.67500000
In       8.83224293       8.83224292      -0.00384757       0.67500000
P        7.36653393       7.36653377      10.30113688      -0.67500000
P       10.30113716       7.36653382       7.36653369      -0.67500000
P        7.36653393      10.30113705       7.36653364      -0.67500000
P       10.32667183      10.32667167      10.32667150      -0.67500000
In       8.75668279       5.83868054       8.75668252       0.67500000
In       5.83868071       8.75668258       8.75668243       0.67500000
In       8.75668279       8.75668267       5.83868043       0.67500000
63
Lattice="11.8016818 -7.6e-06 -7.6e-06 -7.6e-06 11.8016818 -7.8e-06 -7.6e-06 -7.8e-06 11.8016816" Properties=species:S:1:pos:R:3:mulliken_charges:R:1 virial="-0.001343979365248383 3.847269175329341e-05 3.847269175329341e-05 3.847269175329341e-05 -0.001345261788306826 3.847269175329341e-05 3.847269175329341e-05 3.847269175329341e-05 -0.0013426969421899398" fermi_energy=3.4539138232004998 core_to_fermi_energy=15.43004959127955 config_type=Accurate_Bulk energy=-268.3144750632581 pbc="T T T"
P        1.57192469       1.57192463       4.47690777      -0.67500000
P        4.47690785       1.57192467       1.57192464      -0.67500000
P        1.57192469       4.47690785       1.57192461      -0.67500000
P        4.98424650       4.98424652       4.98424643      -0.67500000
In       0.00640754       0.00640752       0.00640752       0.67500000
In       2.97555341       0.03528681       2.97555336       0.67500000
In       0.03528688       2.97555336       2.97555331       0.67500000
In       2.97555342       2.97555341       0.03528682       0.67500000
P        1.49103368       1.49103351      10.33434118      -0.67500000
P        4.42266071       1.50574287       7.34856268      -0.67500000
P        1.50574298       4.42266058       7.34856261      -0.67500000
P        4.42352055       4.42352039      10.30832467      -0.67500000
In       0.03249698       0.03249687       5.88949945       0.67500000
In       2.96587162       0.01007661       8.83207374       0.67500000
In       0.01007678       2.96587145       8.83207368       0.67500000
In       3.19233725       3.19233711       5.81846785       0.67500000
P        1.50574297       7.34856275       4.42266051      -0.67500000
P        4.42266071       7.34856281       1.50574284      -0.67500000
P        1.49103367      10.33434136       1.49103348      -0.67500000
P        4.42352055      10.30832485       4.42352032      -0.67500000
In       0.03249698       5.88949955       0.03249687       0.67500000
In       3.19233724       5.81846797       3.19233706       0.67500000
In       0.01007677       8.83207384       2.96587140       0.67500000
In       2.96587162       8.83207389       0.01007660       0.67500000
P        1.48551235       7.36686371      10.32142437      -0.67500000
P        4.54892613       7.19287414       7.19287400      -0.67500000
P        1.48551234      10.32142455       7.36686359      -0.67500000
P        4.44131487      10.31904778      10.31904760      -0.67500000
In       0.00110718       5.89494962       5.89494952       0.67500000
In       3.00283425       5.93722025       8.78281314       0.67500000
In      -0.00372785       8.83217516       8.83217501       0.67500000
In       3.00283424       8.78281329       5.93722015       0.67500000
P        7.34856280       1.50574292       4.42266063      -0.67500000
P       10.33434137       1.49103367       1.49103364      -0.67500000
P        7.34856280       4.42266070       1.50574289      -0.67500000
P       10.30832490       4.42352049       4.42352042      -0.67500000
In       5.88949957       0.03249696       0.03249696       0.67500000
In       8.83207391       0.01007672       2.96587155       0.67500000
In       5.81846800       3.19233717       3.19233713       0.67500000
In       8.83207390       2.96587160       0.01007672       0.67500000
P        7.36686388       1.48551218      10.32142448      -0.67500000
P       10.32142466       1.48551223       7.36686374      -0.67500000
P        7.19287430       4.54892601       7.19287414      -0.67500000
P       10.31904796       4.44131469      10.31904772      -0.67500000
In       5.89494973       0.00110706       5.89494962       0.67500000
In       8.83217533      -0.00372801       8.83217517       0.67500000
In       5.93722043       3.00283409       8.78281320       0.67500000
In       8.78281340       3.00283415       5.93722027       0.67500000
P        7.19287430       7.19287427       4.54892594      -0.67500000
P       10.32142466       7.36686386       1.48551221      -0.67500000
P        7.36686388      10.32142466       1.48551216      -0.67500000
P       10.31904796      10.31904790       4.44131462      -0.67500000
In       5.89494973       5.89494972       0.00110706       0.67500000
In       8.78281340       5.93722036       3.00283410       0.67500000
In       5.93722043       8.78281335       3.00283404       0.67500000
In       8.83217533       8.83217532      -0.00372801       0.67500000
P        7.36420351       7.36420335      10.30081995      -0.67500000
P       10.30082023       7.36420340       7.36420327      -0.67500000
P        7.36420351      10.30082012       7.36420322      -0.67500000
P       10.32526093      10.32526077      10.32526059      -0.67500000
In       8.75062916       5.84194847       8.75062889       0.67500000
In       5.84194866       8.75062895       8.75062880       0.67500000
In       8.75062916       8.75062904       5.84194837       0.67500000
63