65
Lattice="11.801682 -8e-06 -8e-06 -8e-06 11.801682 -8e-06 -8e-06 -8e-06 11.801682" Properties=species:S:1:pos:R:3:mulliken_charges:R:1:hirshfeld_charges:R:1 fermi_energy=3.718544537463 core_to_fermi_energy=15.690571930710242 config_type=Interstitial energy=-276.44767695642395 pbc="T T T"
P        1.40583509       1.45557830       4.45431551      -0.64200000      -0.23000000
P        3.95803041       2.21533792       2.21533792      -0.45200000      -0.16000000
P        1.40583509       4.45431551       1.45557830      -0.64200000      -0.23000000
P        4.45453478       4.45421025       4.45421025      -0.66200000      -0.24000000
P        1.40582706       1.44942489      10.25237702      -0.64200000      -0.23000000
P        4.41202713       1.45250371       7.35334330      -0.67600000      -0.24000000
P        1.46482231       4.40140984       7.34126040      -0.67400000      -0.24000000
P        4.41092781       4.40750381      10.29918148      -0.67200000      -0.23000000
P        1.46482231       7.34126040       4.40140984      -0.67400000      -0.24000000
P        4.41202713       7.35334330       1.45250371      -0.67600000      -0.24000000
P        1.40582706      10.25237702       1.44942489      -0.64200000      -0.23000000
P        4.41092781      10.29918148       4.40750381      -0.67200000      -0.23000000
P        1.46481109       7.36542527      10.30527782      -0.67400000      -0.24000000
P        4.37765385       7.35335728       7.35335728      -0.68100000      -0.24000000
P        1.46481109      10.30527782       7.36542527      -0.67400000      -0.24000000
P        4.45450050      10.25250837      10.25250837      -0.66200000      -0.24000000
P        7.42893199       1.42157322       4.44991607      -0.67600000      -0.24000000
P       10.31231067       1.45250053       1.45250053      -0.67700000      -0.24000000
P        7.42893199       4.44991607       1.42157322      -0.67600000      -0.24000000
P       10.31787181       4.41576612       4.41576612      -0.67400000      -0.24000000
P        7.42891240       1.48342942      10.25678559      -0.67600000      -0.24000000
P       10.29192769       1.45249785       7.35334632      -0.68000000      -0.24000000
P        7.35397766       4.40797054       7.36764173      -0.67500000      -0.24000000
P       10.32424760       4.41759486      10.28908345      -0.67600000      -0.24000000
P        7.35397766       7.36764173       4.40797054      -0.67500000      -0.24000000
P       10.29192769       7.35334632       1.45249785      -0.68000000      -0.24000000
P        7.42891240      10.25678559       1.48342942      -0.67600000      -0.24000000
P       10.32424760      10.28908345       4.41759486      -0.67600000      -0.24000000
P        7.35396577       7.33904913      10.29871936      -0.67500000      -0.24000000
P       10.30536049       7.35333958       7.35333958      -0.67500000      -0.24000000
P        7.35396577      10.29871936       7.33904913      -0.67500000      -0.24000000
P       10.31785294      10.29091224      10.29091224      -0.67400000      -0.24000000
In      -0.02220908      -0.02778733      -0.02778733       0.67600000       0.24000000
In       2.82262424      -0.09305675       2.99806546       0.73400000       0.26000000
In      -0.02220997       2.93280324       2.93280324       0.67600000       0.24000000
In       2.82262424       2.99806546      -0.09305675       0.73400000       0.26000000
In      -0.03736076      -0.03115928       5.91606942       0.65600000       0.23000000
In       2.95215685      -0.03042261       8.84612327       0.68200000       0.25000000
In      -0.03736145       2.93617566       8.79063145       0.65600000       0.23000000
In       2.95216696       2.93543637       5.86055919       0.68200000       0.25000000
In      -0.03736076       5.91606942      -0.03115928       0.65600000       0.23000000
In       2.95216696       5.86055919       2.93543637       0.68200000       0.25000000
In      -0.03736145       8.79063145       2.93617566       0.65600000       0.23000000
In       2.95215685       8.84612327      -0.03042261       0.68200000       0.25000000
In      -0.00820424       5.88911445       5.88911445       0.68000000       0.24000000
In       2.91763610       5.87555188       8.83113929       0.68600000       0.24000000
In      -0.00821458       8.81758286       8.81758286       0.68000000       0.24000000
In       2.91763610       8.83113929       5.87555188       0.68600000       0.24000000
In       6.12609898      -0.14984828      -0.14984828       0.63300000       0.22000000
In       8.87926417      -0.03576721       2.94077583       0.68600000       0.24000000
In       6.12612967       3.05488838       3.05488838       0.63300000       0.22000000
In       8.87926417       2.94077583      -0.03576721       0.68600000       0.24000000
In       5.87365458      -0.01931947       5.87651166       0.68700000       0.24000000
In       8.85242451      -0.04995807       8.80407286       0.67800000       0.24000000
In       5.87365096       2.92432813       8.83017808       0.68700000       0.24000000
In       8.85243566       2.95496777       5.90262639       0.67800000       0.24000000
In       5.87365458       5.87651166      -0.01931947       0.68700000       0.24000000
In       8.85243566       5.90262639       2.95496777       0.67800000       0.24000000
In       5.87365096       8.83017808       2.92432813       0.68700000       0.24000000
In       8.85242451       8.80407286      -0.04995807       0.67800000       0.24000000
In       5.89094637       5.91864291       5.91864291       0.66100000       0.23000000
In       8.83631196       5.87703987       8.82965378       0.67900000       0.24000000
In       5.89092896       8.78808164       8.78808164       0.66100000       0.23000000
In       8.83631196       8.82965378       5.87703987       0.67900000       0.24000000
P        3.95804041       0.68978033       0.68978033      -0.45200000      -0.16000000
65
Lattice="11.801682 -8e-06 -8e-06 -8e-06 11.801682 -8e-06 -8e-06 -8e-06 11.801682" Properties=species:S:1:pos:R:3:mulliken_charges:R:1:hirshfeld_charges:R:1 fermi_energy=3.718544537463 core_to_fermi_energy=15.690571930710242 config_type=Interstitial energy=-276.4402982877985 pbc="T T T"
P        1.38647225       1.46015065       4.47706394      -0.64200000      -0.23000000
P        3.96859806       2.14099420       2.25930872      -0.45200000      -0.16000000
P        1.42799412       4.43432984       1.44948191      -0.64200000      -0.23000000
P        4.45110018       4.44900057       4.45349976      -0.66200000      -0.24000000
P        1.39481207       1.44961883      10.23711149      -0.64200000      -0.23000000
P        4.41120105       1.45426355       7.35336183      -0.67600000      -0.24000000
P        1.45970765       4.40961675       7.34326021      -0.67400000      -0.24000000
P        4.41524262       4.41308469      10.29400348      -0.67200000      -0.23000000
P        1.46467283       7.33916378       4.39447322      -0.67400000      -0.24000000
P        4.41082075       7.35665948       1.45150229      -0.67600000      -0.24000000
P        1.42387391      10.27306480       1.46006886      -0.64200000      -0.23000000
P        4.41569541      10.28673696       4.42403440      -0.67200000      -0.23000000
P        1.46741802       7.37057455      10.31384002      -0.67400000      -0.24000000
P        4.38136790       7.34570558       7.35366014      -0.68100000      -0.24000000
P        1.45638558      10.29729179       7.36224204      -0.67400000      -0.24000000
P        4.45051382      10.25224862      10.23845363      -0.66200000      -0.24000000
P        7.43615315       1.41787983       4.46069346      -0.67600000      -0.24000000
P       10.31018541       1.45475135       1.45250684      -0.67700000      -0.24000000
P        7.41806185       4.44389582       1.42604870      -0.67600000      -0.24000000
P       10.31954736       4.41718085       4.40824430      -0.67400000      -0.24000000
P        7.43569493       1.49274407      10.24523048      -0.67600000      -0.24000000
P       10.28490306       1.45346056       7.35666779      -0.68000000      -0.24000000
P        7.35971111       4.41594719       7.36423058      -0.67500000      -0.24000000
P       10.32372172       4.42238770      10.29455026      -0.67600000      -0.24000000
P        7.35378577       7.36772403       4.39979850      -0.67500000      -0.24000000
P       10.30039270       7.35316999       1.44992742      -0.68000000      -0.24000000
P        7.41262598      10.27154941       1.47235781      -0.67600000      -0.24000000
P       10.31913855      10.28695036       4.40859238      -0.67600000      -0.24000000
P        7.35583341       7.34319770      10.30421172      -0.67500000      -0.24000000
P       10.30551771       7.35482750       7.35288419      -0.67500000      -0.24000000
P        7.35997224      10.29401580       7.34073684      -0.67500000      -0.24000000
P       10.32123638      10.29288985      10.30033282      -0.67400000      -0.24000000
In      -0.01633954      -0.02034091      -0.02405661       0.67600000       0.24000000
In       2.82002517      -0.09135117       3.04594856       0.73400000       0.26000000
In      -0.01806113       2.93006574       2.93053029       0.67600000       0.24000000
In       2.83385067       2.98378405      -0.11451457       0.73400000       0.26000000
In      -0.05489947      -0.03860015       5.92242126       0.65600000       0.23000000
In       2.94201375      -0.03184970       8.83567829       0.68200000       0.25000000
In      -0.04688243       2.94361633       8.78638821       0.65600000       0.23000000
In       2.94548068       2.93882846       5.86759373       0.68200000       0.25000000
In      -0.02379022       5.90739851      -0.02500316       0.65600000       0.23000000
In       2.95606279       5.85839997       2.93240189       0.68200000       0.25000000
In      -0.02946902       8.79806194       2.92889438       0.65600000       0.23000000
In       2.95672906       8.85781009      -0.02722301       0.68200000       0.25000000
In      -0.01131458       5.89214852       5.88348598       0.68000000       0.24000000
In       2.91394506       5.88067959       8.83453501       0.68600000       0.24000000
In      -0.01188779       8.81537348       8.82499765       0.68000000       0.24000000
In       2.91415681       8.81764947       5.88207442       0.68600000       0.24000000
In       6.11899897      -0.13777769      -0.17615254       0.63300000       0.22000000
In       8.87206406      -0.03471282       2.93534649       0.68600000       0.24000000
In       6.12585192       3.04501435       3.06737561       0.63300000       0.22000000
In       8.87638657       2.94427649      -0.03360015       0.68600000       0.24000000
In       5.87734404      -0.02156464       5.88404155       0.68700000       0.24000000
In       8.85560339      -0.05437790       8.80807007       0.67800000       0.24000000
In       5.87691318       2.93184843       8.82193620       0.68700000       0.24000000
In       8.85758142       2.96011633       5.90209253       0.67800000       0.24000000
In       5.87352559       5.88026354      -0.01846035       0.68700000       0.24000000
In       8.85286960       5.90260963       2.94692473       0.67800000       0.24000000
In       5.87328479       8.83366426       2.91992577       0.68700000       0.24000000
In       8.85150831       8.80989920      -0.04124703       0.67800000       0.24000000
In       5.89231492       5.91655001       5.91023002       0.66100000       0.23000000
In       8.83791318       5.88331000       8.83415687       0.67900000       0.24000000
In       5.89385876       8.78389426       8.78491993       0.66100000       0.23000000
In       8.83666623       8.82592957       5.87124879       0.67900000       0.24000000
P        3.95256890       0.72125040       0.64345993      -0.45200000      -0.16000000
65
Lattice="11.801682 -8e-06 -8e-06 -8e-06 11.801682 -8e-06 -8e-06 -8e-06 11.801682" Properties=species:S:1:pos:R:3:mulliken_charges:R:1:hirshfeld_charges:R:1 fermi_energy=3.718544537463 core_to_fermi_energy=15.690571930710242 config_type=Interstitial energy=-276.4174791790431 pbc="T T T"
P        1.37190020       1.46065229       4.49133917      -0.64200000      -0.23000000
P        3.99864239       2.05233584       2.32132660      -0.45200000      -0.16000000
P        1.44611680       4.41847631       1.44467617      -0.64200000      -0.23000000
P        4.44851245       4.44963990       4.45364165      -0.66200000      -0.24000000
P        1.38610402       1.45142002      10.22432111      -0.64200000      -0.23000000
P        4.41015415       1.45502697       7.35256178      -0.67600000      -0.24000000
P        1.45728236       4.41256745       7.34066967      -0.67400000      -0.24000000
P        4.42087059       4.42514818      10.28191064      -0.67200000      -0.23000000
P        1.46247026       7.33762020       4.38936153      -0.67400000      -0.24000000
P        4.40978553       7.35768419       1.45081360      -0.67600000      -0.24000000
P        1.43728105      10.28591864       1.46521465      -0.64200000      -0.23000000
P        4.42164363      10.26613732       4.44406844      -0.67200000      -0.23000000
P        1.46626428       7.37235341      10.31743335      -0.67400000      -0.24000000
P        4.38664287       7.34134632       7.35625116      -0.68100000      -0.24000000
P        1.45013523      10.29257563       7.36033091      -0.67400000      -0.24000000
P        4.44303009      10.25087459      10.23072491      -0.66200000      -0.24000000
P        7.44092219       1.41875823       4.46846257      -0.67600000      -0.24000000
P       10.30833798       1.45521987       1.45194155      -0.67700000      -0.24000000
P        7.41357171       4.44426754       1.42413203      -0.67600000      -0.24000000
P       10.32205528       4.41549359       4.40066882      -0.67400000      -0.24000000
P        7.43625692       1.49630828      10.23924487      -0.67600000      -0.24000000
P       10.27960076       1.45299280       7.35963090      -0.68000000      -0.24000000
P        7.36487324       4.42057628       7.36151769      -0.67500000      -0.24000000
P       10.32272838       4.42369766      10.29747385      -0.67600000      -0.24000000
P        7.35611219       7.36695817       4.39537487      -0.67500000      -0.24000000
P       10.30615451       7.35405300       1.44626715      -0.68000000      -0.24000000
P        7.39625517      10.28406780       1.46530027      -0.67600000      -0.24000000
P       10.31402438      10.28676234       4.40122761      -0.67600000      -0.24000000
P        7.35868261       7.34849985      10.30643851      -0.67500000      -0.24000000
P       10.30604337       7.35518139       7.35196902      -0.67500000      -0.24000000
P        7.36366277      10.29259567       7.34121305      -0.67500000      -0.24000000
P       10.32312629      10.29616452      10.30758532      -0.67400000      -0.24000000
In      -0.01065473      -0.01326194      -0.02212617       0.67600000       0.24000000
In       2.81046020      -0.11269647       3.09675670       0.73400000       0.26000000
In      -0.01334465       2.92517067       2.92651686       0.67600000       0.24000000
In       2.83775900       2.98932970      -0.14513372       0.73400000       0.26000000
In      -0.06803000      -0.04359898       5.92654567       0.65600000       0.23000000
In       2.93434979      -0.03188899       8.82924952       0.68200000       0.25000000
In      -0.05354968       2.94867625       8.78085994       0.65600000       0.23000000
In       2.94258402       2.93804137       5.86742671       0.68200000       0.25000000
In      -0.01571588       5.89966760      -0.02173846       0.65600000       0.23000000
In       2.95769416       5.85816461       2.93038017       0.68200000       0.25000000
In      -0.02571204       8.80379415       2.92315027       0.65600000       0.23000000
In       2.95775254       8.85993628      -0.02569810       0.68200000       0.25000000
In      -0.01430206       5.89200186       5.87839445       0.68000000       0.24000000
In       2.90886210       5.88645608       8.83102139       0.68600000       0.24000000
In      -0.01645446       8.81561930       8.82958346       0.68000000       0.24000000
In       2.90969108       8.80274192       5.89177097       0.68600000       0.24000000
In       6.10463658      -0.13139041      -0.19433567       0.63300000       0.22000000
In       8.86359081      -0.03191034       2.93178672       0.68600000       0.24000000
In       6.13356910       3.05316237       3.07995954       0.63300000       0.22000000
In       8.87357383       2.94345356      -0.03384367       0.68600000       0.24000000
In       5.87927265      -0.02167087       5.88680564       0.68700000       0.24000000
In       8.85599882      -0.05652239       8.81168911       0.67800000       0.24000000
In       5.88012131       2.93595490       8.81518266       0.68700000       0.24000000
In       8.86298448       2.96236226       5.90196959       0.67800000       0.24000000
In       5.87418843       5.88667366      -0.02111253       0.68700000       0.24000000
In       8.85572624       5.90345078       2.94121326       0.67800000       0.24000000
In       5.87443435       8.83218242       2.91814598       0.68700000       0.24000000
In       8.84909077       8.81713782      -0.03450600       0.67800000       0.24000000
In       5.89475598       5.91636557       5.90651862       0.66100000       0.23000000
In       8.83937631       5.88731753       8.83672498       0.67900000       0.24000000
In       5.89632704       8.78489620       8.78415717       0.66100000       0.23000000
In       8.83754393       8.82450241       5.86846105       0.67900000       0.24000000
P        3.95143237       0.78149687       0.60795658      -0.45200000      -0.16000000
65
Lattice="11.801682 -8e-06 -8e-06 -8e-06 11.801682 -8e-06 -8e-06 -8e-06 11.801682" Properties=species:S:1:pos:R:3:mulliken_charges:R:1:hirshfeld_charges:R:1 fermi_energy=3.718544537463 core_to_fermi_energy=15.690571930710242 config_type=Interstitial energy=-276.37999155205733 pbc="T T T"
P        1.36277065       1.46013961       4.49759177      -0.64200000      -0.23000000
P        4.06292428       1.94040740       2.38505730      -0.45200000      -0.16000000
P        1.45787054       4.40813903       1.44285586      -0.64200000      -0.23000000
P        4.44348949       4.45206526       4.45220138      -0.66200000      -0.24000000
P        1.38210491       1.45548657      10.21650869      -0.64200000      -0.23000000
P        4.40883112       1.45567549       7.35226227      -0.67600000      -0.24000000
P        1.45597110       4.41302404       7.33646426      -0.67400000      -0.24000000
P        4.42554948       4.43877286      10.26894433      -0.67200000      -0.23000000
P        1.45883100       7.33759783       4.38626711      -0.67400000      -0.24000000
P        4.40860571       7.35849752       1.45066713      -0.67600000      -0.24000000
P        1.44367425      10.29209160       1.46561611      -0.64200000      -0.23000000
P        4.42555508      10.24417401       4.46402860      -0.67200000      -0.23000000
P        1.46359491       7.37264448      10.31840789      -0.67400000      -0.24000000
P        4.39173573       7.33707894       7.35914284      -0.68100000      -0.24000000
P        1.44560644      10.29047638       7.35907317      -0.67400000      -0.24000000
P        4.43478201      10.24726517      10.22432299      -0.66200000      -0.24000000
P        7.44176701       1.42456471       4.47275455      -0.67600000      -0.24000000
P       10.30748036       1.45549141       1.45173348      -0.67700000      -0.24000000
P        7.41489993       4.45105247       1.41680979      -0.67600000      -0.24000000
P       10.32317817       4.41346550       4.39503794      -0.67400000      -0.24000000
P        7.43323597       1.49599960      10.23710419      -0.67600000      -0.24000000
P       10.27738559       1.45203577       7.36268617      -0.68000000      -0.24000000
P        7.36835003       4.42290336       7.35935466      -0.67500000      -0.24000000
P       10.32128154       4.42328228      10.29905272      -0.67600000      -0.24000000
P        7.35819561       7.36675838       4.39274371      -0.67500000      -0.24000000
P       10.30981798       7.35572197       1.44225638      -0.68000000      -0.24000000
P        7.38148880      10.29492621       1.46005091      -0.67600000      -0.24000000
P       10.30833973      10.28866427       4.39525330      -0.67600000      -0.24000000
P        7.36182241       7.35389879      10.30655513      -0.67500000      -0.24000000
P       10.30628995       7.35538577       7.35114711      -0.67500000      -0.24000000
P        7.36540160      10.29352684       7.34007489      -0.67500000      -0.24000000
P       10.32394416      10.29988289      10.31259070      -0.67400000      -0.24000000
In      -0.00617713      -0.00644006      -0.02198122       0.67600000       0.24000000
In       2.79375823      -0.14646344       3.14189716       0.73400000       0.26000000
In      -0.01016971       2.92168985       2.92333806       0.67600000       0.24000000
In       2.83817961       3.00627304      -0.17161159       0.73400000       0.26000000
In      -0.07675267      -0.04612042       5.92773443       0.65600000       0.23000000
In       2.92872528      -0.03106021       8.82598742       0.68200000       0.25000000
In      -0.05713031       2.95233955       8.77684630       0.65600000       0.23000000
In       2.94121535       2.93474308       5.86513213       0.68200000       0.25000000
In      -0.01152035       5.89389245      -0.02067803       0.65600000       0.23000000
In       2.95608685       5.86051627       2.92852842       0.68200000       0.25000000
In      -0.02581405       8.80823641       2.91929819       0.65600000       0.23000000
In       2.95702387       8.85811203      -0.02520463       0.68200000       0.25000000
In      -0.01721050       5.89096372       5.87440713       0.68000000       0.24000000
In       2.90340934       5.89142052       8.82538111       0.68600000       0.24000000
In      -0.02075492       8.81725087       8.83216144       0.68000000       0.24000000
In       2.90592124       8.78866701       5.90247159       0.68600000       0.24000000
In       6.08632630      -0.12971605      -0.20837890       0.63300000       0.22000000
In       8.85379670      -0.02681347       2.92933325       0.68600000       0.24000000
In       6.14817661       3.07995834       3.09241953       0.63300000       0.22000000
In       8.87132661       2.93987308      -0.03514151       0.68600000       0.24000000
In       5.87904990      -0.02006447       5.88585563       0.68700000       0.24000000
In       8.85514953      -0.05743648       8.81382607       0.67800000       0.24000000
In       5.88264957       2.93821971       8.81110954       0.68700000       0.24000000
In       8.86771084       2.96182357       5.90303567       0.67800000       0.24000000
In       5.87424707       5.89480245      -0.02569988       0.68700000       0.24000000
In       8.85938953       5.90633893       2.93744819       0.67800000       0.24000000
In       5.87508045       8.83130934       2.91782205       0.68700000       0.24000000
In       8.84617779       8.82444625      -0.02951676       0.67800000       0.24000000
In       5.89641360       5.91588123       5.90357432       0.66100000       0.23000000
In       8.84021703       5.88959727       8.83774417       0.67900000       0.24000000
In       5.89901621       8.78652750       8.78228295       0.66100000       0.23000000
In       8.83811889       8.82458110       5.86720696       0.67900000       0.24000000
P        3.95085158       0.84255921       0.58558764      -0.45200000      -0.16000000
65
Lattice="11.801682 -8e-06 -8e-06 -8e-06 11.801682 -8e-06 -8e-06 -8e-06 11.801682" Properties=species:S:1:pos:R:3:mulliken_charges:R:1:hirshfeld_charges:R:1 fermi_energy=3.718544537463 core_to_fermi_energy=15.690571930710242 config_type=Interstitial energy=-276.3350840980214 pbc="T T T"
P        1.35920347       1.46042020       4.49736180      -0.64200000      -0.23000000
P        4.15608912       1.82123040       2.43880023      -0.45200000      -0.16000000
P        1.46268662       4.40358257       1.44300290      -0.64200000      -0.23000000
P        4.43614021       4.45505745       4.45098014      -0.66200000      -0.24000000
P        1.38177923       1.46003449      10.21327602      -0.64200000      -0.23000000
P        4.40767379       1.45608594       7.35266260      -0.67600000      -0.24000000
P        1.45510775       4.41247731       7.33285512      -0.67400000      -0.24000000
P        4.42849236       4.44927213      10.25927286      -0.67200000      -0.23000000
P        1.45517154       7.33861066       4.38488736      -0.67400000      -0.24000000
P        4.40752067       7.35851913       1.45104309      -0.67600000      -0.24000000
P        1.44389448      10.29282279       1.46276656      -0.64200000      -0.23000000
P        4.42555191      10.22818662       4.47762255      -0.67200000      -0.23000000
P        1.46097573       7.37245743      10.31804947      -0.67400000      -0.24000000
P        4.39534513       7.33345592       7.36173944      -0.68100000      -0.24000000
P        1.44290294      10.29004511       7.35797116      -0.67400000      -0.24000000
P        4.42801327      10.24321353      10.21936179      -0.66200000      -0.24000000
P        7.43783548       1.43376812       4.47221413      -0.67600000      -0.24000000
P       10.30750005       1.45562934       1.45186316      -0.67700000      -0.24000000
P        7.41995018       4.46083609       1.40738224      -0.67600000      -0.24000000
P       10.32287249       4.41198623       4.39182832      -0.67400000      -0.24000000
P        7.42873661       1.49349481      10.23779383      -0.67600000      -0.24000000
P       10.27744585       1.45103062       7.36495788      -0.68000000      -0.24000000
P        7.37022446       4.42343906       7.35781217      -0.67500000      -0.24000000
P       10.31965156       4.42206707      10.29982891      -0.67600000      -0.24000000
P        7.35933440       7.36726869       4.39127173      -0.67500000      -0.24000000
P       10.31149925       7.35769729       1.43894420      -0.68000000      -0.24000000
P        7.37015572      10.30321120       1.45581173      -0.67600000      -0.24000000
P       10.30319946      10.29157038       4.39112539      -0.67600000      -0.24000000
P        7.36429334       7.35810229      10.30555535      -0.67500000      -0.24000000
P       10.30626700       7.35551812       7.35054164      -0.67500000      -0.24000000
P        7.36541242      10.29578046       7.33781685      -0.67500000      -0.24000000
P       10.32387277      10.30288315      10.31511860      -0.67400000      -0.24000000
In      -0.00356528      -0.00138782      -0.02306391       0.67600000       0.24000000
In       2.77447590      -0.17703625       3.17108447       0.73400000       0.26000000
In      -0.00916673       2.92054343       2.92133800       0.67600000       0.24000000
In       2.83721530       3.02503515      -0.18826559       0.73400000       0.26000000
In      -0.08113944      -0.04666674       5.92659133       0.65600000       0.23000000
In       2.92516381      -0.03019304       8.82506067       0.68200000       0.25000000
In      -0.05846660       2.95450073       8.77485482       0.65600000       0.23000000
In       2.94048960       2.93056924       5.86355549       0.68200000       0.25000000
In      -0.01043591       5.89082656      -0.02118411       0.65600000       0.23000000
In       2.95226056       5.86363466       2.92690925       0.68200000       0.25000000
In      -0.02822400       8.81110405       2.91747242       0.65600000       0.23000000
In       2.95615994       8.85513295      -0.02530595       0.68200000       0.25000000
In      -0.01942454       5.88985294       5.87173599       0.68000000       0.24000000
In       2.89902436       5.89455435       8.82065508       0.68600000       0.24000000
In      -0.02384988       8.81922976       8.83303745       0.68000000       0.24000000
In       2.90406609       8.77842724       5.91070275       0.68600000       0.24000000
In       6.06681814      -0.12863508      -0.21638872       0.63300000       0.22000000
In       8.84457266      -0.02120780       2.92776599       0.68600000       0.24000000
In       6.16287763       3.11848610       3.10334481       0.63300000       0.22000000
In       8.86976903       2.93524278      -0.03651902       0.68600000       0.24000000
In       5.87734162      -0.01801433       5.88224955       0.68700000       0.24000000
In       8.85370153      -0.05769566       8.81447683       0.67800000       0.24000000
In       5.88450526       2.93901415       8.80949100       0.68700000       0.24000000
In       8.87049785       2.95920342       5.90392560       0.67800000       0.24000000
In       5.87389132       5.90186942      -0.03020981       0.68700000       0.24000000
In       8.86269229       5.91011434       2.93549843       0.67800000       0.24000000
In       5.87473028       8.83209713       2.91814069       0.68700000       0.24000000
In       8.84340075       8.83027253      -0.02648874       0.67800000       0.24000000
In       5.89739914       5.91565691       5.90169751       0.66100000       0.23000000
In       8.84044850       5.89048204       8.83775406       0.67900000       0.24000000
In       5.90142761       8.78792737       8.77982517       0.66100000       0.23000000
In       8.83825622       8.82553756       5.86699907       0.67900000       0.24000000