65
Lattice="11.801682 -8e-06 -8e-06 -8e-06 11.801682 -8e-06 -8e-06 -8e-06 11.801682" Properties=species:S:1:pos:R:3:mulliken_charges:R:1:hirshfeld_charges:R:1 fermi_energy=3.718544537463 core_to_fermi_energy=15.690571930710242 config_type=Interstitial energy=-276.44767695642395 pbc="T T T"
P        1.40583106       1.40111352       4.39985138      -0.64200000      -0.23000000
P        4.45451250       1.40125288       1.40125288      -0.45200000      -0.16000000
P        1.40583106       4.39985138       1.40111352      -0.64200000      -0.23000000
P        3.95802641       5.16575645       5.16575645      -0.66200000      -0.24000000
P        1.46481509       1.45401432      10.31585177      -0.64200000      -0.23000000
P        4.41093181       1.44791798       7.35793030      -0.67600000      -0.24000000
P        1.40583109       4.40599680       7.40473401      -0.67400000      -0.24000000
P        4.41202313       4.40292221      10.30376180      -0.67200000      -0.23000000
P        1.40583109       7.40473401       4.40599680      -0.67400000      -0.24000000
P        4.41093181       7.35793030       1.44791798      -0.67600000      -0.24000000
P        1.46481509      10.31585177       1.45401432      -0.64200000      -0.23000000
P        4.41202313      10.30376180       4.40292221      -0.67200000      -0.23000000
P        1.46481832       7.35182834      10.29167890      -0.67400000      -0.24000000
P        4.45453078       7.40462876       7.40462876      -0.68100000      -0.24000000
P        1.46481832      10.29167890       7.35182834      -0.67400000      -0.24000000
P        4.37764985      10.30377578      10.30377578      -0.66200000      -0.24000000
P        7.42891640       1.40552210       4.43385591      -0.67600000      -0.24000000
P       10.31786493       1.43965674       1.43965674      -0.67700000      -0.24000000
P        7.42891640       4.43385591       1.40552210      -0.67600000      -0.24000000
P       10.31230667       4.40291903       4.40291903      -0.67400000      -0.24000000
P        7.35396977       1.44745586      10.28947563      -0.67600000      -0.24000000
P       10.32425160       1.43781995       7.36802136      -0.68000000      -0.24000000
P        7.42892800       4.37199172       7.40033457      -0.67500000      -0.24000000
P       10.29192369       4.40291635      10.30376482      -0.67600000      -0.24000000
P        7.42892800       7.40033457       4.37199172      -0.67500000      -0.24000000
P       10.32425160       7.36802136       1.43781995      -0.68000000      -0.24000000
P        7.35396977      10.28947563       1.44745586      -0.67600000      -0.24000000
P       10.29192369      10.30376482       4.40291635      -0.67600000      -0.24000000
P        7.35397366       7.35838904      10.31806023      -0.67500000      -0.24000000
P       10.31786781       7.36618461       7.36618461      -0.67500000      -0.24000000
P        7.35397366      10.31806023       7.35838904      -0.67500000      -0.24000000
P       10.30535649      10.30375808      10.30375808      -0.67400000      -0.24000000
In      -0.00820258      -0.03367264      -0.03367264       0.67600000       0.24000000
In       2.95216085      -0.00514024       2.92000389       0.73400000       0.26000000
In      -0.02221308       2.92263116       2.92263116       0.67600000       0.24000000
In       2.95216085       2.92000389      -0.00514024       0.73400000       0.26000000
In      -0.03735745      -0.06063206       5.88660216       0.65600000       0.23000000
In       2.91764010      -0.02012422       8.82597838       0.68200000       0.25000000
In      -0.03736477       2.91925922       8.86648792       0.65600000       0.23000000
In       2.82262024       2.85736175       5.94848396       0.68200000       0.25000000
In      -0.03735745       5.88660216      -0.06063206       0.65600000       0.23000000
In       2.82262024       5.94848396       2.85736175       0.68200000       0.25000000
In      -0.03736477       8.86648792       2.91925922       0.65600000       0.23000000
In       2.91764010       8.82597838      -0.02012422       0.68200000       0.25000000
In      -0.02221397       5.88322174       5.88322174       0.68000000       0.24000000
In       2.95216296       5.88585487       8.81097768       0.68600000       0.24000000
In      -0.00820824       8.83953295       8.83953295       0.68000000       0.24000000
In       2.95216296       8.81097768       5.88585487       0.68600000       0.24000000
In       5.89094096      -0.06317386      -0.06317386       0.63300000       0.22000000
In       8.85242851      -0.04719064       2.90046843       0.68600000       0.24000000
In       6.12609497       2.80057023       2.80057023       0.63300000       0.22000000
In       8.85242851       2.90046843      -0.04719064       0.68600000       0.24000000
In       5.87365496      -0.02108542       5.87475463       0.68700000       0.24000000
In       8.83631596      -0.02160972       8.82746637       0.67800000       0.24000000
In       5.87365058       2.93109903       8.82693015       0.68700000       0.24000000
In       8.87926017       2.91465129       5.89119433       0.67800000       0.24000000
In       5.87365496       5.87475463      -0.02108542       0.68700000       0.24000000
In       8.87926017       5.89119433       2.91465129       0.67800000       0.24000000
In       5.87365058       8.82693015       2.93109903       0.68700000       0.24000000
In       8.83631596       8.82746637      -0.02160972       0.67800000       0.24000000
In       6.12612567       6.00530689       6.00530689       0.66100000       0.23000000
In       8.85243166       5.90538627       8.85304489       0.67900000       0.24000000
In       5.89094238       8.86906141       8.86906141       0.66100000       0.23000000
In       8.85243166       8.85304489       5.90538627       0.67900000       0.24000000
P        3.95803641       3.64019886       3.64019886      -0.45200000      -0.16000000
65
Lattice="11.801682 -8e-06 -8e-06 -8e-06 11.801682 -8e-06 -8e-06 -8e-06 11.801682" Properties=species:S:1:pos:R:3:mulliken_charges:R:1:hirshfeld_charges:R:1 fermi_energy=3.718544537463 core_to_fermi_energy=15.690571930710242 config_type=Interstitial energy=-276.44729067570654 pbc="T T T"
P        1.40655274       1.38094678       4.37877914      -0.64200000      -0.23000000
P        4.45950537       1.37375776       1.37330467      -0.45200000      -0.16000000
P        1.40655274       4.37923223       1.38049369      -0.64200000      -0.23000000
P        3.95964341       5.12429300       5.12383991      -0.66200000      -0.24000000
P        1.46612573       1.43291878      10.29478994      -0.64200000      -0.23000000
P        4.41054143       1.42660648       7.33589937      -0.67600000      -0.24000000
P        1.40479727       4.38578487       7.38393100      -0.67400000      -0.24000000
P        4.41168974       4.38064932      10.28305476      -0.67200000      -0.23000000
P        1.40479727       7.38438408       4.38533178      -0.67400000      -0.24000000
P        4.41054143       7.33635246       1.42615339      -0.67600000      -0.24000000
P        1.46612573      10.29524303       1.43246569      -0.64200000      -0.23000000
P        4.41168974      10.28350785       4.38019623      -0.67200000      -0.23000000
P        1.46332620       7.33101202      10.27058784      -0.67400000      -0.24000000
P        4.44966153       7.37749243       7.37703935      -0.68100000      -0.24000000
P        1.46332620      10.27104093       7.33055893      -0.67400000      -0.24000000
P        4.37771645      10.27729227      10.27683918      -0.66200000      -0.24000000
P        7.43197222       1.38139470       4.41138523      -0.67600000      -0.24000000
P       10.31962761       1.41780493       1.41735184      -0.67700000      -0.24000000
P        7.43197222       4.41183832       1.38094161      -0.67600000      -0.24000000
P       10.31211986       4.38185920       4.38140611      -0.67400000      -0.24000000
P        7.35540803       1.42460947      10.26569688      -0.67600000      -0.24000000
P       10.32417907       1.41642183       7.34593057      -0.68000000      -0.24000000
P        7.42571858       4.34999059       7.37618570      -0.67500000      -0.24000000
P       10.29224253       4.38154651      10.28047304      -0.67600000      -0.24000000
P        7.42571858       7.37663879       4.34953750      -0.67500000      -0.24000000
P       10.32417907       7.34638366       1.41596874      -0.68000000      -0.24000000
P        7.35540803      10.26614997       1.42415638      -0.67600000      -0.24000000
P       10.29224253      10.28092613       4.38109342      -0.67600000      -0.24000000
P        7.35238447       7.33531611      10.29463150      -0.67500000      -0.24000000
P       10.31542544       7.34480850       7.34435541      -0.67500000      -0.24000000
P        7.35238447      10.29508459       7.33486302      -0.67500000      -0.24000000
P       10.30503789      10.28205899      10.28160590      -0.67400000      -0.24000000
In      -0.00714320      -0.05582752      -0.05628061       0.67600000       0.24000000
In       2.95394723      -0.02337148       2.89709606       0.73400000       0.26000000
In      -0.02206065       2.90173103       2.90127795       0.67600000       0.24000000
In       2.95394723       2.89754915      -0.02382457       0.73400000       0.26000000
In      -0.03782886      -0.08164095       5.86412821       0.65600000       0.23000000
In       2.91761566      -0.04170804       8.80408054       0.68200000       0.25000000
In      -0.03666059       2.89704869       8.84479500       0.65600000       0.23000000
In       2.82222578       2.83780472       5.92807916       0.68200000       0.25000000
In      -0.03782886       5.86458130      -0.08209403       0.65600000       0.23000000
In       2.82222578       5.92853225       2.83735163       0.68200000       0.25000000
In      -0.03666059       8.84524809       2.89659560       0.65600000       0.23000000
In       2.91761566       8.80453363      -0.04216113       0.68200000       0.25000000
In      -0.02340929       5.86279283       5.86233974       0.68000000       0.24000000
In       2.95012764       5.86374177       8.79213720       0.68600000       0.24000000
In      -0.00968873       8.81770150       8.81724841       0.68000000       0.24000000
In       2.95012764       8.79259029       5.86328868       0.68600000       0.24000000
In       5.89369169      -0.09143715      -0.09189024       0.63300000       0.22000000
In       8.85468195      -0.07063888       2.87695633       0.68600000       0.24000000
In       6.13348638       2.77392588       2.77347279       0.63300000       0.22000000
In       8.85468195       2.87740942      -0.07109196       0.68600000       0.24000000
In       5.87316324      -0.04168304       5.85194056       0.68700000       0.24000000
In       8.83628202      -0.04501551       8.80334634       0.67800000       0.24000000
In       5.87342418       2.90874820       8.80578086       0.68700000       0.24000000
In       8.87895850       2.89323985       5.86924855       0.67800000       0.24000000
In       5.87316324       5.85239365      -0.04213613       0.68700000       0.24000000
In       8.87895850       5.86970164       2.89278676       0.67800000       0.24000000
In       5.87342418       8.80623394       2.90829512       0.68700000       0.24000000
In       8.83628202       8.80379943      -0.04546860       0.67800000       0.24000000
In       6.11924763       5.97925660       5.97880351       0.66100000       0.23000000
In       8.85021316       5.88208932       8.82971126       0.67900000       0.24000000
In       5.88873221       8.84100004       8.84054695       0.66100000       0.23000000
In       8.85021316       8.83016435       5.88163624       0.67900000       0.24000000
P        3.95775164       3.59893469       3.59848160      -0.45200000      -0.16000000
65
Lattice="11.801682 -8e-06 -8e-06 -8e-06 11.801682 -8e-06 -8e-06 -8e-06 11.801682" Properties=species:S:1:pos:R:3:mulliken_charges:R:1:hirshfeld_charges:R:1 fermi_energy=3.718544537463 core_to_fermi_energy=15.690571930710242 config_type=Interstitial energy=-276.4409210980133 pbc="T T T"
P        1.40807988       1.36232515       4.35747223      -0.64200000      -0.23000000
P        4.47403539       1.33356581       1.33258690      -0.45200000      -0.16000000
P        1.40807988       4.35845114       1.36134624      -0.64200000      -0.23000000
P        3.96822830       5.03794818       5.03696927      -0.66200000      -0.24000000
P        1.46926036       1.41112048      10.27342851      -0.64200000      -0.23000000
P        4.40860775       1.40547304       7.31150177      -0.67600000      -0.24000000
P        1.40198879       4.36750949       7.36352199      -0.67400000      -0.24000000
P        4.41012043       4.35532296      10.26356604      -0.67200000      -0.23000000
P        1.40198879       7.36450090       4.36653058      -0.67400000      -0.24000000
P        4.40860775       7.31248068       1.40449413      -0.67600000      -0.24000000
P        1.46926036      10.27440743       1.41014157      -0.64200000      -0.23000000
P        4.41012043      10.26454495       4.35434404      -0.67200000      -0.23000000
P        1.45984686       7.31012402      10.24957475      -0.67400000      -0.24000000
P        4.43601714       7.33906930       7.33809039      -0.68100000      -0.24000000
P        1.45984686      10.25055366       7.30914511      -0.67400000      -0.24000000
P        4.37840779      10.24128145      10.24030254      -0.66200000      -0.24000000
P        7.44343818       1.35032096       4.38827177      -0.67600000      -0.24000000
P       10.32466580       1.39405832       1.39307941      -0.67700000      -0.24000000
P        7.44343818       4.38925068       1.34934205      -0.67600000      -0.24000000
P       10.31184094       4.36085815       4.35987924      -0.67400000      -0.24000000
P        7.35925061       1.39967510      10.23763241      -0.67600000      -0.24000000
P       10.32405501       1.39405842       7.32325470      -0.68000000      -0.24000000
P        7.41586606       4.32683627       7.34680816      -0.67500000      -0.24000000
P       10.29384601       4.36103664      10.25253166      -0.67600000      -0.24000000
P        7.41586606       7.34778707       4.32585736      -0.67500000      -0.24000000
P       10.32405501       7.32423362       1.39307950      -0.68000000      -0.24000000
P        7.35925061      10.23861132       1.39869619      -0.67600000      -0.24000000
P       10.29384601      10.25351057       4.36005773      -0.67600000      -0.24000000
P        7.34645378       7.30840954      10.26849150      -0.67500000      -0.24000000
P       10.30811127       7.32268577       7.32170686      -0.67500000      -0.24000000
P        7.34645378      10.26947041       7.30743063      -0.67500000      -0.24000000
P       10.30312874      10.25842181      10.25744290      -0.67400000      -0.24000000
In      -0.00483282      -0.08086423      -0.08184314       0.67600000       0.24000000
In       2.95846136      -0.03696543       2.87046658       0.73400000       0.26000000
In      -0.02244611       2.88087454       2.87989563       0.67600000       0.24000000
In       2.95846136       2.87144549      -0.03794434       0.73400000       0.26000000
In      -0.03874396      -0.10250427       5.84024013       0.65600000       0.23000000
In       2.91825365      -0.06460175       8.78084687       0.68200000       0.25000000
In      -0.03455191       2.87329827       8.82189411       0.65600000       0.23000000
In       2.81875746       2.82053164       5.90890229       0.68200000       0.25000000
In      -0.03874396       5.84121904      -0.10348318       0.65600000       0.23000000
In       2.81875746       5.90988120       2.81955273       0.68200000       0.25000000
In      -0.03455191       8.82287302       2.87231936       0.65600000       0.23000000
In       2.91825365       8.78182578      -0.06558066       0.68200000       0.25000000
In      -0.02705472       5.84344557       5.84246666       0.68000000       0.24000000
In       2.94496752       5.83898544       8.77714360       0.68600000       0.24000000
In      -0.01360121       8.79396797       8.79298906       0.68000000       0.24000000
In       2.94496752       8.77812251       5.83800652       0.68600000       0.24000000
In       5.90270706      -0.13266269      -0.13364160       0.63300000       0.22000000
In       8.86294915      -0.09992492       2.85041355       0.68600000       0.24000000
In       6.16138374       2.73456757       2.73358866       0.63300000       0.22000000
In       8.86294915       2.85139246      -0.10090383       0.68600000       0.24000000
In       5.87065160      -0.06101680       5.82534319       0.68700000       0.24000000
In       8.83495273      -0.07240384       8.77458147       0.67800000       0.24000000
In       5.87216135       2.88413429       8.78432246       0.68700000       0.24000000
In       8.87899913       2.87196358       5.84769323       0.67800000       0.24000000
In       5.87065160       5.82632211      -0.06199571       0.68700000       0.24000000
In       8.87899913       5.84867214       2.87098467       0.67800000       0.24000000
In       5.87216135       8.78530137       2.88315538       0.68700000       0.24000000
In       8.83495273       8.77556038      -0.07338275       0.67800000       0.24000000
In       6.09768051       5.94307655       5.94209764       0.66100000       0.23000000
In       8.84259062       5.85585287       8.80302471       0.67900000       0.24000000
In       5.88243310       8.80046050       8.79948159       0.66100000       0.23000000
In       8.84259062       8.80400363       5.85487396       0.67900000       0.24000000
P        3.96387159       3.51550709       3.51452818      -0.45200000      -0.16000000
65
Lattice="11.801682 -8e-06 -8e-06 -8e-06 11.801682 -8e-06 -8e-06 -8e-06 11.801682" Properties=species:S:1:pos:R:3:mulliken_charges:R:1:hirshfeld_charges:R:1 fermi_energy=3.718544537463 core_to_fermi_energy=15.690571930710242 config_type=Interstitial energy=-276.3962891675467 pbc="T T T"
P        1.41097874       1.36830642       4.35676357      -0.64200000      -0.23000000
P        4.49238149       1.30027795       1.29911583      -0.45200000      -0.16000000
P        1.41097874       4.35792570       1.36714430      -0.64200000      -0.23000000
P        3.99793899       4.90220299       4.90104086      -0.66200000      -0.24000000
P        1.46781937       1.40641223      10.26805826      -0.64200000      -0.23000000
P        4.40327349       1.40702115       7.30597191      -0.67600000      -0.24000000
P        1.39987175       4.37454606       7.36393104      -0.67400000      -0.24000000
P        4.40401392       4.34758731      10.26690740      -0.67200000      -0.23000000
P        1.39987175       7.36509317       4.37338394      -0.67400000      -0.24000000
P        4.40327349       7.30713404       1.40585903      -0.67600000      -0.24000000
P        1.46781937      10.26922039       1.40525010      -0.64200000      -0.23000000
P        4.40401392      10.26806953       4.34642519      -0.67200000      -0.23000000
P        1.45359957       7.31090068      10.25052932      -0.67400000      -0.24000000
P        4.41460055       7.31208722       7.31092509      -0.68100000      -0.24000000
P        1.45359957      10.25169144       7.30973856      -0.67400000      -0.24000000
P        4.38150670      10.22037035      10.21920823      -0.66200000      -0.24000000
P        7.47374428       1.32840383       4.39402262      -0.67600000      -0.24000000
P       10.33219016       1.38976636       1.38860423      -0.67700000      -0.24000000
P        7.47374428       4.39518474       1.32724170      -0.67600000      -0.24000000
P       10.31272744       4.36256349       4.36140137      -0.67400000      -0.24000000
P        7.36386658       1.39808402      10.22866353      -0.67600000      -0.24000000
P       10.32268764       1.39094030       7.32427051      -0.68000000      -0.24000000
P        7.39521158       4.32716834       7.33348721      -0.67500000      -0.24000000
P       10.29943042       4.36702602      10.23848310      -0.67600000      -0.24000000
P        7.39521158       7.33464934       4.32600621      -0.67500000      -0.24000000
P       10.32268764       7.32543264       1.38977818      -0.68000000      -0.24000000
P        7.36386658      10.22982566       1.39692190      -0.67600000      -0.24000000
P       10.29943042      10.23964522       4.36586389      -0.67600000      -0.24000000
P        7.33316399       7.29893915      10.26401813      -0.67500000      -0.24000000
P       10.29503679       7.32097741       7.31981529      -0.67500000      -0.24000000
P        7.33316399      10.26518026       7.29777703      -0.67500000      -0.24000000
P       10.29558037      10.25275385      10.25159172      -0.67400000      -0.24000000
In      -0.00642329      -0.08921553      -0.09037765       0.67600000       0.24000000
In       2.95813744      -0.03273920       2.85781044       0.73400000       0.26000000
In      -0.02482502       2.88133216       2.88017003       0.67600000       0.24000000
In       2.95813744       2.85897257      -0.03390133       0.73400000       0.26000000
In      -0.03915863      -0.09900653       5.83735043       0.65600000       0.23000000
In       2.92029184      -0.06928418       8.77793460       0.68200000       0.25000000
In      -0.03207165       2.87189886       8.81519652       0.65600000       0.23000000
In       2.80978201       2.82703804       5.91336958       0.68200000       0.25000000
In      -0.03915863       5.83851256      -0.10016866       0.65600000       0.23000000
In       2.80978201       5.91453171       2.82587591       0.68200000       0.25000000
In      -0.03207165       8.81635865       2.87073673       0.65600000       0.23000000
In       2.92029184       8.77909672      -0.07044631       0.68200000       0.25000000
In      -0.03179353       5.84730154       5.84613942       0.68000000       0.24000000
In       2.93684398       5.83546937       8.78804883       0.68600000       0.24000000
In      -0.02128154       8.78927206       8.78810994       0.68000000       0.24000000
In       2.93684398       8.78921096       5.83430725       0.68600000       0.24000000
In       5.91928768      -0.16027695      -0.16143907       0.63300000       0.22000000
In       8.88244499      -0.11792606       2.84518949       0.68600000       0.24000000
In       6.23960683       2.70291777       2.70175564       0.63300000       0.22000000
In       8.88244499       2.84635162      -0.11908819       0.68600000       0.24000000
In       5.86188947      -0.05686116       5.81505842       0.68700000       0.24000000
In       8.82778526      -0.08129895       8.76517075       0.67800000       0.24000000
In       5.86788823       2.88024230       8.78361732       0.68700000       0.24000000
In       8.88222457       2.87651618       5.85464255       0.67800000       0.24000000
In       5.86188947       5.81622054      -0.05802328       0.68700000       0.24000000
In       8.88222457       5.85580468       2.87535405       0.67800000       0.24000000
In       5.86788823       8.78477944       2.87908018       0.68700000       0.24000000
In       8.82778526       8.76633288      -0.08246107       0.67800000       0.24000000
In       6.05073166       5.91296911       5.91180698       0.66100000       0.23000000
In       8.82656161       5.85096927       8.79502942       0.67900000       0.24000000
In       5.87384229       8.77255123       8.77138911       0.66100000       0.23000000
In       8.82656161       8.79619155       5.84980714       0.67900000       0.24000000
P        4.00119614       3.39043560       3.38927348      -0.45200000      -0.16000000
65
Lattice="11.801682 -8e-06 -8e-06 -8e-06 11.801682 -8e-06 -8e-06 -8e-06 11.801682" Properties=species:S:1:pos:R:3:mulliken_charges:R:1:hirshfeld_charges:R:1 fermi_energy=3.718544537463 core_to_fermi_energy=15.690571930710242 config_type=Interstitial energy=-276.2809404689771 pbc="T T T"
P        1.41227572       1.38043392       4.36390272      -0.64200000      -0.23000000
P        4.46365242       1.28152982       1.28036764      -0.45200000      -0.16000000
P        1.41227572       4.36506490       1.37927174      -0.64200000      -0.23000000
P        4.03675126       4.78921125       4.78804906      -0.66200000      -0.24000000
P        1.45406954       1.40362248      10.25884104      -0.64200000      -0.23000000
P        4.39882585       1.41478122       7.30879822      -0.67600000      -0.24000000
P        1.40289541       4.38421188       7.36613003      -0.67400000      -0.24000000
P        4.39692949       4.34910829      10.27295950      -0.67200000      -0.23000000
P        1.40289541       7.36729222       4.38304969      -0.67400000      -0.24000000
P        4.39882585       7.30996041       1.41361903      -0.67600000      -0.24000000
P        1.45406954      10.26000322       1.40246030      -0.64200000      -0.23000000
P        4.39692949      10.27412169       4.34794610      -0.67200000      -0.23000000
P        1.45022730       7.31618710      10.25580379      -0.67400000      -0.24000000
P        4.40638322       7.30390956       7.30274737      -0.68100000      -0.24000000
P        1.45022730      10.25696598       7.31502492      -0.67400000      -0.24000000
P        4.38690640      10.22220294      10.22104076      -0.66200000      -0.24000000
P        7.50846083       1.31228330       4.42126573      -0.67600000      -0.24000000
P       10.33396607       1.39392166       1.39275947      -0.67700000      -0.24000000
P        7.50846083       4.42242791       1.31112112      -0.67600000      -0.24000000
P       10.31441483       4.37027571       4.36911353      -0.67400000      -0.24000000
P        7.36257949       1.40719036      10.23414076      -0.67600000      -0.24000000
P       10.32016081       1.39093236       7.33518006      -0.68000000      -0.24000000
P        7.37834610       4.33722259       7.33094152      -0.67500000      -0.24000000
P       10.30436152       4.37956308      10.23356754      -0.67600000      -0.24000000
P        7.37834610       7.33210370       4.33606041      -0.67500000      -0.24000000
P       10.32016081       7.33634224       1.38977018      -0.68000000      -0.24000000
P        7.36257949      10.23530294       1.40602818      -0.67600000      -0.24000000
P       10.30436152      10.23472973       4.37840090      -0.67600000      -0.24000000
P        7.32324277       7.29982341      10.26966781      -0.67500000      -0.24000000
P       10.28798477       7.32467328       7.32351109      -0.67500000      -0.24000000
P        7.32324277      10.27083000       7.29866123      -0.67500000      -0.24000000
P       10.28834538      10.25346786      10.25230568      -0.67400000      -0.24000000
In      -0.01365784      -0.08940685      -0.09056903       0.67600000       0.24000000
In       2.93629921      -0.04455424       2.85749929       0.73400000       0.26000000
In      -0.02692154       2.88708915       2.88592696       0.67600000       0.24000000
In       2.93629921       2.85866147      -0.04571642       0.73400000       0.26000000
In      -0.03857920      -0.08869906       5.84239841       0.65600000       0.23000000
In       2.92235185      -0.06928493       8.78158105       0.68200000       0.25000000
In      -0.03412253       2.87989219       8.80979188       0.65600000       0.23000000
In       2.80878387       2.83898710       5.91907735       0.68200000       0.25000000
In      -0.03857920       5.84356059      -0.08986125       0.65600000       0.23000000
In       2.80878387       5.92023953       2.83782492       0.68200000       0.25000000
In      -0.03412253       8.81095406       2.87873001       0.65600000       0.23000000
In       2.92235185       8.78274323      -0.07044711       0.68200000       0.25000000
In      -0.03123077       5.85524940       5.85408721       0.68000000       0.24000000
In       2.93294724       5.84163754       8.79707515       0.68600000       0.24000000
In      -0.02565197       8.79106593       8.78990375       0.68000000       0.24000000
In       2.93294724       8.79823733       5.84047536       0.68600000       0.24000000
In       5.92470575      -0.15331644      -0.15447862       0.63300000       0.22000000
In       8.89689930      -0.12649715       2.84956621       0.68600000       0.24000000
In       6.34660905       2.72111834       2.71995616       0.63300000       0.22000000
In       8.89689930       2.85072840      -0.12765933       0.68600000       0.24000000
In       5.85020864      -0.04965442       5.81567172       0.68700000       0.24000000
In       8.81772749      -0.08051937       8.77083191       0.67800000       0.24000000
In       5.86406674       2.88537010       8.78857012       0.68700000       0.24000000
In       8.89100414       2.89075665       5.87642021       0.67800000       0.24000000
In       5.85020864       5.81683390      -0.05081661       0.68700000       0.24000000
In       8.89100414       5.87758239       2.88959447       0.67800000       0.24000000
In       5.86406674       8.78973231       2.88420792       0.68700000       0.24000000
In       8.81772749       8.77199410      -0.08168155       0.67800000       0.24000000
In       6.00828518       5.89276995       5.89160776       0.66100000       0.23000000
In       8.81519928       5.85701028       8.79603710       0.67900000       0.24000000
In       5.87067865       8.76962223       8.76846005       0.66100000       0.23000000
In       8.81519928       8.79719928       5.85584810       0.67900000       0.24000000