63
Lattice="11.8016818 -7.6e-06 -7.6e-06 -7.6e-06 11.8016818 -7.8e-06 -7.6e-06 -7.8e-06 11.8016816" Properties=species:S:1:pos:R:3:mulliken_charges:R:1 virial="-0.001343979365248383 3.847269175329341e-05 3.847269175329341e-05 3.847269175329341e-05 -0.001345261788306826 3.847269175329341e-05 3.847269175329341e-05 3.847269175329341e-05 -0.0013426969421899398" fermi_energy=3.4539138232004998 core_to_fermi_energy=15.43004959127955 config_type=Accurate_Bulk energy=-266.83481606433475 pbc="T T T"
P        1.54845080       1.54845075       4.45015697      -0.67500000
P        4.45015706       1.54845085       1.54845082      -0.67500000
P        1.54845081       4.45015704       1.54845074      -0.67500000
In       0.00600059       0.00600058       0.00600058       0.67500000
In       2.95307180       0.02315897       2.95307173       0.67500000
In       0.02315902       2.95307174       2.95307169       0.67500000
In       2.95307181       2.95307179       0.02315897       0.67500000
P        1.48191035       1.48191018      10.31909940      -0.67500000
P        4.40109718       1.54844384       7.30280390      -0.67500000
P        1.54844398       4.40109704       7.30280381      -0.67500000
P        4.42562038       4.42562023      10.32646444      -0.67500000
In       0.03589650       0.03589638       5.88009025       0.67500000
In       2.97116695       0.03589161       8.81536165       0.67500000
In       0.03589179       2.97116678       8.81536159       0.67500000
In       3.23378722       3.23378705       5.61746957       0.67500000
P        1.54844398       7.30280395       4.40109697      -0.67500000
P        4.40109718       7.30280403       1.54844382      -0.67500000
P        1.48191034      10.31909957       1.48191015      -0.67500000
P        4.42562038      10.32646462       4.42562015      -0.67500000
In       0.03589650       5.88009035       0.03589638       0.67500000
In       3.23378722       5.61746969       3.23378702       0.67500000
In       0.03589179       8.81536175       2.97116673       0.67500000
In       2.97116695       8.81536180       0.03589160       0.67500000
P        1.48190602       7.36933526      10.33383513      -0.67500000
P        4.45014824       7.30279715       7.30279702      -0.67500000
P        1.48190601      10.33383531       7.36933514      -0.67500000
P        4.42561780      10.32646111      10.32646093      -0.67500000
In       0.02315348       5.89818559       5.89818549       0.67500000
In       2.95306328       5.89818215       8.82809442       0.67500000
In       0.00598848       8.84525648       8.84525633       0.67500000
In       2.95306328       8.82809458       5.89818205       0.67500000
P        7.30280400       1.54844392       4.40109709      -0.67500000
P       10.31909958       1.48191034       1.48191031      -0.67500000
P        7.30280399       4.40109716       1.54844391      -0.67500000
P       10.32646466       4.42562033       4.42562025      -0.67500000
In       5.88009036       0.03589651       0.03589651       0.67500000
In       8.81536180       0.03589173       2.97116689       0.67500000
In       5.61746968       3.23378723       3.23378720       0.67500000
In       8.81536179       2.97116694       0.03589173       0.67500000
P        7.36933542       1.48190585      10.33383525      -0.67500000
P       10.33383543       1.48190589       7.36933529      -0.67500000
P        7.30279729       4.45014811       7.30279711      -0.67500000
P       10.32646126       4.42561761      10.32646103      -0.67500000
In       5.89818572       0.02315336       5.89818560       0.67500000
In       8.84525665       0.00598831       8.84525649       0.67500000
In       5.89818232       2.95306311       8.82809450       0.67500000
In       8.82809471       2.95306315       5.89818217       0.67500000
P        7.30279730       7.30279725       4.45014803      -0.67500000
P       10.33383543       7.36933542       1.48190586      -0.67500000
P        7.36933543      10.33383543       1.48190582      -0.67500000
P       10.32646126      10.32646121       4.42561754      -0.67500000
In       5.89818572       5.89818570       0.02315336       0.67500000
In       8.82809471       5.89818227       2.95306310       0.67500000
In       5.89818233       8.82809465       2.95306305       0.67500000
In       8.84525665       8.84525663       0.00598830       0.67500000
P        7.36933117       7.36933101      10.31909051      -0.67500000
P       10.31909080       7.36933105       7.36933093      -0.67500000
P        7.36933117      10.31909068       7.36933089      -0.67500000
P       10.32645782      10.32645766      10.32645749      -0.67500000
In       5.61745627       5.61745610       5.61745598       0.67500000
In       8.81535183       5.88007813       8.81535156       0.67500000
In       5.88007830       8.81535164       8.81535150       0.67500000
In       8.81535183       8.81535171       5.88007803       0.67500000
63
Lattice="11.8016818 -7.6e-06 -7.6e-06 -7.6e-06 11.8016818 -7.8e-06 -7.6e-06 -7.8e-06 11.8016816" Properties=species:S:1:pos:R:3:mulliken_charges:R:1 virial="-0.001343979365248383 3.847269175329341e-05 3.847269175329341e-05 3.847269175329341e-05 -0.001345261788306826 3.847269175329341e-05 3.847269175329341e-05 3.847269175329341e-05 -0.0013426969421899398" fermi_energy=3.4539138232004998 core_to_fermi_energy=15.43004959127955 config_type=Accurate_Bulk energy=-266.7333545864696 pbc="T T T"
P        1.63711341       1.63711338       4.41134294      -0.67500000
P        4.49989146       1.58058885       1.51123829      -0.67500000
P        1.58058881       4.49989146       1.51123819      -0.67500000
In       0.02351920       0.02351919       0.03197733       0.67500000
In       3.02999202       0.06241374       2.93474211       0.67500000
In       0.06241378       3.02999197       2.93474205       0.67500000
In       2.96991003       2.96991001       0.00101595       0.67500000
P        1.48577204       1.48577187      10.32388974      -0.67500000
P        4.46249215       1.50157413       7.39888534      -0.67500000
P        1.50157426       4.46249202       7.39888526      -0.67500000
P        4.45362269       4.45362254      10.32481147      -0.67500000
In       0.12110866       0.12110853       5.81022311       0.67500000
In       2.97320059      -0.00214386       8.85777628       0.67500000
In      -0.00214367       2.97320041       8.85777621       0.67500000
In       3.16944981       3.16944966       5.88231827       0.67500000
P        1.57246229       7.30641933       4.38876207      -0.67500000
P        4.43583012       7.33517909       1.54104472      -0.67500000
P        1.51283911      10.35557219       1.51035211      -0.67500000
P        4.44877527      10.34042349       4.42443568      -0.67500000
In       0.04801808       5.92722359       0.00769215       0.67500000
In       3.27531267       5.63328216       3.20954335       0.67500000
In       0.05501188       8.83942011       2.97959498       0.67500000
In       2.98645112       8.84416706       0.06067534       0.67500000
P        1.49613895       7.43203274      10.32823985      -0.67500000
P        4.47585263       7.30213955       7.27463450      -0.67500000
P        1.49622557      10.37210428       7.33314012      -0.67500000
P        4.46044217      10.31435294      10.33560396      -0.67500000
In       0.03489125       5.92274204       5.88982695       0.67500000
In       2.98561166       5.95798120       8.85386315       0.67500000
In       0.01852666       8.89213626       8.81661929       0.67500000
In       2.96785998       8.83682207       5.89172825       0.67500000
P        7.30641939       1.57246224       4.38876218      -0.67500000
P       10.35557219       1.51283911       1.51035225      -0.67500000
P        7.33517906       4.43583011       1.54104479      -0.67500000
P       10.34042353       4.44877523       4.42443578      -0.67500000
In       5.92722359       0.04801808       0.00769229       0.67500000
In       8.83942018       0.05501182       2.97959513       0.67500000
In       5.63328218       3.27531267       3.20954351       0.67500000
In       8.84416705       2.98645110       0.06067546       0.67500000
P        7.43203290       1.49613878      10.32823996      -0.67500000
P       10.37210440       1.49622544       7.33314027      -0.67500000
P        7.30213970       4.47585249       7.27463458      -0.67500000
P       10.31435310       4.46044198      10.33560405      -0.67500000
In       5.92274216       0.03489114       5.88982706       0.67500000
In       8.89213643       0.01852649       8.81661945       0.67500000
In       5.95798137       2.98561148       8.85386322       0.67500000
In       8.83682220       2.96785985       5.89172836       0.67500000
P        7.31060801       7.31060797       4.46602995      -0.67500000
P       10.35658996       7.40050715       1.47911519      -0.67500000
P        7.40050715      10.35658996       1.47911515      -0.67500000
P       10.36965980      10.36965974       4.43324639      -0.67500000
In       5.92921289       5.92921288       0.01698258       0.67500000
In       8.84703730       5.93578072       2.95532331       0.67500000
In       5.93578077       8.84703726       2.95532327       0.67500000
In       8.86951124       8.86951123      -0.00182529       0.67500000
P        7.39526327       7.39526311      10.30668900      -0.67500000
P       10.33705288       7.39419005       7.35993924      -0.67500000
P        7.39419016      10.33705276       7.35993919      -0.67500000
P       10.35450451      10.35450435      10.32685089      -0.67500000
In       5.57152965       5.57152947       5.55609785       0.67500000
In       8.81752259       5.90207157       8.78935361       0.67500000
In       5.90207174       8.81752241       8.78935355       0.67500000
In       8.84202689       8.84202677       5.86711557       0.67500000
63
Lattice="11.8016818 -7.6e-06 -7.6e-06 -7.6e-06 11.8016818 -7.8e-06 -7.6e-06 -7.8e-06 11.8016816" Properties=species:S:1:pos:R:3:mulliken_charges:R:1 virial="-0.001343979365248383 3.847269175329341e-05 3.847269175329341e-05 3.847269175329341e-05 -0.001345261788306826 3.847269175329341e-05 3.847269175329341e-05 3.847269175329341e-05 -0.0013426969421899398" fermi_energy=3.4539138232004998 core_to_fermi_energy=15.43004959127955 config_type=Accurate_Bulk energy=-266.46152839562865 pbc="T T T"
P        1.74914727       1.74914727       4.35431051      -0.67500000
P        4.51106712       1.57431020       1.47774191      -0.67500000
P        1.57431016       4.51106711       1.47774179      -0.67500000
In       0.01940585       0.01940584       0.04323899       0.67500000
In       3.06552499       0.06309530       2.91878552       0.67500000
In       0.06309531       3.06552497       2.91878543       0.67500000
In       2.96245875       2.96245872      -0.01273455       0.67500000
P        1.47365694       1.47365677      10.32206875      -0.67500000
P        4.49266423       1.45277386       7.46687580      -0.67500000
P        1.45277398       4.49266412       7.46687573      -0.67500000
P        4.45474727       4.45474711      10.32698433      -0.67500000
In       0.20354542       0.20354527       5.71916013       0.67500000
In       2.95283149      -0.04656694       8.88026005       0.67500000
In      -0.04656675       2.95283130       8.88025999       0.67500000
In       3.07328619       3.07328605       6.12010621       0.67500000
P        1.56924811       7.29963574       4.38467743      -0.67500000
P        4.43699229       7.33956893       1.53915170      -0.67500000
P        1.51112616      10.36311983       1.53016285      -0.67500000
P        4.44252951      10.33495511       4.42867524      -0.67500000
In       0.03790887       5.93808512      -0.01761896       0.67500000
In       3.26828884       5.63031827       3.18245548       0.67500000
In       0.04312466       8.83965930       2.98642486       0.67500000
In       2.97643378       8.84630625       0.07785718       0.67500000
P        1.49257547       7.45258318      10.32154718      -0.67500000
P        4.48046714       7.29112630       7.25998355      -0.67500000
P        1.47928304      10.39412684       7.30012657      -0.67500000
P        4.45932113      10.29118206      10.34057426      -0.67500000
In       0.02657150       5.92515072       5.88081222       0.67500000
In       3.00006037       5.98061833       8.86962414       0.67500000
In       0.01155538       8.90729840       8.80054758       0.67500000
In       2.95812706       8.83098665       5.89814353       0.67500000
P        7.29963581       1.56924806       4.38467754      -0.67500000
P       10.36311982       1.51112615       1.53016299      -0.67500000
P        7.33956891       4.43699228       1.53915176      -0.67500000
P       10.33495514       4.44252948       4.42867533      -0.67500000
In       5.93808513       0.03790888      -0.01761879       0.67500000
In       8.83965936       0.04312460       2.98642502       0.67500000
In       5.63031828       3.26828887       3.18245565       0.67500000
In       8.84630624       2.97643376       0.07785729       0.67500000
P        7.45258333       1.49257529      10.32154728      -0.67500000
P       10.39412699       1.47928289       7.30012672      -0.67500000
P        7.29112646       4.48046698       7.25998364      -0.67500000
P       10.29118222       4.45932094      10.34057434      -0.67500000
In       5.92515084       0.02657139       5.88081232       0.67500000
In       8.90729857       0.01155520       8.80054773       0.67500000
In       5.98061851       3.00006019       8.86962420       0.67500000
In       8.83098681       2.95812691       5.89814364       0.67500000
P        7.31446192       7.31446188       4.46717248      -0.67500000
P       10.35604512       7.39880858       1.47610711      -0.67500000
P        7.39880858      10.35604511       1.47610708      -0.67500000
P       10.39393578      10.39393571       4.44685510      -0.67500000
In       5.93186896       5.93186895       0.02042331       0.67500000
In       8.84767199       5.93690437       2.95642775       0.67500000
In       5.93690441       8.84767195       2.95642772       0.67500000
In       8.86738455       8.86738455      -0.00086019       0.67500000
P        7.39413371       7.39413355      10.30496256      -0.67500000
P       10.33582717       7.39136580       7.35825967      -0.67500000
P        7.39136591      10.33582706       7.35825963      -0.67500000
P       10.35454300      10.35454284      10.32894733      -0.67500000
In       5.55464878       5.55464859       5.51389093       0.67500000
In       8.80629798       5.90013185       8.78149869       0.67500000
In       5.90013203       8.80629780       8.78149863       0.67500000
In       8.84987895       8.84987883       5.86829694       0.67500000
63
Lattice="11.8016818 -7.6e-06 -7.6e-06 -7.6e-06 11.8016818 -7.8e-06 -7.6e-06 -7.8e-06 11.8016816" Properties=species:S:1:pos:R:3:mulliken_charges:R:1 virial="-0.001343979365248383 3.847269175329341e-05 3.847269175329341e-05 3.847269175329341e-05 -0.001345261788306826 3.847269175329341e-05 3.847269175329341e-05 3.847269175329341e-05 -0.0013426969421899398" fermi_energy=3.4539138232004998 core_to_fermi_energy=15.43004959127955 config_type=Accurate_Bulk energy=-265.9197436369274 pbc="T T T"
P        1.95937937       1.95937941       4.24502855      -0.67500000
P        4.51146996       1.55658705       1.44882843      -0.67500000
P        1.55658700       4.51146996       1.44882828      -0.67500000
In       0.01644174       0.01644172       0.04982472       0.67500000
In       3.07564130       0.06675091       2.92104849       0.67500000
In       0.06675091       3.07564132       2.92104837       0.67500000
In       2.95777409       2.95777404      -0.01741396       0.67500000
P        1.46694817       1.46694800      10.31955539      -0.67500000
P        4.50891248       1.42461405       7.50915055      -0.67500000
P        1.42461417       4.50891237       7.50915050      -0.67500000
P        4.45500447       4.45500430      10.32969258      -0.67500000
In       0.27853926       0.27853908       5.63214983       0.67500000
In       2.93895505      -0.07488091       8.89239594       0.67500000
In      -0.07488072       2.93895486       8.89239588       0.67500000
In       2.97350604       2.97350591       6.30097864       0.67500000
P        1.56362111       7.29566499       4.38694566      -0.67500000
P        4.43291907       7.33890807       1.54220656      -0.67500000
P        1.50664475      10.37019308       1.54835853      -0.67500000
P        4.43140848      10.33472500       4.43402112      -0.67500000
In       0.02859352       5.94083207      -0.03487361       0.67500000
In       3.24242242       5.62054970       3.15903233       0.67500000
In       0.03136630       8.83662460       2.98939239       0.67500000
In       2.96970417       8.84903308       0.09232352       0.67500000
P        1.49236815       7.46118311      10.31997317      -0.67500000
P        4.48397912       7.28312961       7.25170787      -0.67500000
P        1.46449737      10.40811021       7.27886993      -0.67500000
P        4.45482061      10.27579947      10.34275395      -0.67500000
In       0.01984708       5.92321242       5.87654323       0.67500000
In       3.01052422       5.99109196       8.87891308       0.67500000
In       0.00651834       8.91139982       8.79623043       0.67500000
In       2.95276431       8.82812271       5.90623999       0.67500000
P        7.29566505       1.56362106       4.38694577      -0.67500000
P       10.37019307       1.50664474       1.54835867      -0.67500000
P        7.33890806       4.43291906       1.54220662      -0.67500000
P       10.33472502       4.43140845       4.43402122      -0.67500000
In       5.94083206       0.02859354      -0.03487343       0.67500000
In       8.83662467       0.03136625       2.98939256       0.67500000
In       5.62054972       3.24242248       3.15903251       0.67500000
In       8.84903306       2.96970414       0.09232361       0.67500000
P        7.46118326       1.49236796      10.31997328      -0.67500000
P       10.40811038       1.46449720       7.27887006      -0.67500000
P        7.28312979       4.48397894       7.25170796      -0.67500000
P       10.27579962       4.45482042      10.34275403      -0.67500000
In       5.92321254       0.01984697       5.87654333       0.67500000
In       8.91140000       0.00651817       8.79623057       0.67500000
In       5.99109213       3.01052403       8.87891314       0.67500000
In       8.82812288       2.95276415       5.90624010       0.67500000
P        7.31986135       7.31986131       4.46003198      -0.67500000
P       10.35356640       7.39307575       1.47367315      -0.67500000
P        7.39307575      10.35356640       1.47367313      -0.67500000
P       10.40477350      10.40477343       4.45726591      -0.67500000
In       5.93176338       5.93176337       0.02673281       0.67500000
In       8.85129356       5.92975732       2.95700468       0.67500000
In       5.92975735       8.85129352       2.95700465       0.67500000
In       8.86411885       8.86411885       0.00233952       0.67500000
P        7.39109171       7.39109155      10.30671645      -0.67500000
P       10.33421113       7.38641716       7.36016997      -0.67500000
P        7.38641727      10.33421103       7.36016992      -0.67500000
P       10.35251462      10.35251446      10.33185163      -0.67500000
In       5.56017852       5.56017830       5.48029711       0.67500000
In       8.79870991       5.89665467       8.78007379       0.67500000
In       5.89665484       8.79870973       8.78007373       0.67500000
In       8.85056271       8.85056260       5.87400805       0.67500000
63
Lattice="11.8016818 -7.6e-06 -7.6e-06 -7.6e-06 11.8016818 -7.8e-06 -7.6e-06 -7.8e-06 11.8016816" Properties=species:S:1:pos:R:3:mulliken_charges:R:1 virial="-0.001343979365248383 3.847269175329341e-05 3.847269175329341e-05 3.847269175329341e-05 -0.001345261788306826 3.847269175329341e-05 3.847269175329341e-05 3.847269175329341e-05 -0.0013426969421899398" fermi_energy=3.4539138232004998 core_to_fermi_energy=15.43004959127955 config_type=Accurate_Bulk energy=-265.31470876422634 pbc="T T T"
P        2.19913653       2.19913660       4.11213037      -0.67500000
P        4.50728986       1.53927456       1.42953211      -0.67500000
P        1.53927452       4.50728986       1.42953193      -0.67500000
In       0.01441900       0.01441898       0.05309821       0.67500000
In       3.05583031       0.09022042       2.94720413       0.67500000
In       0.09022040       3.05583036       2.94720399       0.67500000
In       2.95650233       2.95650228      -0.01861108       0.67500000
P        1.46371832       1.46371815      10.31908422      -0.67500000
P        4.50944907       1.41721001       7.52324464      -0.67500000
P        1.41721012       4.50944897       7.52324459      -0.67500000
P        4.45553726       4.45553709      10.32998698      -0.67500000
In       0.28051319       0.28051297       5.61108616       0.67500000
In       2.93409141      -0.08428018       8.89682576       0.67500000
In      -0.08427999       2.93409121       8.89682570       0.67500000
In       2.91125705       2.91125693       6.36005941       0.67500000
P        1.55894337       7.29539369       4.39132389      -0.67500000
P        4.42938125       7.33660563       1.54659508      -0.67500000
P        1.50494055      10.37770330       1.56103259      -0.67500000
P        4.42144271      10.33964698       4.43582514      -0.67500000
In       0.02186900       5.93902467      -0.04169775       0.67500000
In       3.21506167       5.61157740       3.14619457       0.67500000
In       0.02578366       8.83408630       2.98842080       0.67500000
In       2.96710972       8.85175813       0.10093250       0.67500000
P        1.49282127       7.46213774      10.32232230      -0.67500000
P        4.48510597       7.27920827       7.24888162      -0.67500000
P        1.45964406      10.40224609       7.28115710      -0.67500000
P        4.45133107      10.26815171      10.34287749      -0.67500000
In       0.01761436       5.91779944       5.87813394       0.67500000
In       3.01264323       5.99226537       8.88121416       0.67500000
In       0.00470827       8.90885983       8.79839176       0.67500000
In       2.95241684       8.82804091       5.91058585       0.67500000
P        7.29539375       1.55894332       4.39132401      -0.67500000
P       10.37770329       1.50494054       1.56103272      -0.67500000
P        7.33660562       4.42938124       1.54659514      -0.67500000
P       10.33964700       4.42144270       4.43582523      -0.67500000
In       5.93902466       0.02186903      -0.04169756       0.67500000
In       8.83408637       0.02578361       2.98842097       0.67500000
In       5.61157742       3.21506175       3.14619476       0.67500000
In       8.85175811       2.96710969       0.10093260       0.67500000
P        7.46213789       1.49282107      10.32232240      -0.67500000
P       10.40224628       1.45964387       7.28115722      -0.67500000
P        7.27920846       4.48510578       7.24888171      -0.67500000
P       10.26815186       4.45133087      10.34287757      -0.67500000
In       5.91779956       0.01761425       5.87813403       0.67500000
In       8.90886001       0.00470810       8.79839190       0.67500000
In       5.99226555       3.01264304       8.88121422       0.67500000
In       8.82804109       2.95241667       5.91058596       0.67500000
P        7.32106421       7.32106417       4.45429259      -0.67500000
P       10.35122692       7.38877950       1.47254061      -0.67500000
P        7.38877951      10.35122692       1.47254059      -0.67500000
P       10.39034936      10.39034929       4.45626592      -0.67500000
In       5.93013103       5.93013101       0.03048116       0.67500000
In       8.85556510       5.92305364       2.95794356       0.67500000
In       5.92305367       8.85556506       2.95794353       0.67500000
In       8.86198036       8.86198036       0.00472145       0.67500000
P        7.38848765       7.38848749      10.30898186      -0.67500000
P       10.33223297       7.38339224       7.36240831      -0.67500000
P        7.38339234      10.33223287       7.36240826      -0.67500000
P       10.35006566      10.35006550      10.33370270      -0.67500000
In       5.56653746       5.56653723       5.46386014       0.67500000
In       8.79522549       5.89433997       8.78044293       0.67500000
In       5.89434014       8.79522531       8.78044287       0.67500000
In       8.84698708       8.84698697       5.87721928       0.67500000
63
Lattice="11.8016818 -7.6e-06 -7.6e-06 -7.6e-06 11.8016818 -7.8e-06 -7.6e-06 -7.8e-06 11.8016816" Properties=species:S:1:pos:R:3:mulliken_charges:R:1 virial="-0.001343979365248383 3.847269175329341e-05 3.847269175329341e-05 3.847269175329341e-05 -0.001345261788306826 3.847269175329341e-05 3.847269175329341e-05 3.847269175329341e-05 -0.0013426969421899398" fermi_energy=3.4539138232004998 core_to_fermi_energy=15.43004959127955 config_type=Accurate_Bulk energy=-264.9293104936164 pbc="T T T"
P        2.45352862       2.45352873       3.99251682      -0.67500000
P        4.49963994       1.51875804       1.40847084      -0.67500000
P        1.51875799       4.49963995       1.40847064      -0.67500000
In       0.01093680       0.01093678       0.05494290       0.67500000
In       3.01976468       0.13920536       2.98781930       0.67500000
In       0.13920532       3.01976478       2.98781911       0.67500000
In       2.95551554       2.95551548      -0.02183873       0.67500000
P        1.45980370       1.45980352      10.32055161      -0.67500000
P        4.50424124       1.41361340       7.53112047      -0.67500000
P        1.41361351       4.50424115       7.53112043      -0.67500000
P        4.45578744       4.45578726      10.32946721      -0.67500000
In       0.26461038       0.26461012       5.59471208       0.67500000
In       2.92749783      -0.09052416       8.89759479       0.67500000
In      -0.09052397       2.92749763       8.89759473       0.67500000
In       2.86952885       2.86952874       6.37239355       0.67500000
P        1.55246767       7.29773586       4.39738144      -0.67500000
P        4.42489263       7.33257899       1.55354487      -0.67500000
P        1.50458144      10.38884636       1.57509344      -0.67500000
P        4.40842424      10.35062712       4.43528197      -0.67500000
In       0.01194821       5.93488008      -0.04803401       0.67500000
In       3.17836922       5.60921841       3.13133695       0.67500000
In       0.02026451       8.83330187       2.98745538       0.67500000
In       2.96397461       8.85469228       0.10910287       0.67500000
P        1.49175493       7.46152643      10.32629469      -0.67500000
P        4.48464369       7.27764243       7.24768305      -0.67500000
P        1.45308851      10.39326262       7.28670166      -0.67500000
P        4.44550739      10.26056939      10.34150391      -0.67500000
In       0.01527247       5.91185764       5.88277432       0.67500000
In       3.01169700       5.99242350       8.88215302       0.67500000
In       0.00436379       8.90633776       8.80043117       0.67500000
In       2.95132297       8.83112211       5.91522591       0.67500000
P        7.29773592       1.55246762       4.39738156      -0.67500000
P       10.38884635       1.50458144       1.57509357      -0.67500000
P        7.33257899       4.42489262       1.55354493      -0.67500000
P       10.35062713       4.40842422       4.43528206      -0.67500000
In       5.93488006       0.01194823      -0.04803381       0.67500000
In       8.83330194       0.02026447       2.98745556       0.67500000
In       5.60921843       3.17836931       3.13133715       0.67500000
In       8.85469226       2.96397458       0.10910296       0.67500000
P        7.46152658       1.49175473      10.32629481      -0.67500000
P       10.39326283       1.45308831       7.28670176      -0.67500000
P        7.27764263       4.48464350       7.24768314      -0.67500000
P       10.26056953       4.44550719      10.34150399      -0.67500000
In       5.91185777       0.01527235       5.88277441       0.67500000
In       8.90633795       0.00436362       8.80043130       0.67500000
In       5.99242368       3.01169680       8.88215308       0.67500000
In       8.83112230       2.95132278       5.91522601       0.67500000
P        7.32332790       7.32332786       4.44892447      -0.67500000
P       10.34855276       7.38408940       1.47200710      -0.67500000
P        7.38408940      10.34855276       1.47200709      -0.67500000
P       10.37050620      10.37050614       4.45174420      -0.67500000
In       5.92700046       5.92700044       0.03408198       0.67500000
In       8.86085414       5.91559583       2.96038853       0.67500000
In       5.91559586       8.86085410       2.96038851       0.67500000
In       8.85947417       8.85947418       0.00707573       0.67500000
P        7.38483657       7.38483641      10.31251191      -0.67500000
P       10.32949457       7.38071168       7.36534102      -0.67500000
P        7.38071178      10.32949446       7.36534097      -0.67500000
P       10.34660319      10.34660303      10.33528244      -0.67500000
In       5.57505931       5.57505906       5.45239357       0.67500000
In       8.79195533       5.89197115       8.78159988       0.67500000
In       5.89197133       8.79195515       8.78159982       0.67500000
In       8.84390174       8.84390163       5.87972071       0.67500000
63