63
Lattice="11.8016818 -7.6e-06 -7.6e-06 -7.6e-06 11.8016818 -7.8e-06 -7.6e-06 -7.8e-06 11.8016816" Properties=species:S:1:pos:R:3:mulliken_charges:R:1 virial="-0.001343979365248383 3.847269175329341e-05 3.847269175329341e-05 3.847269175329341e-05 -0.001345261788306826 3.847269175329341e-05 3.847269175329341e-05 3.847269175329341e-05 -0.0013426969421899398" fermi_energy=3.4539138232004998 core_to_fermi_energy=15.43004959127955 config_type=Accurate_Bulk energy=-266.8348160643347 pbc="T T T"
P        1.54845080       1.54845075       4.45015697      -0.67500000
P        4.45015706       1.54845085       1.54845082      -0.67500000
P        1.54845081       4.45015704       1.54845074      -0.67500000
In       0.00600059       0.00600058       0.00600058       0.67500000
In       2.95307180       0.02315897       2.95307173       0.67500000
In       0.02315902       2.95307174       2.95307169       0.67500000
In       2.95307181       2.95307179       0.02315897       0.67500000
P        1.48191035       1.48191018      10.31909940      -0.67500000
P        4.40109718       1.54844384       7.30280390      -0.67500000
P        1.54844398       4.40109704       7.30280381      -0.67500000
P        4.42562038       4.42562023      10.32646444      -0.67500000
In       0.03589650       0.03589638       5.88009025       0.67500000
In       2.97116695       0.03589161       8.81536165       0.67500000
In       0.03589179       2.97116678       8.81536159       0.67500000
In       3.23378722       3.23378705       5.61746957       0.67500000
P        1.54844398       7.30280395       4.40109697      -0.67500000
P        4.40109718       7.30280403       1.54844382      -0.67500000
P        1.48191034      10.31909957       1.48191015      -0.67500000
P        4.42562038      10.32646462       4.42562015      -0.67500000
In       0.03589650       5.88009035       0.03589638       0.67500000
In       3.23378722       5.61746969       3.23378702       0.67500000
In       0.03589179       8.81536175       2.97116673       0.67500000
In       2.97116695       8.81536180       0.03589160       0.67500000
P        1.48190602       7.36933526      10.33383513      -0.67500000
P        4.45014824       7.30279715       7.30279702      -0.67500000
P        1.48190601      10.33383531       7.36933514      -0.67500000
P        4.42561780      10.32646111      10.32646093      -0.67500000
In       0.02315348       5.89818559       5.89818549       0.67500000
In       2.95306328       5.89818215       8.82809442       0.67500000
In       0.00598848       8.84525648       8.84525633       0.67500000
In       2.95306328       8.82809458       5.89818205       0.67500000
P        7.30280400       1.54844392       4.40109709      -0.67500000
P       10.31909958       1.48191034       1.48191031      -0.67500000
P        7.30280399       4.40109716       1.54844391      -0.67500000
P       10.32646466       4.42562033       4.42562025      -0.67500000
In       5.88009036       0.03589651       0.03589651       0.67500000
In       8.81536180       0.03589173       2.97116689       0.67500000
In       5.61746968       3.23378723       3.23378720       0.67500000
In       8.81536179       2.97116694       0.03589173       0.67500000
P        7.36933542       1.48190585      10.33383525      -0.67500000
P       10.33383543       1.48190589       7.36933529      -0.67500000
P        7.30279729       4.45014811       7.30279711      -0.67500000
P       10.32646126       4.42561761      10.32646103      -0.67500000
In       5.89818572       0.02315336       5.89818560       0.67500000
In       8.84525665       0.00598831       8.84525649       0.67500000
In       5.89818232       2.95306311       8.82809450       0.67500000
In       8.82809471       2.95306315       5.89818217       0.67500000
P        7.30279730       7.30279725       4.45014803      -0.67500000
P       10.33383543       7.36933542       1.48190586      -0.67500000
P        7.36933543      10.33383543       1.48190582      -0.67500000
P       10.32646126      10.32646121       4.42561754      -0.67500000
In       5.89818572       5.89818570       0.02315336       0.67500000
In       8.82809471       5.89818227       2.95306310       0.67500000
In       5.89818233       8.82809465       2.95306305       0.67500000
In       8.84525665       8.84525663       0.00598830       0.67500000
P        7.36933117       7.36933101      10.31909051      -0.67500000
P       10.31909080       7.36933105       7.36933093      -0.67500000
P        7.36933117      10.31909068       7.36933089      -0.67500000
P       10.32645782      10.32645766      10.32645749      -0.67500000
In       5.61745627       5.61745610       5.61745598       0.67500000
In       8.81535183       5.88007813       8.81535156       0.67500000
In       5.88007830       8.81535164       8.81535150       0.67500000
In       8.81535183       8.81535171       5.88007803       0.67500000
63
Lattice="11.8016818 -7.6e-06 -7.6e-06 -7.6e-06 11.8016818 -7.8e-06 -7.6e-06 -7.8e-06 11.8016816" Properties=species:S:1:pos:R:3:mulliken_charges:R:1 virial="-0.001343979365248383 3.847269175329341e-05 3.847269175329341e-05 3.847269175329341e-05 -0.001345261788306826 3.847269175329341e-05 3.847269175329341e-05 3.847269175329341e-05 -0.0013426969421899398" fermi_energy=3.4539138232004998 core_to_fermi_energy=15.43004959127955 config_type=Accurate_Bulk energy=-266.65874967885986 pbc="T T T"
P        1.48548857       1.62160556       4.52844211      -0.67500000
P        4.52844053       1.62160477       1.48549113      -0.67500000
P        1.59483005       4.47741128       1.59483027      -0.67500000
In       0.05529048       0.01330600       0.05529038       0.67500000
In       3.03438920       0.26697602       3.03438576       0.67500000
In       0.00594983       3.01278951       2.96453786       0.67500000
In       2.96453816       3.01278959       0.00594956       0.67500000
P        1.48958977       1.50701753      10.34163511      -0.67500000
P        4.40717411       1.54913117       7.34810431      -0.67500000
P        1.47560668       4.51173658       7.40817788      -0.67500000
P        4.43722212       4.48563002      10.31617152      -0.67500000
In       0.00473494       0.01315691       5.91378560       0.67500000
In       2.96980160       0.03810204       8.85513057       0.67500000
In       0.01281790       2.98698177       8.85998563       0.67500000
In       3.08956989       3.23258626       5.82911913       0.67500000
P        1.57994501       7.32824373       4.39695075      -0.67500000
P        4.39695093       7.32824384       1.57994501      -0.67500000
P        1.58337187      10.45571533       1.58337199      -0.67500000
P        4.41706577      10.41099613       4.41706572      -0.67500000
In       0.07596481       5.90052314       0.07596461       0.67500000
In       3.30818795       5.59835170       3.30818761       0.67500000
In       0.11352512       8.88015655       2.96731699       0.67500000
In       2.96731744       8.88015653       0.11352475       0.67500000
P        1.49397519       7.43086151      10.39039851      -0.67500000
P        4.45733878       7.33583420       7.26554227      -0.67500000
P        1.48060014      10.34755934       7.39807342      -0.67500000
P        4.42872343      10.31703571      10.33549572      -0.67500000
In       0.01503973       5.97063013       5.89440127       0.67500000
In       2.96904222       6.00350983       8.85639264       0.67500000
In       0.00238792       8.86172923       8.87864514       0.67500000
In       2.95419447       8.88625981       5.88494684       0.67500000
P        7.34810455       1.54913140       4.40717423      -0.67500000
P       10.34163544       1.50701763       1.48959009      -0.67500000
P        7.40817850       4.51173707       1.47560705      -0.67500000
P       10.31617216       4.48562972       4.43722224      -0.67500000
In       5.91378581       0.01315693       0.00473475       0.67500000
In       8.85513042       0.03810222       2.96980130       0.67500000
In       5.82911890       3.23258675       3.08956998       0.67500000
In       8.85998541       2.98698196       0.01281771       0.67500000
P        7.37928837       1.51165281      10.33238283      -0.67500000
P       10.33238346       1.51165295       7.37928774      -0.67500000
P        7.27550817       4.49004792       7.27550772      -0.67500000
P       10.33951921       4.48070779      10.33951890      -0.67500000
In       5.90481061       0.05055353       5.90481045       0.67500000
In       8.85789411       0.03216445       8.85789456       0.67500000
In       5.90840364       2.99420137       8.83155278       0.67500000
In       8.83155264       2.99420138       5.90840347       0.67500000
P        7.26554276       7.33583435       4.45733862      -0.67500000
P       10.39039893       7.43086165       1.49397516      -0.67500000
P        7.39807393      10.34755940       1.48060014      -0.67500000
P       10.33549617      10.31703592       4.42872323      -0.67500000
In       5.89440146       5.97063019       0.01503953       0.67500000
In       8.85639245       6.00350999       2.96904135       0.67500000
In       5.88494716       8.88625990       2.95419396       0.67500000
In       8.87864518       8.86172945       0.00238775       0.67500000
P        7.38297337       7.41032739      10.30936947      -0.67500000
P       10.30936993       7.41032743       7.38297286      -0.67500000
P        7.37569523      10.35548914       7.37569468      -0.67500000
P       10.35159618      10.37003421      10.35159565      -0.67500000
In       5.54980048       5.58224059       5.54980013       0.67500000
In       8.80315668       5.90044029       8.80315662       0.67500000
In       5.88307720       8.82969499       8.79318920       0.67500000
In       8.79318930       8.82969504       5.88307706       0.67500000
63
Lattice="11.8016818 -7.6e-06 -7.6e-06 -7.6e-06 11.8016818 -7.8e-06 -7.6e-06 -7.8e-06 11.8016816" Properties=species:S:1:pos:R:3:mulliken_charges:R:1 virial="-0.001343979365248383 3.847269175329341e-05 3.847269175329341e-05 3.847269175329341e-05 -0.001345261788306826 3.847269175329341e-05 3.847269175329341e-05 3.847269175329341e-05 -0.0013426969421899398" fermi_energy=3.4539138232004998 core_to_fermi_energy=15.43004959127955 config_type=Accurate_Bulk energy=-266.25657303484286 pbc="T T T"
P        1.40709508       1.64517054       4.57987782      -0.67500000
P        4.57989210       1.64517843       1.40707450      -0.67500000
P        1.61124743       4.46180354       1.61124586      -0.67500000
In       0.08409917      -0.02946066       0.08409982       0.67500000
In       3.12268949       0.51832758       3.12271685       0.67500000
In      -0.02369320       3.02149782       2.95469513       0.67500000
In       2.95469435       3.02149803      -0.02369210       0.67500000
P        1.47961005       1.49158127      10.34778310      -0.67500000
P        4.40793343       1.52257858       7.36448279      -0.67500000
P        1.43677009       4.54138932       7.45070838      -0.67500000
P        4.43814618       4.49274893      10.30151727      -0.67500000
In      -0.03005775      -0.04484612       5.93436818       0.67500000
In       2.96459642       0.02087287       8.87370612       0.67500000
In      -0.00433082       2.96786768       8.87316182       0.67500000
In       2.98933152       3.17635620       5.94665921       0.67500000
P        1.58220197       7.33115435       4.38954249      -0.67500000
P        4.38954310       7.33115451       1.58220068      -0.67500000
P        1.65871937      10.53009947       1.65871725      -0.67500000
P        4.37838855      10.46358185       4.37838721      -0.67500000
In       0.08719335       5.88243898       0.08719350       0.67500000
In       3.32818233       5.60330586       3.32818267       0.67500000
In       0.14873212       8.89697456       2.93672032       0.67500000
In       2.93671936       8.89697497       0.14873292       0.67500000
P        1.49274895       7.42845105      10.40685465      -0.67500000
P        4.44963753       7.34778435       7.24456435      -0.67500000
P        1.47770623      10.33168587       7.41194198      -0.67500000
P        4.41675142      10.28293970      10.33299318      -0.67500000
In       0.01014530       5.98149611       5.88225629       0.67500000
In       2.97583464       6.03002923       8.85786476       0.67500000
In      -0.00432644       8.84424187       8.89068217       0.67500000
In       2.94848373       8.91018360       5.86272949       0.67500000
P        7.36448167       1.52257835       4.40793187      -0.67500000
P       10.34778208       1.49158179       1.47960799      -0.67500000
P        7.45070562       4.54138705       1.43676811      -0.67500000
P       10.30151508       4.49275135       4.43814466      -0.67500000
In       5.93436731      -0.04484430      -0.03005606       0.67500000
In       8.87370755       0.02087313       2.96459772       0.67500000
In       5.94666016       3.17635833       2.98933347       0.67500000
In       8.87316393       2.96786772      -0.00432976       0.67500000
P        7.37468718       1.50229351      10.32461221      -0.67500000
P       10.32460984       1.50229291       7.37469007      -0.67500000
P        7.25936769       4.49101063       7.25936881      -0.67500000
P       10.33841241       4.47873705      10.33841283      -0.67500000
In       5.89246731       0.02529300       5.89246740       0.67500000
In       8.85650039       0.02573812       8.85649695       0.67500000
In       5.90960691       2.99304754       8.82558808       0.67500000
In       8.82559041       2.99304760       5.90960693       0.67500000
P        7.24456401       7.34778434       4.44963665      -0.67500000
P       10.40685468       7.42845172       1.49274783      -0.67500000
P        7.41194093      10.33168660       1.47770502      -0.67500000
P       10.33299232      10.28293915       4.41675061      -0.67500000
In       5.88225705       5.98149675       0.01014554       0.67500000
In       8.85786800       6.03002922       2.97583790       0.67500000
In       5.86272945       8.91018376       2.94848495       0.67500000
In       8.89068401       8.84424188      -0.00432678       0.67500000
P        7.38135551       7.40495993      10.30349509      -0.67500000
P       10.30349467       7.40495979       7.38135648      -0.67500000
P        7.37095682      10.35243545       7.37095787      -0.67500000
P       10.35517855      10.36659318      10.35517917      -0.67500000
In       5.52535605       5.57962622       5.52535546       0.67500000
In       8.79538646       5.89147032       8.79538498       0.67500000
In       5.88179746       8.81888529       8.78219936       0.67500000
In       8.78220114       8.81888550       5.88179637       0.67500000
63
Lattice="11.8016818 -7.6e-06 -7.6e-06 -7.6e-06 11.8016818 -7.8e-06 -7.6e-06 -7.8e-06 11.8016816" Properties=species:S:1:pos:R:3:mulliken_charges:R:1 virial="-0.001343979365248383 3.847269175329341e-05 3.847269175329341e-05 3.847269175329341e-05 -0.001345261788306826 3.847269175329341e-05 3.847269175329341e-05 3.847269175329341e-05 -0.0013426969421899398" fermi_energy=3.4539138232004998 core_to_fermi_energy=15.43004959127955 config_type=Accurate_Bulk energy=-265.6537747804748 pbc="T T T"
P        1.34361357       1.64683161       4.60985845      -0.67500000
P        4.60983164       1.64682134       1.34365953      -0.67500000
P        1.62150547       4.44471688       1.62150733      -0.67500000
In       0.09845303      -0.06053006       0.09845207       0.67500000
In       3.25261207       0.80650257       3.25255071       0.67500000
In      -0.04260945       3.02236653       2.94883722       0.67500000
In       2.94883862       3.02236594      -0.04261083       0.67500000
P        1.47254852       1.48245280      10.35088745      -0.67500000
P        4.40881569       1.50655681       7.37295672      -0.67500000
P        1.42060104       4.55101846       7.46757025      -0.67500000
P        4.43968057       4.49441404      10.29444828      -0.67500000
In      -0.05360643      -0.08619324       5.95289336       0.67500000
In       2.96182513       0.01054041       8.88559919       0.67500000
In      -0.01239169       2.95721984       8.87964208       0.67500000
In       2.92368846       3.12356989       6.01028009       0.67500000
P        1.58164230       7.33458442       4.38962224      -0.67500000
P        4.38962190       7.33458436       1.58164372      -0.67500000
P        1.69118247      10.55131245       1.69118525      -0.67500000
P        4.33218612      10.51351198       4.33218775      -0.67500000
In       0.09358622       5.87053205       0.09358566       0.67500000
In       3.33526386       5.62066885       3.33526258       0.67500000
In       0.16164271       8.89855349       2.91154156       0.67500000
In       2.91154331       8.89855293       0.16164105       0.67500000
P        1.48973971       7.41785831      10.40806949      -0.67500000
P        4.44510147       7.35668077       7.23875706      -0.67500000
P        1.48031225      10.32106576       7.41848502      -0.67500000
P        4.41070221      10.26236637      10.33095128      -0.67500000
In       0.00992470       5.98480495       5.87631253       0.67500000
In       2.97898715       6.03758924       8.85734082       0.67500000
In      -0.00662899       8.83519391       8.89641894       0.67500000
In       2.95163637       8.92709863       5.84714887       0.67500000
P        7.37295855       1.50655778       4.40881787      -0.67500000
P       10.35088974       1.48245240       1.47255165      -0.67500000
P        7.46757519       4.55102293       1.42060323      -0.67500000
P       10.29445217       4.49441039       4.43968227      -0.67500000
In       5.95289545      -0.08619651      -0.05360920       0.67500000
In       8.88559667       0.01054056       2.96182317       0.67500000
In       6.01027608       3.12356635       2.92368623       0.67500000
In       8.87963915       2.95722035      -0.01239337       0.67500000
P        7.37226751       1.49700595      10.31984540      -0.67500000
P       10.31984963       1.49700670       7.37226294      -0.67500000
P        7.25187948       4.49066290       7.25187748      -0.67500000
P       10.33739469       4.47629720      10.33739376      -0.67500000
In       5.87543402       0.00286460       5.87543313       0.67500000
In       8.85336821       0.02114434       8.85337283       0.67500000
In       5.91098305       2.99210291       8.82336370       0.67500000
In       8.82336063       2.99210263       5.91098241       0.67500000
P        7.23875843       7.35668117       4.44510202      -0.67500000
P       10.40807038       7.41785795       1.48974087      -0.67500000
P        7.41848729      10.32106508       1.48031338      -0.67500000
P       10.33095392      10.26236769       4.41070254      -0.67500000
In       5.87631227       5.98480423       0.00992394       0.67500000
In       8.85733712       6.03758963       2.97898162       0.67500000
In       5.84715005       8.92709843       2.95163386       0.67500000
In       8.89641692       8.83519454      -0.00662874       0.67500000
P        7.38005084       7.40083075      10.30191941      -0.67500000
P       10.30192077       7.40083111       7.38004879      -0.67500000
P        7.36388870      10.35267957       7.36388652      -0.67500000
P       10.35180297      10.36220305      10.35180120      -0.67500000
In       5.51974320       5.59591512       5.51974292       0.67500000
In       8.79213245       5.88775680       8.79213384       0.67500000
In       5.88299233       8.81625603       8.77859410       0.67500000
In       8.77859228       8.81625569       5.88299349       0.67500000
63
Lattice="11.8016818 -7.6e-06 -7.6e-06 -7.6e-06 11.8016818 -7.8e-06 -7.6e-06 -7.8e-06 11.8016816" Properties=species:S:1:pos:R:3:mulliken_charges:R:1 virial="-0.001343979365248383 3.847269175329341e-05 3.847269175329341e-05 3.847269175329341e-05 -0.001345261788306826 3.847269175329341e-05 3.847269175329341e-05 3.847269175329341e-05 -0.0013426969421899398" fermi_energy=3.4539138232004998 core_to_fermi_energy=15.43004959127955 config_type=Accurate_Bulk energy=-265.06013339529954 pbc="T T T"
P        1.30232779       1.62882373       4.61753273      -0.67500000
P        4.61753989       1.62882464       1.30231386      -0.67500000
P        1.62800654       4.42881789       1.62800615      -0.67500000
In       0.10218924      -0.07627506       0.10218949       0.67500000
In       3.37638064       1.09391980       3.37639829       0.67500000
In      -0.05275463       3.01874008       2.95099619       0.67500000
In       2.95099597       3.01874044      -0.05275456       0.67500000
P        1.46919704       1.47804524      10.35170982      -0.67500000
P        4.40951519       1.49695077       7.37924866      -0.67500000
P        1.41311095       4.55365856       7.47497761      -0.67500000
P        4.44146441       4.49475534      10.29024997      -0.67500000
In      -0.06547090      -0.10815946       5.96557913       0.67500000
In       2.95983339       0.00287873       8.89197386       0.67500000
In      -0.01738684       2.95105652       8.88388463       0.67500000
In       2.87533082       3.07698026       6.04950372       0.67500000
P        1.58116674       7.33600413       4.39339386      -0.67500000
P        4.39339422       7.33600427       1.58116613      -0.67500000
P        1.68876910      10.53332346       1.68876832      -0.67500000
P        4.29018588      10.55555029       4.29018501      -0.67500000
In       0.09828528       5.86304107       0.09828523       0.67500000
In       3.33620306       5.63646567       3.33620304       0.67500000
In       0.16326771       8.89229873       2.89948069       0.67500000
In       2.89948056       8.89229887       0.16326781       0.67500000
P        1.48714466       7.40864592      10.40582387      -0.67500000
P        4.44324284       7.36044566       7.23951200      -0.67500000
P        1.48338144      10.31317450       7.42078609      -0.67500000
P        4.40951923      10.25193321      10.32992144      -0.67500000
In       0.00986792       5.98566961       5.87302588       0.67500000
In       2.98031000       6.03945342       8.85775204       0.67500000
In      -0.00666968       8.83136732       8.89893765       0.67500000
In       2.96226072       8.93915810       5.83536607       0.67500000
P        7.37924822       1.49695071       4.40951459      -0.67500000
P       10.35170929       1.47804551       1.46919615      -0.67500000
P        7.47497665       4.55365751       1.41311065      -0.67500000
P       10.29024939       4.49475633       4.44146392      -0.67500000
In       5.96557840      -0.10815787      -0.06546999       0.67500000
In       8.89197468       0.00287892       2.95983380       0.67500000
In       6.04950548       3.07698314       2.87533214       0.67500000
In       8.88388550       2.95105652      -0.01738646       0.67500000
P        7.37223400       1.49426430      10.31610373      -0.67500000
P       10.31610297       1.49426424       7.37223495      -0.67500000
P        7.24778065       4.48970669       7.24778085      -0.67500000
P       10.33676072       4.47536858      10.33676063      -0.67500000
In       5.85762807      -0.01362897       5.85762809       0.67500000
In       8.85068435       0.01648269       8.85068318       0.67500000
In       5.91192657       2.99078589       8.82267212       0.67500000
In       8.82267315       2.99078598       5.91192659       0.67500000
P        7.23951213       7.36044577       4.44324237      -0.67500000
P       10.40582408       7.40864624       1.48714410      -0.67500000
P        7.42078585      10.31317482       1.48338102      -0.67500000
P       10.32992102      10.25193298       4.40951889      -0.67500000
In       5.87302624       5.98566999       0.00986790       0.67500000
In       8.85775328       6.03945350       2.98031090       0.67500000
In       5.83536606       8.93915830       2.96226103       0.67500000
In       8.89893852       8.83136738      -0.00667000       0.67500000
P        7.37973297       7.39802250      10.30166046      -0.67500000
P       10.30166060       7.39802236       7.37973308      -0.67500000
P        7.35741676      10.35424936       7.35741690      -0.67500000
P       10.34804207      10.35854172      10.34804206      -0.67500000
In       5.51939896       5.61228623       5.51939844       0.67500000
In       8.79032101       5.88597658       8.79032035       0.67500000
In       5.88494176       8.81637685       8.77720833       0.67500000
In       8.77720921       8.81637708       5.88494114       0.67500000
63
Lattice="11.8016818 -7.6e-06 -7.6e-06 -7.6e-06 11.8016818 -7.8e-06 -7.6e-06 -7.8e-06 11.8016816" Properties=species:S:1:pos:R:3:mulliken_charges:R:1 virial="-0.001343979365248383 3.847269175329341e-05 3.847269175329341e-05 3.847269175329341e-05 -0.001345261788306826 3.847269175329341e-05 3.847269175329341e-05 3.847269175329341e-05 -0.0013426969421899398" fermi_energy=3.4539138232004998 core_to_fermi_energy=15.43004959127955 config_type=Accurate_Bulk energy=-264.55183458187975 pbc="T T T"
P        1.27704123       1.59596919       4.61261639      -0.67500000
P        4.61261679       1.59596967       1.27704108      -0.67500000
P        1.63341063       4.41113421       1.63341058      -0.67500000
In       0.10430569      -0.08503430       0.10430572       0.67500000
In       3.45267335       1.41007617       3.45267329       0.67500000
In      -0.06001520       3.01066006       2.95894874       0.67500000
In       2.95894883       3.01066016      -0.06001526       0.67500000
P        1.46737470       1.47476221      10.35119293      -0.67500000
P        4.41024398       1.48830552       7.38603181      -0.67500000
P        1.40601795       4.55476646       7.48205895      -0.67500000
P        4.44340363       4.49352601      10.28674096      -0.67500000
In      -0.07133033      -0.12220387       5.97521755       0.67500000
In       2.95815535      -0.00516200       8.89574883       0.67500000
In      -0.02293696       2.94551570       8.88864146       0.67500000
In       2.82576826       3.02637957       6.09258375       0.67500000
P        1.58046124       7.33666702       4.39889994      -0.67500000
P        4.39890017       7.33666711       1.58046104      -0.67500000
P        1.68523729      10.51793802       1.68523711      -0.67500000
P        4.25471554      10.58469144       4.25471531      -0.67500000
In       0.10257814       5.85630757       0.10257801       0.67500000
In       3.33384910       5.65320115       3.33384883       0.67500000
In       0.16467686       8.88675549       2.89526764       0.67500000
In       2.89526781       8.88675552       0.16467669       0.67500000
P        1.48543847       7.40196150      10.40466650      -0.67500000
P        4.44216789       7.36136170       7.24484769      -0.67500000
P        1.48632124      10.30439789       7.42166908      -0.67500000
P        4.41016154      10.24521059      10.33002913      -0.67500000
In       0.00899165       5.98573020       5.86937396       0.67500000
In       2.98195574       6.03957790       8.85978026       0.67500000
In      -0.00580093       8.82968685       8.90015622       0.67500000
In       2.97938649       8.94888313       5.82394037       0.67500000
P        7.38603188       1.48830564       4.41024393      -0.67500000
P       10.35119306       1.47476236       1.46737466      -0.67500000
P        7.48205915       4.55476661       1.40601785      -0.67500000
P       10.28674119       4.49352608       4.44340349      -0.67500000
In       5.97521758      -0.12220367      -0.07133025       0.67500000
In       8.89574891      -0.00516181       2.95815533       0.67500000
In       6.09258371       3.02638041       2.82576864       0.67500000
In       8.88864162       2.94551585      -0.02293698       0.67500000
P        7.37319795       1.49190238      10.31258275      -0.67500000
P       10.31258292       1.49190242       7.37319789      -0.67500000
P        7.24473060       4.48863075       7.24473042      -0.67500000
P       10.33623367       4.47503554      10.33623346      -0.67500000
In       5.83691418      -0.02884049       5.83691404       0.67500000
In       8.84790916       0.01078960       8.84790901       0.67500000
In       5.91243281       2.98822781       8.82158750       0.67500000
In       8.82158773       2.98822783       5.91243267       0.67500000
P        7.24484804       7.36136183       4.44216761      -0.67500000
P       10.40466686       7.40196173       1.48543829      -0.67500000
P        7.42166932      10.30439804       1.48632105      -0.67500000
P       10.33002941      10.24521069       4.41016127      -0.67500000
In       5.86937424       5.98573035       0.00899149       0.67500000
In       8.85978066       6.03957804       2.98195551       0.67500000
In       5.82394066       8.94888320       2.97938627       0.67500000
In       8.90015653       8.82968705      -0.00580109       0.67500000
P        7.37993589       7.39519659      10.30206900      -0.67500000
P       10.30206933       7.39519659       7.37993564      -0.67500000
P        7.35097530      10.35676386       7.35097504      -0.67500000
P       10.34625582      10.35592276      10.34625548      -0.67500000
In       5.52208268       5.63348541       5.52208223       0.67500000
In       8.78895172       5.88449294       8.78895142       0.67500000
In       5.88764624       8.81719482       8.77623261       0.67500000
In       8.77623297       8.81719488       5.88764598       0.67500000
63