 +-------------------------------------------------+
 |                                                 |
 |      CCC   AA    SSS  TTTTT  EEEEE  PPPP        |
 |     C     A  A  S       T    E      P   P       |
 |     C     AAAA   SS     T    EEE    PPPP        |
 |     C     A  A     S    T    E      P           |
 |      CCC  A  A  SSS     T    EEEEE  P           |
 |                                                 |
 +-------------------------------------------------+
 |                                                 |
 | Welcome to Academic Release CASTEP version 24.1 |
 | Ab Initio Total Energy Program                  |
 |                                                 |
 | Authors:                                        |
 | M. Segall, M. Probert, C. Pickard, P. Hasnip,   |
 | S. Clark, K. Refson, J. R. Yates,               |
 | A. Bartok-Partay, M. Payne                      |
 |                                                 |
 | Contributors:                                   |
 | P. Lindan, P. Haynes, J. White, V. Milman,      |
 | N. Govind, M. Gibson, P. Tulip, V. Cocula,      |
 | B. Montanari, D. Quigley, M. Glover,            |
 | L. Bernasconi, A. Perlov, M. Plummer,           |
 | E. McNellis, J. Meyer, J. Gale, D. Jochym       |
 | J. Aarons, B. Walker, R. Gillen, D. Jones       |
 | T. Green, I. J. Bush, C. J. Armstrong,          |
 | E. J. Higgins, E. L. Brown, M. S. McFly,        |
 | J. Wilkins, B-C. Shih, P. J. P. Byrne,          |
 | R. J. Maurer, J. C. Womack, J. Dziedzic,        |
 | L. LeBlanc, T. K. Stenczel, J. Kermode,         |
 | S. Sturniolo, B. Shi, B. Durham, M. Evans,      |
 | M. J. Smith, A. Tamerus, Z. Hawkhead,           |
 | V. Ravindran, T. Hollins, S. A. Joyce,          |
 | R. T. Strong, A. M. Reilly, S. J. Donaldson     |
 |                                                 |
 | Copyright (c) 2000 - 2023                       |
 |                                                 |
 |     Distributed under license from Cambridge    |
 |     Enterprise for academic use only.           |
 |                                                 |
 | Please cite                                     |
 |                                                 |
 |     "First principles methods using CASTEP"     |
 |                                                 |
 |         Zeitschrift fuer Kristallographie       |
 |           220(5-6) pp. 567-570 (2005)           |
 |                                                 |
 | S. J. Clark, M. D. Segall, C. J. Pickard,       |
 | P. J. Hasnip, M. J. Probert, K. Refson,         |
 | M. C. Payne                                     |
 |                                                 |
 |       in all publications arising from          |
 |              your use of CASTEP                 |
 |                                                 |
 +-------------------------------------------------+
 |                                                 |
 |              http://www.castep.org              |
 |                                                 |
 +-------------------------------------------------+



 Compiled for  GNU 11.2.0 on 04-04-2024 18:39:17
 from code version 6355fd106 Castep241_branch Thu Mar 7 17:56:19 2024 +0000
 Compiler: GNU Fortran 11.2.0; Optimisation: FAST
 Comms   : MPI VERSION : CRAY MPICH version 8.1.23.14 (ANL base 3.4a2)
 MATHLIBS: default (LAPACK version 3.10.1)
 FFT Lib : fftw3 version commercial-fftw-3.3.10-sse2-avx-avx2-avx2_128
 Fundamental constants values: CODATA 2018

 Run started: Tue, 29 Apr 2025 16:19:54 +0100

 Atomic calculation performed for P: 1s2 2s2 2p6 3s2 3p3

 Converged in 47 iterations to an ae energy of -9309.074 eV

   ============================================================                
   | Pseudopotential Report - Date of generation 29-04-2025   |                
   ------------------------------------------------------------                
   | Element: P Ionic charge:  5.00 Level of theory: RSCAN    |                
   | Atomic Solver: Koelling-Harmon                           |                
   |                                                          |                
   |               Reference Electronic Structure             |                
   |         Orbital         Occupation         Energy        |                
   |            3s              2.000           -0.535        |                
   |            3p              3.000           -0.209        |                
   |                                                          |                
   |                 Pseudopotential Definition               |                
   |        Beta     l      e      Rc     scheme   norm       |                
   |          1      0   -0.535   1.807     qc      0         |                
   |          2      0    0.250   1.807     qc      0         |                
   |          3      1   -0.209   1.807     qc      0         |                
   |          4      1    0.250   1.807     qc      0         |                
   |          5      2    0.000   1.807     qc      0         |                
   |          6      2    0.250   1.807     qc      0         |                
   |         loc     3    0.000   1.807     pn      0         |                
   |                                                          |                
   | Augmentation charge Rinner = 1.263                       |                
   | Partial core correction Rc = 1.263                       |                
   ------------------------------------------------------------                
   | "3|1.8|4|4|5|30:31:32"                                   |                
   ------------------------------------------------------------                
   |      Author: Chris J. Pickard, Cambridge University      |                
   ============================================================                
 Warning: otfg_output_psp cannot write out meta-GGA pseudopotentials presently.

 Atomic calculation performed for In:
 1s2 2s2 2p6 3s2 3p6 3d10 4s2 4p6 4d10 5s2 5p1

 Converged in 84 iterations to an ae energy of -160093.328 eV

   ============================================================                
   | Pseudopotential Report - Date of generation 29-04-2025   |                
   ------------------------------------------------------------                
   | Element: In Ionic charge: 13.00 Level of theory: RSCAN   |                
   | Atomic Solver: Koelling-Harmon                           |                
   |                                                          |                
   |               Reference Electronic Structure             |                
   |         Orbital         Occupation         Energy        |                
   |            4d             10.000           -0.711        |                
   |            5s              2.000           -0.313        |                
   |            5p              1.000           -0.095        |                
   |                                                          |                
   |                 Pseudopotential Definition               |                
   |        Beta     l      e      Rc     scheme   norm       |                
   |          1      0   -0.313   2.501     qc      0         |                
   |          2      0    0.250   2.501     qc      0         |                
   |          3      1   -0.095   2.501     qc      0         |                
   |          4      1    0.250   2.501     qc      0         |                
   |          5      2   -0.711   2.207     qc      0         |                
   |          6      2    0.250   2.207     qc      0         |                
   |         loc     3    0.000   2.501     pn      0         |                
   |                                                          |                
   | Augmentation charge Rinner = 1.504                       |                
   | Partial core correction Rc = 1.504                       |                
   ------------------------------------------------------------                
   | "3|2.5|2.5|1.5|7|8|9|50:51:42U2.2U2.2"                   |                
   ------------------------------------------------------------                
   |      Author: Chris J. Pickard, Cambridge University      |                
   ============================================================                
 Warning: otfg_output_psp cannot write out meta-GGA pseudopotentials presently.

 Pseudo atomic calculation performed for P 3s2 3p3

 Converged in 23 iterations to a total energy of -208.0292 eV

 Pseudo atomic calculation performed for In 4d10 5s2 5p1

 Converged in 42 iterations to a total energy of -1747.4501 eV
 Calculation parallelised over 108 processes.
 Data is distributed by G-vector(3-way) and k-point(36-way)
 Each process may use up to 16 threads.

 ************************************ Title ************************************
 

 ***************************** General Parameters ******************************
  
 output verbosity                               : normal  (1)
 write checkpoint data to                       : P_Vacancy_Migration_5->3_Singlepoints_2.check
 type of calculation                            : single point energy
 stress calculation                             : off
 density difference calculation                 : off
 electron localisation func (ELF) calculation   : off
 Hirshfeld analysis                             : on
 polarisation (Berry phase) analysis            : off
 molecular orbital projected DOS                : off
 deltaSCF calculation                           : off
 unlimited duration calculation
 timing information                             : on
 memory usage estimate                          : on
 write extra output files                       : on
 write final potential to formatted file        : off
 write final density to formatted file          : off
 write BibTeX reference list                    : on
 write OTFG pseudopotential files               : on
 write electrostatic potential file             : on
 write bands file                               : on
 checkpoint writing                             : off
  
 output         length unit                     : A
 output           mass unit                     : amu
 output           time unit                     : ps
 output         charge unit                     : e
 output           spin unit                     : hbar/2
 output         energy unit                     : eV
 output          force unit                     : eV/A
 output       velocity unit                     : A/ps
 output       pressure unit                     : GPa
 output     inv_length unit                     : 1/A
 output      frequency unit                     : cm-1
 output force constant unit                     : eV/A**2
 output         volume unit                     : A**3
 output   IR intensity unit                     : (D/A)**2/amu
 output         dipole unit                     : D
 output         efield unit                     : eV/A/e
 output        entropy unit                     : J/mol/K
 output    efield chi2 unit                     : pm/V
  
 wavefunctions paging                           : none
 random number generator seed                   :  161954524
 data distribution                              : optimal for this architecture
 optimization strategy                          : balance speed and memory

 *********************** Exchange-Correlation Parameters ***********************
  
 using functional                               : RSCAN
 relativistic treatment                         : Koelling-Harmon
 DFT+D: Semi-empirical dispersion correction    : off

 ************************* Pseudopotential Parameters **************************
  
 pseudopotential representation                 : reciprocal space
 <beta|phi> representation                      : reciprocal space
 spin-orbit coupling                            : off

 **************************** Basis Set Parameters *****************************
  
 plane wave basis set cut-off                   :   900.0000   eV
 size of standard grid                          :     2.0000
 size of   fine   gmax                          :    30.7390   1/A
 finite basis set correction                    : none

 **************************** Electronic Parameters ****************************
  
 number of  electrons                           :  571.0    
 net charge of system                           :  0.000    
 net spin   of system                           :  1.000    
 number of  up  spins                           :  286.0    
 number of down spins                           :  285.0    
 treating system as spin-polarized
 number of bands                                :        343

 ********************* Electronic Minimization Parameters **********************
  
 Method: Treating system as metallic with density mixing treatment of electrons,
         and number of  SD  steps               :          1
         and number of  CG  steps               :          4
  
 total energy / atom convergence tol.           : 0.1000E-07   eV
 eigen-energy convergence tolerance             : 0.2203E-08   eV
 max force / atom convergence tol.              : ignored
 convergence tolerance window                   :          3   cycles
 max. number of SCF cycles                      :        100
 number of fixed-spin iterations                :         10
 smearing scheme                                : Gaussian
 smearing width                                 : 0.2000       eV
 Fermi energy convergence tolerance             : 0.2721E-13   eV
 periodic dipole correction                     : NONE

 ************************** Density Mixing Parameters **************************
  
 density-mixing scheme                          : Pulay
 max. length of mixing history                  :         20
 charge density mixing amplitude                : 0.5000    
   spin density mixing amplitude                :  2.000    
 cut-off energy for mixing                      :  900.0       eV

 *********************** Population Analysis Parameters ************************
  
 Population analysis with cutoff                :  3.000       A
 Population analysis output                     : summary and pdos components

 *******************************************************************************
  

                           -------------------------------
                                      Unit Cell
                           -------------------------------
        Real Lattice(A)                      Reciprocal Lattice(1/A)
    11.8016820    -0.0000080    -0.0000080        0.532397442   0.000000361   0.000000361
    -0.0000080    11.8016820    -0.0000080        0.000000361   0.532397442   0.000000361
    -0.0000080    -0.0000080    11.8016820        0.000000361   0.000000361   0.532397442

                       Lattice parameters(A)       Cell Angles
                    a =     11.801682          alpha =   90.000078
                    b =     11.801682          beta  =   90.000078
                    c =     11.801682          gamma =   90.000078

                       Current cell volume =          1643.734705       A**3
                                   density =             2.819410   AMU/A**3
                                           =             4.681741     g/cm^3

                           -------------------------------
                                     Cell Contents
                           -------------------------------
                         Total number of ions in cell =   63
                      Total number of species in cell =    2
                        Max number of any one species =   32

            xxxxxxxxxxxxxxxxxxxxxxxxxxxxxxxxxxxxxxxxxxxxxxxxxxxxxxxxxxxx
            x  Element    Atom        Fractional coordinates of atoms  x
            x            Number           u          v          w      x
            x----------------------------------------------------------x
            x  P            1         0.112289   0.148575   0.392207   x 
            x  P            2         0.392199   0.148573   0.112303   x 
            x  P            3         0.126287   0.372976   0.126287   x 
            x  P            4         0.124818   0.122816   0.874851   x 
            x  P            5         0.377760   0.123269   0.629210   x 
            x  P            6         0.122237   0.387515   0.635229   x 
            x  P            7         0.375406   0.383555   0.869938   x 
            x  P            8         0.134095   0.619683   0.371705   x 
            x  P            9         0.371705   0.619683   0.134095   x 
            x  P           10         0.141364   0.894858   0.141365   x 
            x  P           11         0.364329   0.898664   0.364330   x 
            x  P           12         0.123889   0.630946   0.881002   x 
            x  P           13         0.376659   0.630147   0.615042   x 
            x  P           14         0.127006   0.872697   0.625326   x 
            x  P           15         0.372868   0.867675   0.878661   x 
            x  P           16         0.629210   0.123269   0.377760   x 
            x  P           17         0.874851   0.122816   0.124819   x 
            x  P           18         0.635231   0.387516   0.122238   x 
            x  P           19         0.869939   0.383554   0.375406   x 
            x  P           20         0.623427   0.125207   0.878543   x 
            x  P           21         0.878544   0.125207   0.623425   x 
            x  P           22         0.620762   0.374175   0.620761   x 
            x  P           23         0.874315   0.374639   0.874315   x 
            x  P           24         0.615042   0.630147   0.376660   x 
            x  P           25         0.881002   0.630946   0.123889   x 
            x  P           26         0.625326   0.872697   0.127006   x 
            x  P           27         0.878662   0.867675   0.372867   x 
            x  P           28         0.625865   0.625414   0.874001   x 
            x  P           29         0.874001   0.625414   0.625865   x 
            x  P           30         0.626852   0.877898   0.626851   x 
            x  P           31         0.875407   0.878843   0.875406   x 
            x  In           1         0.006492  -0.006319   0.006492   x 
            x  In           2         0.279119   0.089817   0.279100   x 
            x  In           3        -0.010146   0.257227   0.247966   x 
            x  In           4         0.247967   0.257227  -0.010147   x 
            x  In           5        -0.000311  -0.007113   0.500361   x 
            x  In           6         0.251285  -0.003441   0.752985   x 
            x  In           7         0.000417   0.249560   0.751371   x 
            x  In           8         0.249518   0.259943   0.521605   x 
            x  In           9         0.000482   0.499414   0.000482   x 
            x  In          10         0.264847   0.476453   0.264847   x 
            x  In          11         0.015451   0.753013   0.244495   x 
            x  In          12         0.244496   0.753013   0.015451   x 
            x  In          13         0.001414   0.505135   0.498530   x 
            x  In          14         0.252378   0.516312   0.750575   x 
            x  In          15        -0.001764   0.751033   0.751484   x 
            x  In          16         0.251845   0.758378   0.489988   x 
            x  In          17         0.500361  -0.007114  -0.000312   x 
            x  In          18         0.752984  -0.003441   0.251284   x 
            x  In          19         0.521603   0.259942   0.249516   x 
            x  In          20         0.751371   0.249560   0.000416   x 
            x  In          21         0.499180  -0.003884   0.499180   x 
            x  In          22         0.750911   0.006654   0.750912   x 
            x  In          23         0.501309   0.251203   0.752648   x 
            x  In          24         0.752648   0.251203   0.501309   x 
            x  In          25         0.498530   0.505135   0.001414   x 
            x  In          26         0.750575   0.516312   0.252377   x 
            x  In          27         0.489988   0.758378   0.251845   x 
            x  In          28         0.751484   0.751033  -0.001764   x 
            x  In          29         0.486095   0.487880   0.486095   x 
            x  In          30         0.747442   0.497996   0.747442   x 
            x  In          31         0.501515   0.749356   0.747930   x 
            x  In          32         0.747930   0.749356   0.501515   x 
            xxxxxxxxxxxxxxxxxxxxxxxxxxxxxxxxxxxxxxxxxxxxxxxxxxxxxxxxxxxx


                         No user defined ionic velocities

                           -------------------------------
                                   Details of Species
                           -------------------------------

                               Mass of species in AMU
                                    P   30.9737600
                                    In  114.8180000

                          Electric Quadrupole Moment (Barn)
                                    P    1.0000000 No Isotope Defined
                                    In    0.7700000 Isotope115

                          Files used for pseudopotentials:
                                    P 3|1.8|4|4|5|30:31:32
                                    In 3|2.5|2.5|1.5|7|8|9|50:51:42U2.2U2.2

                           -------------------------------
                              k-Points For BZ Sampling
                           -------------------------------
                       MP grid size for SCF calculation is  4  4  4
                            with an offset of   0.125  0.125  0.125
                       Number of kpoints used =            36

                           -------------------------------
                               Symmetry and Constraints
                           -------------------------------

                      Maximum deviation from symmetry =  0.00000         ANG

                      Number of symmetry operations   =           1
                      Number of ionic constraints     =           3
                      Point group of crystal =     1: C1, 1, 1
                      Space group of crystal =     8: Cm, C -2y

             Set iprint > 1 for details on symmetry rotations/translations

                         Centre of mass is constrained
             Set iprint > 1 for details of linear ionic constraints

                         Number of cell constraints= 0
                         Cell constraints are:  1 2 3 4 5 6

                         External pressure/stress (GPa)
                          0.00000   0.00000   0.00000
                                    0.00000   0.00000
                                              0.00000
 
+---------------- MEMORY AND SCRATCH DISK ESTIMATES PER PROCESS --------------+
|                                                     Memory          Disk    |
| Baseline code, static data and system overhead      368.0 MB         0.0 MB |
| BLAS internal memory storage                          0.0 MB         0.0 MB |
| Model and support data                             4302.1 MB         0.0 MB |
| Electronic energy minimisation requirements        1320.9 MB         0.0 MB |
| Force calculation requirements                      127.4 MB         0.0 MB |
|                                               ----------------------------- |
| Approx. total storage required per process         5991.0 MB         0.0 MB |
|                                                                             |
| Requirements will fluctuate during execution and may exceed these estimates |
+-----------------------------------------------------------------------------+
Calculating approximate eigenstates for fixed initial Hamiltonian
Cut-off for approx. calculation is   89.988 eV
Improving approx. states at cut-off of  450.000 eV
Resetting cut-off to  900.000 eV
Calculating total energy with cut-off of  900.000 eV.
------------------------------------------------------------------------ <-- SCF
SCF loop      Energy           Fermi           Energy gain       Timer   <-- SCF
                               energy          per atom          (sec)   <-- SCF
------------------------------------------------------------------------ <-- SCF
Initial  -6.28292886E+004  0.00000000E+000                       420.67  <-- SCF
      1  -6.25846980E+004  3.10743341E+000  -3.88239013E+000     853.90  <-- SCF
      2  -6.25849649E+004  3.10697641E+000   4.23649079E-003    1159.96  <-- SCF
      3  -6.26522307E+004  3.18263129E+000   1.06771022E+000    1513.11  <-- SCF
      4  -6.26645744E+004  3.22378023E+000   1.95932380E-001    2002.71  <-- SCF
      5  -6.26718401E+004  3.31935022E+000   1.15328343E-001    2352.01  <-- SCF
      6  -6.26609375E+004  3.49247478E+000  -1.73056634E-001    2689.23  <-- SCF
      7  -6.26596608E+004  3.53886748E+000  -2.02661440E-002    3039.41  <-- SCF
      8  -6.26595535E+004  3.55816742E+000  -1.70252615E-003    3403.37  <-- SCF
      9  -6.26603501E+004  3.56249537E+000   1.26439491E-002    3755.71  <-- SCF
     10  -6.26607619E+004  3.79737259E+000   6.53733736E-003    4116.56  <-- SCF
     11  -6.26608462E+004  3.80205894E+000   1.33709443E-003    4474.62  <-- SCF
     12  -6.26608725E+004  3.80299558E+000   4.18789791E-004    4835.62  <-- SCF
     13  -6.26608839E+004  3.80329578E+000   1.79605818E-004    5199.04  <-- SCF
     14  -6.26608884E+004  3.80374571E+000   7.14092457E-005    5564.42  <-- SCF
     15  -6.26608892E+004  3.80400807E+000   1.38483115E-005    5942.40  <-- SCF
     16  -6.26608904E+004  3.80458892E+000   1.86396453E-005    6300.64  <-- SCF
     17  -6.26608908E+004  3.80492364E+000   5.62838110E-006    6681.56  <-- SCF
     18  -6.26608910E+004  3.80533053E+000   4.53499589E-006    7035.20  <-- SCF
     19  -6.26608911E+004  3.80541783E+000   7.68107337E-007    7376.55  <-- SCF
     20  -6.26608911E+004  3.80540738E+000   1.96108784E-007    7691.89  <-- SCF
     21  -6.26608911E+004  3.80538047E+000   7.30174394E-008    7978.91  <-- SCF
     22  -6.26608911E+004  3.80537175E+000   2.43029402E-008    8241.82  <-- SCF
     23  -6.26608911E+004  3.80536129E+000   1.60469212E-008    8509.05  <-- SCF
     24  -6.26608911E+004  3.80535700E+000   3.05036459E-009    8746.25  <-- SCF
     25  -6.26608911E+004  3.80535287E+000   2.60980002E-009    8986.49  <-- SCF
------------------------------------------------------------------------ <-- SCF
 
Integrated Spin Density     =    0.215253E-03 hbar/2
Integrated |Spin Density|   =    0.104288E-02 hbar/2
 
Final energy, E             =  -62660.75698601     eV
Final free energy (E-TS)    =  -62660.89111111     eV
(energies not corrected for finite basis set)
 
NB est. 0K energy (E-0.5TS)      =  -62660.82404856     eV
 

 ************************** Forces **************************
 *                                                          *
 *               Cartesian components (eV/A)                *
 * -------------------------------------------------------- *
 *                         x            y            z      *
 *                                                          *
 * P               1      0.23958      0.01166     -0.03843 *
 * P               2     -0.03633      0.01229      0.23567 *
 * P               3      0.07480      0.03906      0.07474 *
 * P               4      0.02453      0.01286      0.02015 *
 * P               5     -0.00683      0.08972     -0.09791 *
 * P               6      0.04310     -0.00966     -0.03265 *
 * P               7      0.03675      0.00474      0.05503 *
 * P               8     -0.07048      0.06521     -0.00409 *
 * P               9     -0.00407      0.06518     -0.07054 *
 * P              10      0.03125      0.06984      0.03107 *
 * P              11      0.13318     -0.11695      0.13303 *
 * P              12      0.05245      0.00774     -0.02570 *
 * P              13      0.02772     -0.03301      0.00244 *
 * P              14     -0.01815      0.04711      0.00597 *
 * P              15      0.03881      0.08432     -0.05172 *
 * P              16     -0.09804      0.08975     -0.00693 *
 * P              17      0.02005      0.01293      0.02434 *
 * P              18     -0.03300     -0.01001      0.04301 *
 * P              19      0.05479      0.00501      0.03659 *
 * P              20     -0.01774      0.06441     -0.02132 *
 * P              21     -0.02161      0.06433     -0.01740 *
 * P              22     -0.01636      0.04912     -0.01627 *
 * P              23      0.01008      0.01615      0.01008 *
 * P              24      0.00239     -0.03303      0.02767 *
 * P              25     -0.02573      0.00776      0.05241 *
 * P              26      0.00591      0.04716     -0.01816 *
 * P              27     -0.05177      0.08423      0.03888 *
 * P              28     -0.00019      0.00059     -0.00624 *
 * P              29     -0.00625      0.00058     -0.00014 *
 * P              30      0.01080      0.05348      0.01088 *
 * P              31     -0.00365      0.07267     -0.00359 *
 * In              1      0.02622     -0.00062      0.02628 *
 * In              2     -0.47531     -1.73422     -0.46991 *
 * In              3      0.08816      0.05038     -0.01566 *
 * In              4     -0.01579      0.05048      0.08819 *
 * In              5      0.02050      0.04895      0.02792 *
 * In              6     -0.05773     -0.00562      0.01904 *
 * In              7      0.04834     -0.01289      0.01878 *
 * In              8     -0.02424      0.15779     -0.15363 *
 * In              9      0.02098      0.06065      0.02097 *
 * In             10      0.07708      0.16939      0.07711 *
 * In             11     -0.00774      0.07635     -0.03989 *
 * In             12     -0.04001      0.07637     -0.00767 *
 * In             13     -0.00222      0.01866     -0.02293 *
 * In             14     -0.04773     -0.01061      0.02780 *
 * In             15      0.01912     -0.00481      0.02519 *
 * In             16     -0.04510     -0.02131      0.06889 *
 * In             17      0.02791      0.04922      0.02061 *
 * In             18      0.01912     -0.00562     -0.05768 *
 * In             19     -0.15311      0.15822     -0.02391 *
 * In             20      0.01893     -0.01295      0.04844 *
 * In             21      0.09191      0.06366      0.09189 *
 * In             22      0.02700     -0.19658      0.02671 *
 * In             23     -0.00821      0.07095     -0.03293 *
 * In             24     -0.03280      0.07095     -0.00823 *
 * In             25     -0.02289      0.01872     -0.00219 *
 * In             26      0.02801     -0.01062     -0.04737 *
 * In             27      0.06887     -0.02129     -0.04494 *
 * In             28      0.02527     -0.00482      0.01908 *
 * In             29     -0.03363     -0.05065     -0.03364 *
 * In             30     -0.00845      0.06311     -0.00849 *
 * In             31     -0.02589      0.00673     -0.00268 *
 * In             32     -0.00259      0.00676     -0.02599 *
 *                                                          *
 ************************************************************

 Pseudo atomic calculation performed for P 3s2 3p3

 Converged in 23 iterations to a total energy of -208.0292 eV

 Pseudo atomic calculation performed for In 4d10 5s2 5p1

 Converged in 42 iterations to a total energy of -1747.4501 eV
Charge spilling parameter for spin component 1 = 0.17%
Charge spilling parameter for spin component 2 = 0.17%

                   Orbital Populations                  
  ---------------------------------------------------------------
     Ion    Atom   Orbital              Up        Down      Spin
  ---------------------------------------------------------------
      P     1      S                    0.877     0.877    -0.000
      P     1      Px                   0.609     0.609    -0.000
      P     1      Py                   0.674     0.674    -0.000
      P     1      Pz                   0.659     0.659    -0.000
      P     2      S                    0.877     0.877    -0.000
      P     2      Px                   0.659     0.659    -0.000
      P     2      Py                   0.675     0.675    -0.000
      P     2      Pz                   0.609     0.609     0.000
      P     3      S                    0.873     0.873     0.000
      P     3      Px                   0.642     0.642    -0.000
      P     3      Py                   0.671     0.671    -0.000
      P     3      Pz                   0.642     0.642    -0.000
      P     4      S                    0.869     0.869     0.000
      P     4      Px                   0.656     0.656     0.000
      P     4      Py                   0.652     0.652    -0.000
      P     4      Pz                   0.658     0.658     0.000
      P     5      S                    0.872     0.872     0.000
      P     5      Px                   0.662     0.662    -0.000
      P     5      Py                   0.643     0.643     0.000
      P     5      Pz                   0.650     0.650    -0.000
      P     6      S                    0.870     0.870    -0.000
      P     6      Px                   0.646     0.646     0.000
      P     6      Py                   0.658     0.658     0.000
      P     6      Pz                   0.655     0.655     0.000
      P     7      S                    0.868     0.868     0.000
      P     7      Px                   0.656     0.656    -0.000
      P     7      Py                   0.652     0.652     0.000
      P     7      Pz                   0.659     0.659    -0.000
      P     8      S                    0.873     0.873     0.000
      P     8      Px                   0.647     0.647    -0.000
      P     8      Py                   0.641     0.641    -0.000
      P     8      Pz                   0.665     0.665    -0.000
      P     9      S                    0.873     0.873    -0.000
      P     9      Px                   0.665     0.665     0.000
      P     9      Py                   0.641     0.641    -0.000
      P     9      Pz                   0.647     0.647    -0.000
      P    10      S                    0.894     0.894    -0.000
      P    10      Px                   0.641     0.641     0.000
      P    10      Py                   0.638     0.638     0.000
      P    10      Pz                   0.641     0.641     0.000
      P    11      S                    0.877     0.877    -0.000
      P    11      Px                   0.655     0.655    -0.000
      P    11      Py                   0.634     0.634    -0.000
      P    11      Pz                   0.655     0.655    -0.000
      P    12      S                    0.869     0.869    -0.000
      P    12      Px                   0.655     0.655    -0.000
      P    12      Py                   0.658     0.658     0.000
      P    12      Pz                   0.652     0.652    -0.000
      P    13      S                    0.874     0.874    -0.000
      P    13      Px                   0.664     0.664     0.000
      P    13      Py                   0.645     0.645    -0.000
      P    13      Pz                   0.641     0.641     0.000
      P    14      S                    0.868     0.868    -0.000
      P    14      Px                   0.654     0.654    -0.000
      P    14      Py                   0.660     0.660     0.000
      P    14      Pz                   0.653     0.653     0.000
      P    15      S                    0.873     0.873     0.000
      P    15      Px                   0.658     0.658    -0.000
      P    15      Py                   0.651     0.651    -0.000
      P    15      Pz                   0.648     0.648    -0.000
      P    16      S                    0.872     0.872     0.000
      P    16      Px                   0.650     0.650    -0.000
      P    16      Py                   0.643     0.643     0.000
      P    16      Pz                   0.662     0.662    -0.000
      P    17      S                    0.869     0.869     0.000
      P    17      Px                   0.658     0.658     0.000
      P    17      Py                   0.652     0.652    -0.000
      P    17      Pz                   0.656     0.656     0.000
      P    18      S                    0.870     0.870    -0.000
      P    18      Px                   0.655     0.655     0.000
      P    18      Py                   0.658     0.658     0.000
      P    18      Pz                   0.646     0.646     0.000
      P    19      S                    0.868     0.868     0.000
      P    19      Px                   0.659     0.659     0.000
      P    19      Py                   0.652     0.652     0.000
      P    19      Pz                   0.656     0.656    -0.000
      P    20      S                    0.868     0.868     0.000
      P    20      Px                   0.654     0.654    -0.000
      P    20      Py                   0.656     0.656    -0.000
      P    20      Pz                   0.656     0.656    -0.000
      P    21      S                    0.868     0.868    -0.000
      P    21      Px                   0.656     0.656    -0.000
      P    21      Py                   0.656     0.656    -0.000
      P    21      Pz                   0.654     0.654    -0.000
      P    22      S                    0.873     0.873    -0.000
      P    22      Px                   0.644     0.644    -0.000
      P    22      Py                   0.664     0.664    -0.000
      P    22      Pz                   0.644     0.644    -0.000
      P    23      S                    0.872     0.872     0.000
      P    23      Px                   0.650     0.650     0.000
      P    23      Py                   0.660     0.660     0.000
      P    23      Pz                   0.650     0.650     0.000
      P    24      S                    0.874     0.874     0.000
      P    24      Px                   0.641     0.641     0.000
      P    24      Py                   0.645     0.645    -0.000
      P    24      Pz                   0.664     0.664    -0.000
      P    25      S                    0.869     0.869    -0.000
      P    25      Px                   0.652     0.652     0.000
      P    25      Py                   0.658     0.658     0.000
      P    25      Pz                   0.655     0.655    -0.000
      P    26      S                    0.868     0.868    -0.000
      P    26      Px                   0.653     0.653     0.000
      P    26      Py                   0.660     0.660    -0.000
      P    26      Pz                   0.654     0.654    -0.000
      P    27      S                    0.873     0.873    -0.000
      P    27      Px                   0.648     0.648    -0.000
      P    27      Py                   0.651     0.651    -0.000
      P    27      Pz                   0.658     0.658    -0.000
      P    28      S                    0.868     0.868    -0.000
      P    28      Px                   0.656     0.656    -0.000
      P    28      Py                   0.656     0.656     0.000
      P    28      Pz                   0.655     0.655    -0.000
      P    29      S                    0.868     0.868    -0.000
      P    29      Px                   0.655     0.655    -0.000
      P    29      Py                   0.656     0.656     0.000
      P    29      Pz                   0.656     0.656     0.000
      P    30      S                    0.868     0.868    -0.000
      P    30      Px                   0.656     0.656     0.000
      P    30      Py                   0.655     0.655    -0.000
      P    30      Pz                   0.656     0.656     0.000
      P    31      S                    0.869     0.869     0.000
      P    31      Px                   0.655     0.655    -0.000
      P    31      Py                   0.656     0.656    -0.000
      P    31      Pz                   0.655     0.655    -0.000
     In     1      Dzz                  1.000     1.000     0.000
     In     1      Dzy                  0.999     0.999    -0.000
     In     1      Dzx                  0.998     0.998    -0.000
     In     1      Dxx-yy               1.000     1.000    -0.000
     In     1      Dxy                  0.999     0.999    -0.000
     In     1      S                    0.705     0.705     0.000
     In     1      Px                   0.242     0.242     0.000
     In     1      Py                   0.240     0.240     0.000
     In     1      Pz                   0.242     0.242     0.000
     In     1      S                   -0.242    -0.242    -0.000
     In     2      Dzz                  0.999     0.999     0.000
     In     2      Dzy                  0.999     0.999    -0.000
     In     2      Dzx                  0.997     0.997     0.000
     In     2      Dxx-yy               0.999     0.999     0.000
     In     2      Dxy                  0.999     0.999    -0.000
     In     2      S                    0.712     0.712     0.000
     In     2      Px                   0.229     0.229     0.000
     In     2      Py                   0.218     0.218     0.000
     In     2      Pz                   0.229     0.229     0.000
     In     2      S                   -0.225    -0.225     0.000
     In     3      Dzz                  1.000     1.000    -0.000
     In     3      Dzy                  0.998     0.998     0.000
     In     3      Dzx                  0.998     0.998     0.000
     In     3      Dxx-yy               1.000     1.000     0.000
     In     3      Dxy                  0.999     0.999    -0.000
     In     3      S                    0.711     0.711     0.000
     In     3      Px                   0.237     0.237     0.000
     In     3      Py                   0.236     0.236     0.000
     In     3      Pz                   0.244     0.244     0.000
     In     3      S                   -0.242    -0.242     0.000
     In     4      Dzz                  1.000     1.000     0.000
     In     4      Dzy                  0.999     0.999    -0.000
     In     4      Dzx                  0.998     0.998     0.000
     In     4      Dxx-yy               1.000     1.000     0.000
     In     4      Dxy                  0.998     0.998    -0.000
     In     4      S                    0.711     0.711     0.000
     In     4      Px                   0.244     0.244     0.000
     In     4      Py                   0.236     0.236     0.000
     In     4      Pz                   0.237     0.237     0.000
     In     4      S                   -0.242    -0.242     0.000
     In     5      Dzz                  1.000     1.000     0.000
     In     5      Dzy                  0.998     0.998    -0.000
     In     5      Dzx                  0.999     0.999    -0.000
     In     5      Dxx-yy               1.000     1.000     0.000
     In     5      Dxy                  0.999     0.999    -0.000
     In     5      S                    0.717     0.717    -0.000
     In     5      Px                   0.236     0.236     0.000
     In     5      Py                   0.239     0.239     0.000
     In     5      Pz                   0.238     0.238     0.000
     In     5      S                   -0.250    -0.250     0.000
     In     6      Dzz                  1.000     1.000     0.000
     In     6      Dzy                  0.999     0.999     0.000
     In     6      Dzx                  0.999     0.999    -0.000
     In     6      Dxx-yy               1.000     1.000    -0.000
     In     6      Dxy                  0.998     0.998     0.000
     In     6      S                    0.712     0.712    -0.000
     In     6      Px                   0.241     0.241     0.000
     In     6      Py                   0.240     0.240     0.000
     In     6      Pz                   0.239     0.239    -0.000
     In     6      S                   -0.256    -0.256    -0.000
     In     7      Dzz                  1.000     1.000     0.000
     In     7      Dzy                  0.998     0.998    -0.000
     In     7      Dzx                  0.999     0.999     0.000
     In     7      Dxx-yy               1.000     1.000     0.000
     In     7      Dxy                  0.998     0.998    -0.000
     In     7      S                    0.711     0.711     0.000
     In     7      Px                   0.239     0.239     0.000
     In     7      Py                   0.245     0.245     0.000
     In     7      Pz                   0.237     0.237    -0.000
     In     7      S                   -0.256    -0.256    -0.000
     In     8      Dzz                  1.000     1.000     0.000
     In     8      Dzy                  0.999     0.999    -0.000
     In     8      Dzx                  0.999     0.999    -0.000
     In     8      Dxx-yy               1.000     1.000    -0.000
     In     8      Dxy                  0.998     0.998    -0.000
     In     8      S                    0.719     0.719     0.000
     In     8      Px                   0.251     0.251     0.000
     In     8      Py                   0.244     0.244     0.000
     In     8      Pz                   0.234     0.234     0.000
     In     8      S                   -0.230    -0.230    -0.000
     In     9      Dzz                  1.000     1.000    -0.000
     In     9      Dzy                  0.998     0.998    -0.000
     In     9      Dzx                  0.999     0.999     0.000
     In     9      Dxx-yy               1.000     1.000    -0.000
     In     9      Dxy                  0.998     0.998     0.000
     In     9      S                    0.712     0.712     0.000
     In     9      Px                   0.239     0.239    -0.000
     In     9      Py                   0.241     0.241    -0.000
     In     9      Pz                   0.239     0.239    -0.000
     In     9      S                   -0.250    -0.250    -0.000
     In    10      Dzz                  1.000     1.000    -0.000
     In    10      Dzy                  0.999     0.999     0.000
     In    10      Dzx                  0.999     0.999    -0.000
     In    10      Dxx-yy               1.000     1.000     0.000
     In    10      Dxy                  0.999     0.999     0.000
     In    10      S                    0.726     0.726     0.000
     In    10      Px                   0.242     0.242    -0.000
     In    10      Py                   0.243     0.243    -0.000
     In    10      Pz                   0.242     0.242    -0.000
     In    10      S                   -0.230    -0.230    -0.000
     In    11      Dzz                  1.000     1.000    -0.000
     In    11      Dzy                  0.999     0.999    -0.000
     In    11      Dzx                  0.999     0.999    -0.000
     In    11      Dxx-yy               1.000     1.000     0.000
     In    11      Dxy                  0.998     0.998    -0.000
     In    11      S                    0.705     0.705     0.000
     In    11      Px                   0.240     0.240    -0.000
     In    11      Py                   0.244     0.244    -0.000
     In    11      Pz                   0.238     0.238     0.000
     In    11      S                   -0.235    -0.235    -0.000
     In    12      Dzz                  1.000     1.000     0.000
     In    12      Dzy                  0.998     0.998    -0.000
     In    12      Dzx                  0.999     0.999    -0.000
     In    12      Dxx-yy               1.000     1.000     0.000
     In    12      Dxy                  0.999     0.999    -0.000
     In    12      S                    0.705     0.705     0.000
     In    12      Px                   0.238     0.238    -0.000
     In    12      Py                   0.244     0.244    -0.000
     In    12      Pz                   0.240     0.240    -0.000
     In    12      S                   -0.235    -0.235    -0.000
     In    13      Dzz                  1.000     1.000     0.000
     In    13      Dzy                  0.999     0.999    -0.000
     In    13      Dzx                  0.998     0.998    -0.000
     In    13      Dxx-yy               1.000     1.000     0.000
     In    13      Dxy                  0.999     0.999    -0.000
     In    13      S                    0.709     0.709     0.000
     In    13      Px                   0.241     0.241    -0.000
     In    13      Py                   0.237     0.237    -0.000
     In    13      Pz                   0.241     0.241    -0.000
     In    13      S                   -0.251    -0.251     0.000
     In    14      Dzz                  1.000     1.000     0.000
     In    14      Dzy                  0.999     0.999    -0.000
     In    14      Dzx                  0.998     0.998    -0.000
     In    14      Dxx-yy               1.000     1.000    -0.000
     In    14      Dxy                  0.998     0.998    -0.000
     In    14      S                    0.706     0.706     0.000
     In    14      Px                   0.243     0.243    -0.000
     In    14      Py                   0.239     0.239    -0.000
     In    14      Pz                   0.239     0.239    -0.000
     In    14      S                   -0.241    -0.241     0.000
     In    15      Dzz                  1.000     1.000     0.000
     In    15      Dzy                  0.998     0.998    -0.000
     In    15      Dzx                  0.998     0.998    -0.000
     In    15      Dxx-yy               1.000     1.000    -0.000
     In    15      Dxy                  0.999     0.999     0.000
     In    15      S                    0.708     0.708    -0.000
     In    15      Px                   0.241     0.241    -0.000
     In    15      Py                   0.239     0.239    -0.000
     In    15      Pz                   0.241     0.241     0.000
     In    15      S                   -0.257    -0.257     0.000
     In    16      Dzz                  1.000     1.000     0.000
     In    16      Dzy                  0.999     0.999    -0.000
     In    16      Dzx                  0.999     0.999    -0.000
     In    16      Dxx-yy               1.000     1.000     0.000
     In    16      Dxy                  0.999     0.999     0.000
     In    16      S                    0.706     0.706     0.000
     In    16      Px                   0.234     0.234     0.000
     In    16      Py                   0.244     0.244    -0.000
     In    16      Pz                   0.239     0.239    -0.000
     In    16      S                   -0.237    -0.237     0.000
     In    17      Dzz                  1.000     1.000    -0.000
     In    17      Dzy                  0.999     0.999    -0.000
     In    17      Dzx                  0.999     0.999    -0.000
     In    17      Dxx-yy               1.000     1.000     0.000
     In    17      Dxy                  0.998     0.998    -0.000
     In    17      S                    0.717     0.717     0.000
     In    17      Px                   0.238     0.238     0.000
     In    17      Py                   0.239     0.239     0.000
     In    17      Pz                   0.236     0.236     0.000
     In    17      S                   -0.250    -0.250     0.000
     In    18      Dzz                  1.000     1.000     0.000
     In    18      Dzy                  0.998     0.998     0.000
     In    18      Dzx                  0.999     0.999    -0.000
     In    18      Dxx-yy               1.000     1.000     0.000
     In    18      Dxy                  0.999     0.999     0.000
     In    18      S                    0.712     0.712    -0.000
     In    18      Px                   0.239     0.239    -0.000
     In    18      Py                   0.240     0.240     0.000
     In    18      Pz                   0.241     0.241     0.000
     In    18      S                   -0.256    -0.256    -0.000
     In    19      Dzz                  1.000     1.000    -0.000
     In    19      Dzy                  0.998     0.998     0.000
     In    19      Dzx                  0.999     0.999    -0.000
     In    19      Dxx-yy               1.000     1.000     0.000
     In    19      Dxy                  0.999     0.999    -0.000
     In    19      S                    0.719     0.719     0.000
     In    19      Px                   0.234     0.234     0.000
     In    19      Py                   0.244     0.244     0.000
     In    19      Pz                   0.251     0.251     0.000
     In    19      S                   -0.230    -0.230    -0.000
     In    20      Dzz                  1.000     1.000     0.000
     In    20      Dzy                  0.998     0.998    -0.000
     In    20      Dzx                  0.999     0.999     0.000
     In    20      Dxx-yy               1.000     1.000    -0.000
     In    20      Dxy                  0.998     0.998    -0.000
     In    20      S                    0.711     0.711     0.000
     In    20      Px                   0.237     0.237    -0.000
     In    20      Py                   0.245     0.245     0.000
     In    20      Pz                   0.239     0.239     0.000
     In    20      S                   -0.256    -0.256    -0.000
     In    21      Dzz                  1.000     1.000     0.000
     In    21      Dzy                  0.999     0.999     0.000
     In    21      Dzx                  0.998     0.998    -0.000
     In    21      Dxx-yy               1.000     1.000     0.000
     In    21      Dxy                  0.999     0.999     0.000
     In    21      S                    0.706     0.706    -0.000
     In    21      Px                   0.243     0.243     0.000
     In    21      Py                   0.241     0.241    -0.000
     In    21      Pz                   0.243     0.243     0.000
     In    21      S                   -0.247    -0.247     0.000
     In    22      Dzz                  1.000     1.000    -0.000
     In    22      Dzy                  0.999     0.999    -0.000
     In    22      Dzx                  0.998     0.998    -0.000
     In    22      Dxx-yy               1.000     1.000    -0.000
     In    22      Dxy                  0.999     0.999    -0.000
     In    22      S                    0.706     0.706     0.000
     In    22      Px                   0.241     0.241     0.000
     In    22      Py                   0.239     0.239     0.000
     In    22      Pz                   0.241     0.241     0.000
     In    22      S                   -0.250    -0.250    -0.000
     In    23      Dzz                  1.000     1.000    -0.000
     In    23      Dzy                  0.998     0.998    -0.000
     In    23      Dzx                  0.999     0.999    -0.000
     In    23      Dxx-yy               1.000     1.000     0.000
     In    23      Dxy                  0.998     0.998     0.000
     In    23      S                    0.708     0.708    -0.000
     In    23      Px                   0.240     0.240     0.000
     In    23      Py                   0.243     0.243    -0.000
     In    23      Pz                   0.239     0.239    -0.000
     In    23      S                   -0.251    -0.251     0.000
     In    24      Dzz                  1.000     1.000     0.000
     In    24      Dzy                  0.998     0.998     0.000
     In    24      Dzx                  0.999     0.999    -0.000
     In    24      Dxx-yy               1.000     1.000     0.000
     In    24      Dxy                  0.998     0.998    -0.000
     In    24      S                    0.708     0.708    -0.000
     In    24      Px                   0.239     0.239    -0.000
     In    24      Py                   0.243     0.243    -0.000
     In    24      Pz                   0.240     0.240     0.000
     In    24      S                   -0.251    -0.251     0.000
     In    25      Dzz                  1.000     1.000     0.000
     In    25      Dzy                  0.999     0.999    -0.000
     In    25      Dzx                  0.998     0.998    -0.000
     In    25      Dxx-yy               1.000     1.000     0.000
     In    25      Dxy                  0.999     0.999    -0.000
     In    25      S                    0.709     0.709     0.000
     In    25      Px                   0.241     0.241    -0.000
     In    25      Py                   0.237     0.237    -0.000
     In    25      Pz                   0.241     0.241    -0.000
     In    25      S                   -0.251    -0.251     0.000
     In    26      Dzz                  1.000     1.000     0.000
     In    26      Dzy                  0.998     0.998    -0.000
     In    26      Dzx                  0.998     0.998    -0.000
     In    26      Dxx-yy               1.000     1.000     0.000
     In    26      Dxy                  0.999     0.999    -0.000
     In    26      S                    0.706     0.706     0.000
     In    26      Px                   0.239     0.239    -0.000
     In    26      Py                   0.239     0.239    -0.000
     In    26      Pz                   0.243     0.243    -0.000
     In    26      S                   -0.241    -0.241     0.000
     In    27      Dzz                  1.000     1.000     0.000
     In    27      Dzy                  0.999     0.999     0.000
     In    27      Dzx                  0.999     0.999    -0.000
     In    27      Dxx-yy               1.000     1.000     0.000
     In    27      Dxy                  0.999     0.999     0.000
     In    27      S                    0.706     0.706     0.000
     In    27      Px                   0.239     0.239    -0.000
     In    27      Py                   0.244     0.244    -0.000
     In    27      Pz                   0.234     0.234    -0.000
     In    27      S                   -0.237    -0.237    -0.000
     In    28      Dzz                  1.000     1.000     0.000
     In    28      Dzy                  0.999     0.999     0.000
     In    28      Dzx                  0.998     0.998    -0.000
     In    28      Dxx-yy               1.000     1.000     0.000
     In    28      Dxy                  0.998     0.998    -0.000
     In    28      S                    0.708     0.708     0.000
     In    28      Px                   0.241     0.241     0.000
     In    28      Py                   0.239     0.239     0.000
     In    28      Pz                   0.241     0.241    -0.000
     In    28      S                   -0.257    -0.257     0.000
     In    29      Dzz                  1.000     1.000    -0.000
     In    29      Dzy                  0.999     0.999     0.000
     In    29      Dzx                  0.999     0.999     0.000
     In    29      Dxx-yy               1.000     1.000    -0.000
     In    29      Dxy                  0.999     0.999     0.000
     In    29      S                    0.726     0.726     0.000
     In    29      Px                   0.242     0.242    -0.000
     In    29      Py                   0.249     0.249    -0.000
     In    29      Pz                   0.242     0.242    -0.000
     In    29      S                   -0.232    -0.232    -0.000
     In    30      Dzz                  1.000     1.000     0.000
     In    30      Dzy                  0.999     0.999    -0.000
     In    30      Dzx                  0.999     0.999     0.000
     In    30      Dxx-yy               1.000     1.000     0.000
     In    30      Dxy                  0.999     0.999     0.000
     In    30      S                    0.711     0.711    -0.000
     In    30      Px                   0.240     0.240    -0.000
     In    30      Py                   0.240     0.240    -0.000
     In    30      Pz                   0.240     0.240    -0.000
     In    30      S                   -0.244    -0.244    -0.000
     In    31      Dzz                  1.000     1.000    -0.000
     In    31      Dzy                  0.999     0.999     0.000
     In    31      Dzx                  0.998     0.998    -0.000
     In    31      Dxx-yy               1.000     1.000     0.000
     In    31      Dxy                  0.999     0.999     0.000
     In    31      S                    0.710     0.710     0.000
     In    31      Px                   0.241     0.241    -0.000
     In    31      Py                   0.238     0.238     0.000
     In    31      Pz                   0.242     0.242    -0.000
     In    31      S                   -0.253    -0.253    -0.000
     In    32      Dzz                  1.000     1.000     0.000
     In    32      Dzy                  0.999     0.999    -0.000
     In    32      Dzx                  0.998     0.998    -0.000
     In    32      Dxx-yy               1.000     1.000     0.000
     In    32      Dxy                  0.999     0.999     0.000
     In    32      S                    0.710     0.710     0.000
     In    32      Px                   0.242     0.242     0.000
     In    32      Py                   0.238     0.238     0.000
     In    32      Pz                   0.241     0.241     0.000
     In    32      S                   -0.253    -0.253    -0.000
  ---------------------------------------------------------------
                           Total:     285.500   285.500     0.000
  ---------------------------------------------------------------

     Atomic Populations (Mulliken)
     -----------------------------
Species          Ion Spin      s       p       d       f      Total   Charge(e)   Spin(hbar/2)
==============================================================================================
  P               1   up:     0.877   1.943   0.000   0.000   2.820    -0.639       -0.000
                  1   dn:     0.877   1.943   0.000   0.000   2.820
  P               2   up:     0.877   1.943   0.000   0.000   2.820    -0.639       -0.000
                  2   dn:     0.877   1.943   0.000   0.000   2.820
  P               3   up:     0.873   1.956   0.000   0.000   2.828    -0.657       -0.000
                  3   dn:     0.873   1.956   0.000   0.000   2.828
  P               4   up:     0.869   1.966   0.000   0.000   2.835    -0.670        0.000
                  4   dn:     0.869   1.966   0.000   0.000   2.835
  P               5   up:     0.872   1.956   0.000   0.000   2.828    -0.656        0.000
                  5   dn:     0.872   1.956   0.000   0.000   2.828
  P               6   up:     0.870   1.959   0.000   0.000   2.829    -0.658        0.000
                  6   dn:     0.870   1.959   0.000   0.000   2.829
  P               7   up:     0.868   1.967   0.000   0.000   2.835    -0.670       -0.000
                  7   dn:     0.868   1.967   0.000   0.000   2.835
  P               8   up:     0.873   1.952   0.000   0.000   2.826    -0.652       -0.000
                  8   dn:     0.873   1.952   0.000   0.000   2.826
  P               9   up:     0.873   1.952   0.000   0.000   2.826    -0.652       -0.000
                  9   dn:     0.873   1.952   0.000   0.000   2.826
  P              10   up:     0.894   1.919   0.000   0.000   2.813    -0.626        0.000
                 10   dn:     0.894   1.919   0.000   0.000   2.813
  P              11   up:     0.877   1.944   0.000   0.000   2.821    -0.642       -0.000
                 11   dn:     0.877   1.944   0.000   0.000   2.821
  P              12   up:     0.869   1.965   0.000   0.000   2.834    -0.668       -0.000
                 12   dn:     0.869   1.965   0.000   0.000   2.834
  P              13   up:     0.874   1.951   0.000   0.000   2.824    -0.649        0.000
                 13   dn:     0.874   1.951   0.000   0.000   2.824
  P              14   up:     0.868   1.968   0.000   0.000   2.836    -0.672        0.000
                 14   dn:     0.868   1.968   0.000   0.000   2.836
  P              15   up:     0.873   1.957   0.000   0.000   2.830    -0.660       -0.000
                 15   dn:     0.873   1.957   0.000   0.000   2.830
  P              16   up:     0.872   1.956   0.000   0.000   2.828    -0.656        0.000
                 16   dn:     0.872   1.956   0.000   0.000   2.828
  P              17   up:     0.869   1.966   0.000   0.000   2.835    -0.670        0.000
                 17   dn:     0.869   1.966   0.000   0.000   2.835
  P              18   up:     0.870   1.959   0.000   0.000   2.829    -0.659        0.000
                 18   dn:     0.870   1.959   0.000   0.000   2.829
  P              19   up:     0.868   1.967   0.000   0.000   2.835    -0.670        0.000
                 19   dn:     0.868   1.967   0.000   0.000   2.835
  P              20   up:     0.868   1.967   0.000   0.000   2.835    -0.670       -0.000
                 20   dn:     0.868   1.967   0.000   0.000   2.835
  P              21   up:     0.868   1.967   0.000   0.000   2.835    -0.670       -0.000
                 21   dn:     0.868   1.967   0.000   0.000   2.835
  P              22   up:     0.873   1.953   0.000   0.000   2.826    -0.652       -0.000
                 22   dn:     0.873   1.953   0.000   0.000   2.826
  P              23   up:     0.872   1.960   0.000   0.000   2.832    -0.664        0.000
                 23   dn:     0.872   1.960   0.000   0.000   2.832
  P              24   up:     0.874   1.951   0.000   0.000   2.824    -0.649        0.000
                 24   dn:     0.874   1.951   0.000   0.000   2.824
  P              25   up:     0.869   1.965   0.000   0.000   2.834    -0.668        0.000
                 25   dn:     0.869   1.965   0.000   0.000   2.834
  P              26   up:     0.868   1.968   0.000   0.000   2.836    -0.672       -0.000
                 26   dn:     0.868   1.968   0.000   0.000   2.836
  P              27   up:     0.873   1.957   0.000   0.000   2.830    -0.660       -0.000
                 27   dn:     0.873   1.957   0.000   0.000   2.830
  P              28   up:     0.868   1.968   0.000   0.000   2.836    -0.672       -0.000
                 28   dn:     0.868   1.968   0.000   0.000   2.836
  P              29   up:     0.868   1.968   0.000   0.000   2.836    -0.672       -0.000
                 29   dn:     0.868   1.968   0.000   0.000   2.836
  P              30   up:     0.868   1.967   0.000   0.000   2.835    -0.669       -0.000
                 30   dn:     0.868   1.967   0.000   0.000   2.835
  P              31   up:     0.869   1.966   0.000   0.000   2.835    -0.670       -0.000
                 31   dn:     0.869   1.966   0.000   0.000   2.835
  In              1   up:     0.462   0.723   4.995   0.000   6.180     0.639        0.000
                  1   dn:     0.462   0.723   4.995   0.000   6.180
  In              2   up:     0.487   0.675   4.994   0.000   6.157     0.687        0.000
                  2   dn:     0.487   0.675   4.994   0.000   6.157
  In              3   up:     0.469   0.718   4.995   0.000   6.181     0.638        0.000
                  3   dn:     0.469   0.718   4.995   0.000   6.181
  In              4   up:     0.469   0.718   4.995   0.000   6.181     0.638        0.000
                  4   dn:     0.469   0.718   4.995   0.000   6.181
  In              5   up:     0.467   0.713   4.995   0.000   6.175     0.649        0.000
                  5   dn:     0.467   0.713   4.995   0.000   6.175
  In              6   up:     0.456   0.720   4.995   0.000   6.170     0.660        0.000
                  6   dn:     0.456   0.720   4.995   0.000   6.170
  In              7   up:     0.454   0.722   4.995   0.000   6.171     0.659        0.000
                  7   dn:     0.454   0.722   4.995   0.000   6.171
  In              8   up:     0.488   0.729   4.995   0.000   6.212     0.575        0.000
                  8   dn:     0.488   0.729   4.995   0.000   6.212
  In              9   up:     0.462   0.719   4.995   0.000   6.175     0.650        0.000
                  9   dn:     0.461   0.719   4.995   0.000   6.175
  In             10   up:     0.496   0.727   4.996   0.000   6.219     0.562       -0.000
                 10   dn:     0.496   0.727   4.996   0.000   6.219
  In             11   up:     0.469   0.723   4.995   0.000   6.187     0.626       -0.000
                 11   dn:     0.469   0.723   4.995   0.000   6.187
  In             12   up:     0.469   0.723   4.995   0.000   6.187     0.626       -0.000
                 12   dn:     0.469   0.723   4.995   0.000   6.187
  In             13   up:     0.458   0.718   4.995   0.000   6.170     0.659        0.000
                 13   dn:     0.458   0.718   4.995   0.000   6.170
  In             14   up:     0.465   0.721   4.994   0.000   6.181     0.638       -0.000
                 14   dn:     0.465   0.721   4.994   0.000   6.181
  In             15   up:     0.451   0.721   4.995   0.000   6.166     0.668        0.000
                 15   dn:     0.451   0.721   4.995   0.000   6.166
  In             16   up:     0.469   0.717   4.995   0.000   6.181     0.638        0.000
                 16   dn:     0.469   0.717   4.995   0.000   6.181
  In             17   up:     0.467   0.713   4.995   0.000   6.175     0.649        0.000
                 17   dn:     0.467   0.713   4.995   0.000   6.175
  In             18   up:     0.456   0.720   4.995   0.000   6.170     0.660        0.000
                 18   dn:     0.456   0.720   4.995   0.000   6.170
  In             19   up:     0.488   0.729   4.995   0.000   6.212     0.575        0.000
                 19   dn:     0.488   0.729   4.995   0.000   6.212
  In             20   up:     0.454   0.722   4.995   0.000   6.171     0.659        0.000
                 20   dn:     0.454   0.722   4.995   0.000   6.171
  In             21   up:     0.459   0.728   4.994   0.000   6.182     0.637       -0.000
                 21   dn:     0.459   0.728   4.994   0.000   6.182
  In             22   up:     0.456   0.721   4.995   0.000   6.172     0.656        0.000
                 22   dn:     0.456   0.721   4.995   0.000   6.172
  In             23   up:     0.457   0.722   4.995   0.000   6.174     0.653        0.000
                 23   dn:     0.457   0.722   4.995   0.000   6.174
  In             24   up:     0.457   0.722   4.995   0.000   6.174     0.653        0.000
                 24   dn:     0.457   0.722   4.995   0.000   6.174
  In             25   up:     0.458   0.718   4.995   0.000   6.170     0.659        0.000
                 25   dn:     0.458   0.718   4.995   0.000   6.170
  In             26   up:     0.465   0.721   4.994   0.000   6.181     0.638        0.000
                 26   dn:     0.465   0.721   4.994   0.000   6.181
  In             27   up:     0.469   0.717   4.995   0.000   6.181     0.638        0.000
                 27   dn:     0.469   0.717   4.995   0.000   6.181
  In             28   up:     0.451   0.721   4.995   0.000   6.166     0.668        0.000
                 28   dn:     0.451   0.721   4.995   0.000   6.166
  In             29   up:     0.494   0.734   4.996   0.000   6.224     0.552       -0.000
                 29   dn:     0.494   0.734   4.996   0.000   6.224
  In             30   up:     0.467   0.720   4.995   0.000   6.182     0.637       -0.000
                 30   dn:     0.467   0.720   4.995   0.000   6.182
  In             31   up:     0.457   0.721   4.995   0.000   6.172     0.655       -0.000
                 31   dn:     0.457   0.721   4.995   0.000   6.172
  In             32   up:     0.457   0.721   4.995   0.000   6.172     0.655       -0.000
                 32   dn:     0.457   0.721   4.995   0.000   6.172
==============================================================================================

                 Bond                   Population        Spin       Length (A)
================================================================================
              P 2  -- In 2                   0.76         0.00          2.47725
              P 1  -- In 2                   0.76         0.00          2.47774
              P 6  -- In 8                   0.73        -0.00          2.51421
              P 18 -- In 19                  0.73        -0.00          2.51423
              P 11 -- In 21                  0.67        -0.00          2.52750
              P 10 -- In 1                   0.76         0.00          2.53522
              P 14 -- In 5                   0.68         0.00          2.53864
              P 26 -- In 17                  0.68         0.00          2.53864
              P 17 -- In 3                   0.68         0.00          2.54372
              P 4  -- In 4                   0.68         0.00          2.54373
              P 30 -- In 21                  0.67         0.00          2.54696
              P 19 -- In 3                   0.66         0.00          2.54706
              P 7  -- In 4                   0.66         0.00          2.54707
              P 15 -- In 17                  0.66         0.00          2.54708
              P 27 -- In 5                   0.66         0.00          2.54709
              P 20 -- In 22                  0.65         0.00          2.54754
              P 21 -- In 22                  0.65         0.00          2.54758
              P 10 -- In 11                  0.75         0.00          2.54791
              P 10 -- In 12                  0.75        -0.00          2.54793
              P 20 -- In 23                  0.67        -0.00          2.54865
              P 21 -- In 24                  0.67        -0.00          2.54865
              P 23 -- In 20                  0.65        -0.00          2.54932
              P 23 -- In 7                   0.65        -0.00          2.54932
              P 25 -- In 26                  0.65         0.00          2.54932
              P 12 -- In 14                  0.65        -0.00          2.54932
              P 20 -- In 20                  0.67        -0.00          2.55000
              P 21 -- In 7                   0.67         0.00          2.55000
              P 5  -- In 8                   0.70        -0.00          2.55049
              P 16 -- In 19                  0.70        -0.00          2.55051
              P 29 -- In 32                  0.67         0.00          2.55086
              P 28 -- In 31                  0.67         0.00          2.55087
              P 13 -- In 14                  0.66         0.00          2.55238
              P 24 -- In 26                  0.66         0.00          2.55238
              P 31 -- In 15                  0.66        -0.00          2.55252
              P 31 -- In 28                  0.66        -0.00          2.55253
              P 22 -- In 24                  0.65        -0.00          2.55268
              P 22 -- In 23                  0.65        -0.00          2.55269
              P 17 -- In 18                  0.66        -0.00          2.55271
              P 4  -- In 6                   0.66        -0.00          2.55272
              P 4  -- In 7                   0.66        -0.00          2.55274
              P 17 -- In 20                  0.66        -0.00          2.55275
              P 25 -- In 9                   0.66         0.00          2.55324
              P 12 -- In 9                   0.66         0.00          2.55324
              P 8  -- In 13                  0.68         0.00          2.55336
              P 9  -- In 25                  0.68         0.00          2.55337
              P 3  -- In 3                   0.65         0.00          2.55358
              P 3  -- In 4                   0.65         0.00          2.55359
              P 18 -- In 26                  0.62        -0.00          2.55388
              P 6  -- In 14                  0.62        -0.00          2.55391
              P 16 -- In 24                  0.63         0.00          2.55494
              P 5  -- In 23                  0.63         0.00          2.55495
              P 30 -- In 32                  0.66        -0.00          2.55561
              P 30 -- In 31                  0.66        -0.00          2.55562
              P 29 -- In 13                  0.65         0.00          2.55624
              P 28 -- In 25                  0.65         0.00          2.55625
              P 26 -- In 27                  0.64        -0.00          2.55772
              P 14 -- In 16                  0.64        -0.00          2.55773
              P 12 -- In 15                  0.65        -0.00          2.55812
              P 25 -- In 28                  0.65        -0.00          2.55812
              P 28 -- In 28                  0.65        -0.00          2.55840
              P 29 -- In 15                  0.65        -0.00          2.55840
              P 7  -- In 14                  0.65        -0.00          2.55875
              P 19 -- In 26                  0.65         0.00          2.55878
              P 28 -- In 30                  0.65        -0.00          2.55945
              P 29 -- In 30                  0.65        -0.00          2.55945
              P 26 -- In 18                  0.65        -0.00          2.56082
              P 14 -- In 6                   0.65        -0.00          2.56082
              P 9  -- In 27                  0.66         0.00          2.56105
              P 8  -- In 16                  0.66        -0.00          2.56106
              P 6  -- In 13                  0.63         0.00          2.56180
              P 18 -- In 25                  0.63         0.00          2.56180
              P 19 -- In 24                  0.66         0.00          2.56196
              P 7  -- In 23                  0.66         0.00          2.56196
              P 27 -- In 18                  0.64         0.00          2.56366
              P 15 -- In 6                   0.64         0.00          2.56366
              P 7  -- In 25                  0.65        -0.00          2.56471
              P 19 -- In 13                  0.65        -0.00          2.56471
              P 26 -- In 28                  0.64         0.00          2.56669
              P 14 -- In 15                  0.64         0.00          2.56669
              P 21 -- In 5                   0.63        -0.00          2.56750
              P 20 -- In 17                  0.63        -0.00          2.56751
              P 31 -- In 22                  0.65        -0.00          2.56760
              P 30 -- In 22                  0.64         0.00          2.56832
              P 6  -- In 7                   0.61         0.00          2.56834
              P 18 -- In 20                  0.61         0.00          2.56834
              P 16 -- In 18                  0.60         0.00          2.56864
              P 5  -- In 6                   0.60        -0.00          2.56865
              P 23 -- In 9                   0.61        -0.00          2.56954
              P 23 -- In 30                  0.61         0.00          2.56969
              P 22 -- In 30                  0.62         0.00          2.57015
              P 24 -- In 32                  0.63         0.00          2.57100
              P 13 -- In 31                  0.63         0.00          2.57100
              P 25 -- In 11                  0.64         0.00          2.57273
              P 12 -- In 12                  0.64         0.00          2.57273
              P 31 -- In 1                   0.63         0.00          2.57359
              P 1  -- In 3                   0.58        -0.00          2.57485
              P 2  -- In 4                   0.58        -0.00          2.57489
              P 15 -- In 31                  0.63        -0.00          2.57591
              P 3  -- In 9                   0.61        -0.00          2.57592
              P 27 -- In 32                  0.63         0.00          2.57592
              P 13 -- In 16                  0.63        -0.00          2.57644
              P 24 -- In 27                  0.63        -0.00          2.57645
              P 5  -- In 21                  0.62        -0.00          2.58073
              P 16 -- In 21                  0.62        -0.00          2.58073
              P 2  -- In 19                  0.58        -0.00          2.58497
              P 1  -- In 8                   0.58         0.00          2.58504
              P 4  -- In 1                   0.60         0.00          2.58579
              P 17 -- In 1                   0.60         0.00          2.58580
              P 9  -- In 12                  0.62        -0.00          2.58657
              P 8  -- In 11                  0.62        -0.00          2.58658
              P 11 -- In 16                  0.65        -0.00          2.58893
              P 11 -- In 27                  0.65        -0.00          2.58894
              P 15 -- In 12                  0.59        -0.00          2.59471
              P 27 -- In 11                  0.59         0.00          2.59471
              P 1  -- In 5                   0.56        -0.00          2.60214
              P 2  -- In 17                  0.56        -0.00          2.60225
              P 13 -- In 29                  0.62        -0.00          2.60824
              P 24 -- In 29                  0.62        -0.00          2.60824
              P 9  -- In 10                  0.59        -0.00          2.61320
              P 8  -- In 10                  0.59         0.00          2.61320
              P 3  -- In 10                  0.61         0.00          2.61522
              P 22 -- In 29                  0.61        -0.00          2.61772
              P 11 -- In 2                   0.58         0.00          2.66688
================================================================================

 Hirshfeld supercell size:           2           2           2
Standard grid dimensions: 240 240 240
Fine grid dimensions:     240 240 240


     Hirshfeld Analysis
     ------------------
Species   Ion     Hirshfeld Charge (e)  Spin (hbar/2)
===================================================
  P        1                -0.22        0.00
  P        2                -0.22        0.00
  P        3                -0.24       -0.00
  P        4                -0.24        0.00
  P        5                -0.23        0.00
  P        6                -0.23        0.00
  P        7                -0.24       -0.00
  P        8                -0.24       -0.00
  P        9                -0.24       -0.00
  P       10                -0.26        0.00
  P       11                -0.24       -0.00
  P       12                -0.24       -0.00
  P       13                -0.24       -0.00
  P       14                -0.24        0.00
  P       15                -0.23        0.00
  P       16                -0.23        0.00
  P       17                -0.24        0.00
  P       18                -0.23        0.00
  P       19                -0.24       -0.00
  P       20                -0.24        0.00
  P       21                -0.24        0.00
  P       22                -0.24       -0.00
  P       23                -0.23        0.00
  P       24                -0.24       -0.00
  P       25                -0.24       -0.00
  P       26                -0.24        0.00
  P       27                -0.23        0.00
  P       28                -0.24       -0.00
  P       29                -0.24       -0.00
  P       30                -0.24        0.00
  P       31                -0.24        0.00
  In       1                 0.23        0.00
  In       2                 0.27        0.00
  In       3                 0.23       -0.00
  In       4                 0.23       -0.00
  In       5                 0.24        0.00
  In       6                 0.24        0.00
  In       7                 0.24        0.00
  In       8                 0.20        0.00
  In       9                 0.24       -0.00
  In      10                 0.16       -0.00
  In      11                 0.23       -0.00
  In      12                 0.23       -0.00
  In      13                 0.24       -0.00
  In      14                 0.23       -0.00
  In      15                 0.24        0.00
  In      16                 0.24       -0.00
  In      17                 0.24        0.00
  In      18                 0.24        0.00
  In      19                 0.20        0.00
  In      20                 0.24        0.00
  In      21                 0.22        0.00
  In      22                 0.24        0.00
  In      23                 0.23        0.00
  In      24                 0.23        0.00
  In      25                 0.24       -0.00
  In      26                 0.23       -0.00
  In      27                 0.24       -0.00
  In      28                 0.24        0.00
  In      29                 0.17       -0.00
  In      30                 0.24       -0.00
  In      31                 0.24       -0.00
  In      32                 0.24       -0.00
===================================================

 
 A BibTeX formatted list of references used in this run has been written to 
 P_Vacancy_Migration_5->3_Singlepoints_2.bib
 
Initialisation time =     30.14 s
Calculation time    =   9226.02 s
Finalisation time   =    159.26 s
Total time          =   9415.41 s
Peak Memory Use     = 9618164 kB
 
Overall parallel efficiency rating: Terrible (34%)
 
Data was distributed by:-
G-vector (3-way); efficiency rating: Poor (37%)
k-point (36-way); efficiency rating: Very good (81%)
