 +-------------------------------------------------+
 |                                                 |
 |      CCC   AA    SSS  TTTTT  EEEEE  PPPP        |
 |     C     A  A  S       T    E      P   P       |
 |     C     AAAA   SS     T    EEE    PPPP        |
 |     C     A  A     S    T    E      P           |
 |      CCC  A  A  SSS     T    EEEEE  P           |
 |                                                 |
 +-------------------------------------------------+
 |                                                 |
 | Welcome to Academic Release CASTEP version 24.1 |
 | Ab Initio Total Energy Program                  |
 |                                                 |
 | Authors:                                        |
 | M. Segall, M. Probert, C. Pickard, P. Hasnip,   |
 | S. Clark, K. Refson, J. R. Yates,               |
 | A. Bartok-Partay, M. Payne                      |
 |                                                 |
 | Contributors:                                   |
 | P. Lindan, P. Haynes, J. White, V. Milman,      |
 | N. Govind, M. Gibson, P. Tulip, V. Cocula,      |
 | B. Montanari, D. Quigley, M. Glover,            |
 | L. Bernasconi, A. Perlov, M. Plummer,           |
 | E. McNellis, J. Meyer, J. Gale, D. Jochym       |
 | J. Aarons, B. Walker, R. Gillen, D. Jones       |
 | T. Green, I. J. Bush, C. J. Armstrong,          |
 | E. J. Higgins, E. L. Brown, M. S. McFly,        |
 | J. Wilkins, B-C. Shih, P. J. P. Byrne,          |
 | R. J. Maurer, J. C. Womack, J. Dziedzic,        |
 | L. LeBlanc, T. K. Stenczel, J. Kermode,         |
 | S. Sturniolo, B. Shi, B. Durham, M. Evans,      |
 | M. J. Smith, A. Tamerus, Z. Hawkhead,           |
 | V. Ravindran, T. Hollins, S. A. Joyce,          |
 | R. T. Strong, A. M. Reilly, S. J. Donaldson     |
 |                                                 |
 | Copyright (c) 2000 - 2023                       |
 |                                                 |
 |     Distributed under license from Cambridge    |
 |     Enterprise for academic use only.           |
 |                                                 |
 | Please cite                                     |
 |                                                 |
 |     "First principles methods using CASTEP"     |
 |                                                 |
 |         Zeitschrift fuer Kristallographie       |
 |           220(5-6) pp. 567-570 (2005)           |
 |                                                 |
 | S. J. Clark, M. D. Segall, C. J. Pickard,       |
 | P. J. Hasnip, M. J. Probert, K. Refson,         |
 | M. C. Payne                                     |
 |                                                 |
 |       in all publications arising from          |
 |              your use of CASTEP                 |
 |                                                 |
 +-------------------------------------------------+
 |                                                 |
 |              http://www.castep.org              |
 |                                                 |
 +-------------------------------------------------+



 Compiled for  GNU 11.2.0 on 04-04-2024 18:39:17
 from code version 6355fd106 Castep241_branch Thu Mar 7 17:56:19 2024 +0000
 Compiler: GNU Fortran 11.2.0; Optimisation: FAST
 Comms   : MPI VERSION : CRAY MPICH version 8.1.23.14 (ANL base 3.4a2)
 MATHLIBS: default (LAPACK version 3.10.1)
 FFT Lib : fftw3 version commercial-fftw-3.3.10-sse2-avx-avx2-avx2_128
 Fundamental constants values: CODATA 2018

 Run started: Wed, 30 Jul 2025 16:57:18 +0100

 Atomic calculation performed for P: 1s2 2s2 2p6 3s2 3p3

 Converged in 47 iterations to an ae energy of -9309.074 eV

   ============================================================                
   | Pseudopotential Report - Date of generation 30-07-2025   |                
   ------------------------------------------------------------                
   | Element: P Ionic charge:  5.00 Level of theory: RSCAN    |                
   | Atomic Solver: Koelling-Harmon                           |                
   |                                                          |                
   |               Reference Electronic Structure             |                
   |         Orbital         Occupation         Energy        |                
   |            3s              2.000           -0.535        |                
   |            3p              3.000           -0.209        |                
   |                                                          |                
   |                 Pseudopotential Definition               |                
   |        Beta     l      e      Rc     scheme   norm       |                
   |          1      0   -0.535   1.807     qc      0         |                
   |          2      0    0.250   1.807     qc      0         |                
   |          3      1   -0.209   1.807     qc      0         |                
   |          4      1    0.250   1.807     qc      0         |                
   |          5      2    0.000   1.807     qc      0         |                
   |          6      2    0.250   1.807     qc      0         |                
   |         loc     3    0.000   1.807     pn      0         |                
   |                                                          |                
   | Augmentation charge Rinner = 1.263                       |                
   | Partial core correction Rc = 1.263                       |                
   ------------------------------------------------------------                
   | "3|1.8|4|4|5|30:31:32"                                   |                
   ------------------------------------------------------------                
   |      Author: Chris J. Pickard, Cambridge University      |                
   ============================================================                
 Warning: otfg_output_psp cannot write out meta-GGA pseudopotentials presently.

 Atomic calculation performed for In:
 1s2 2s2 2p6 3s2 3p6 3d10 4s2 4p6 4d10 5s2 5p1

 Converged in 84 iterations to an ae energy of -160093.328 eV

   ============================================================                
   | Pseudopotential Report - Date of generation 30-07-2025   |                
   ------------------------------------------------------------                
   | Element: In Ionic charge: 13.00 Level of theory: RSCAN   |                
   | Atomic Solver: Koelling-Harmon                           |                
   |                                                          |                
   |               Reference Electronic Structure             |                
   |         Orbital         Occupation         Energy        |                
   |            4d             10.000           -0.711        |                
   |            5s              2.000           -0.313        |                
   |            5p              1.000           -0.095        |                
   |                                                          |                
   |                 Pseudopotential Definition               |                
   |        Beta     l      e      Rc     scheme   norm       |                
   |          1      0   -0.313   2.501     qc      0         |                
   |          2      0    0.250   2.501     qc      0         |                
   |          3      1   -0.095   2.501     qc      0         |                
   |          4      1    0.250   2.501     qc      0         |                
   |          5      2   -0.711   2.207     qc      0         |                
   |          6      2    0.250   2.207     qc      0         |                
   |         loc     3    0.000   2.501     pn      0         |                
   |                                                          |                
   | Augmentation charge Rinner = 1.504                       |                
   | Partial core correction Rc = 1.504                       |                
   ------------------------------------------------------------                
   | "3|2.5|2.5|1.5|7|8|9|50:51:42U2.2U2.2"                   |                
   ------------------------------------------------------------                
   |      Author: Chris J. Pickard, Cambridge University      |                
   ============================================================                
 Warning: otfg_output_psp cannot write out meta-GGA pseudopotentials presently.

 Pseudo atomic calculation performed for P 3s2 3p3

 Converged in 23 iterations to a total energy of -208.0292 eV

 Pseudo atomic calculation performed for In 4d10 5s2 5p1

 Converged in 42 iterations to a total energy of -1747.4501 eV
 Calculation parallelised over 108 processes.
 Data is distributed by G-vector(3-way) and k-point(36-way)
 Each process may use up to 16 threads.

 ************************************ Title ************************************
 

 ***************************** General Parameters ******************************
  
 output verbosity                               : normal  (1)
 write checkpoint data to                       : P_Vacancy_Migration_5->3_Singlepoints_2.check
 type of calculation                            : single point energy
 stress calculation                             : off
 density difference calculation                 : off
 electron localisation func (ELF) calculation   : off
 Hirshfeld analysis                             : on
 polarisation (Berry phase) analysis            : off
 molecular orbital projected DOS                : off
 deltaSCF calculation                           : off
 unlimited duration calculation
 timing information                             : on
 memory usage estimate                          : on
 write extra output files                       : on
 write final potential to formatted file        : off
 write final density to formatted file          : off
 write BibTeX reference list                    : on
 write OTFG pseudopotential files               : on
 write electrostatic potential file             : on
 write bands file                               : on
 checkpoint writing                             : off
  
 output         length unit                     : A
 output           mass unit                     : amu
 output           time unit                     : ps
 output         charge unit                     : e
 output           spin unit                     : hbar/2
 output         energy unit                     : eV
 output          force unit                     : eV/A
 output       velocity unit                     : A/ps
 output       pressure unit                     : GPa
 output     inv_length unit                     : 1/A
 output      frequency unit                     : cm-1
 output force constant unit                     : eV/A**2
 output         volume unit                     : A**3
 output   IR intensity unit                     : (D/A)**2/amu
 output         dipole unit                     : D
 output         efield unit                     : eV/A/e
 output        entropy unit                     : J/mol/K
 output    efield chi2 unit                     : pm/V
  
 wavefunctions paging                           : none
 random number generator seed                   :  165718641
 data distribution                              : optimal for this architecture
 optimization strategy                          : balance speed and memory

 *********************** Exchange-Correlation Parameters ***********************
  
 using functional                               : RSCAN
 relativistic treatment                         : Koelling-Harmon
 DFT+D: Semi-empirical dispersion correction    : off

 ************************* Pseudopotential Parameters **************************
  
 pseudopotential representation                 : reciprocal space
 <beta|phi> representation                      : reciprocal space
 spin-orbit coupling                            : off

 **************************** Basis Set Parameters *****************************
  
 plane wave basis set cut-off                   :   900.0000   eV
 size of standard grid                          :     2.0000
 size of   fine   gmax                          :    30.7390   1/A
 finite basis set correction                    : none

 **************************** Electronic Parameters ****************************
  
 number of  electrons                           :  571.0    
 net charge of system                           :  0.000    
 net spin   of system                           :  1.000    
 number of  up  spins                           :  286.0    
 number of down spins                           :  285.0    
 treating system as spin-polarized
 number of bands                                :        343

 ********************* Electronic Minimization Parameters **********************
  
 Method: Treating system as metallic with density mixing treatment of electrons,
         and number of  SD  steps               :          1
         and number of  CG  steps               :          4
  
 total energy / atom convergence tol.           : 0.1000E-07   eV
 eigen-energy convergence tolerance             : 0.2203E-08   eV
 max force / atom convergence tol.              : ignored
 convergence tolerance window                   :          3   cycles
 max. number of SCF cycles                      :        100
 number of fixed-spin iterations                :         10
 smearing scheme                                : Gaussian
 smearing width                                 : 0.2000       eV
 Fermi energy convergence tolerance             : 0.2721E-13   eV
 periodic dipole correction                     : NONE

 ************************** Density Mixing Parameters **************************
  
 density-mixing scheme                          : Pulay
 max. length of mixing history                  :         20
 charge density mixing amplitude                : 0.5000    
   spin density mixing amplitude                :  2.000    
 cut-off energy for mixing                      :  900.0       eV

 *********************** Population Analysis Parameters ************************
  
 Population analysis with cutoff                :  3.000       A
 Population analysis output                     : summary and pdos components

 *******************************************************************************
  

                           -------------------------------
                                      Unit Cell
                           -------------------------------
        Real Lattice(A)                      Reciprocal Lattice(1/A)
    11.8016820    -0.0000080    -0.0000080        0.532397442   0.000000361   0.000000361
    -0.0000080    11.8016820    -0.0000080        0.000000361   0.532397442   0.000000361
    -0.0000080    -0.0000080    11.8016820        0.000000361   0.000000361   0.532397442

                       Lattice parameters(A)       Cell Angles
                    a =     11.801682          alpha =   90.000078
                    b =     11.801682          beta  =   90.000078
                    c =     11.801682          gamma =   90.000078

                       Current cell volume =          1643.734705       A**3
                                   density =             2.819410   AMU/A**3
                                           =             4.681741     g/cm^3

                           -------------------------------
                                     Cell Contents
                           -------------------------------
                         Total number of ions in cell =   63
                      Total number of species in cell =    2
                        Max number of any one species =   32

            xxxxxxxxxxxxxxxxxxxxxxxxxxxxxxxxxxxxxxxxxxxxxxxxxxxxxxxxxxxx
            x  Element    Atom        Fractional coordinates of atoms  x
            x            Number           u          v          w      x
            x----------------------------------------------------------x
            x  P            1         0.112058   0.148607   0.392091   x 
            x  P            2         0.392084   0.148605   0.112072   x 
            x  P            3         0.126023   0.373370   0.126023   x 
            x  P            4         0.124926   0.122877   0.875033   x 
            x  P            5         0.377969   0.122922   0.629542   x 
            x  P            6         0.122120   0.387308   0.635289   x 
            x  P            7         0.375451   0.383681   0.869731   x 
            x  P            8         0.134036   0.619803   0.371824   x 
            x  P            9         0.371824   0.619803   0.134036   x 
            x  P           10         0.141474   0.894453   0.141475   x 
            x  P           11         0.364369   0.898912   0.364370   x 
            x  P           12         0.123903   0.630886   0.880755   x 
            x  P           13         0.376599   0.630485   0.614983   x 
            x  P           14         0.126897   0.872812   0.625350   x 
            x  P           15         0.372877   0.867559   0.878588   x 
            x  P           16         0.629543   0.122921   0.377969   x 
            x  P           17         0.875034   0.122876   0.124927   x 
            x  P           18         0.635290   0.387309   0.122120   x 
            x  P           19         0.869732   0.383680   0.375452   x 
            x  P           20         0.623494   0.125224   0.878537   x 
            x  P           21         0.878539   0.125224   0.623493   x 
            x  P           22         0.620638   0.374398   0.620638   x 
            x  P           23         0.874203   0.374637   0.874203   x 
            x  P           24         0.614983   0.630485   0.376599   x 
            x  P           25         0.880755   0.630886   0.123903   x 
            x  P           26         0.625350   0.872812   0.126897   x 
            x  P           27         0.878588   0.867560   0.372877   x 
            x  P           28         0.625904   0.625387   0.874099   x 
            x  P           29         0.874099   0.625387   0.625903   x 
            x  P           30         0.627031   0.877765   0.627031   x 
            x  P           31         0.875555   0.878913   0.875555   x 
            x  In           1         0.006746  -0.006353   0.006746   x 
            x  In           2         0.279354   0.090310   0.279335   x 
            x  In           3        -0.010112   0.257668   0.247950   x 
            x  In           4         0.247951   0.257668  -0.010112   x 
            x  In           5        -0.000446  -0.007107   0.500308   x 
            x  In           6         0.251209  -0.003538   0.753111   x 
            x  In           7         0.000335   0.249434   0.751612   x 
            x  In           8         0.248866   0.258833   0.522490   x 
            x  In           9         0.000199   0.499616   0.000199   x 
            x  In          10         0.264633   0.476618   0.264633   x 
            x  In          11         0.015307   0.752788   0.244522   x 
            x  In          12         0.244522   0.752788   0.015307   x 
            x  In          13         0.001422   0.505051   0.498524   x 
            x  In          14         0.252400   0.516282   0.750244   x 
            x  In          15        -0.001789   0.751116   0.751476   x 
            x  In          16         0.251782   0.758664   0.489922   x 
            x  In          17         0.500308  -0.007108  -0.000447   x 
            x  In          18         0.753110  -0.003538   0.251208   x 
            x  In          19         0.522488   0.258831   0.248865   x 
            x  In          20         0.751612   0.249434   0.000335   x 
            x  In          21         0.499370  -0.004094   0.499370   x 
            x  In          22         0.750996   0.006598   0.750997   x 
            x  In          23         0.501464   0.251285   0.752606   x 
            x  In          24         0.752606   0.251285   0.501464   x 
            x  In          25         0.498524   0.505051   0.001421   x 
            x  In          26         0.750244   0.516282   0.252399   x 
            x  In          27         0.489922   0.758664   0.251782   x 
            x  In          28         0.751476   0.751116  -0.001789   x 
            x  In          29         0.485939   0.488445   0.485939   x 
            x  In          30         0.747378   0.498061   0.747378   x 
            x  In          31         0.501575   0.749286   0.748019   x 
            x  In          32         0.748018   0.749286   0.501575   x 
            xxxxxxxxxxxxxxxxxxxxxxxxxxxxxxxxxxxxxxxxxxxxxxxxxxxxxxxxxxxx


                         No user defined ionic velocities

                           -------------------------------
                                   Details of Species
                           -------------------------------

                               Mass of species in AMU
                                    P   30.9737600
                                    In  114.8180000

                          Electric Quadrupole Moment (Barn)
                                    P    1.0000000 No Isotope Defined
                                    In    0.7700000 Isotope115

                          Files used for pseudopotentials:
                                    P 3|1.8|4|4|5|30:31:32
                                    In 3|2.5|2.5|1.5|7|8|9|50:51:42U2.2U2.2

                           -------------------------------
                              k-Points For BZ Sampling
                           -------------------------------
                       MP grid size for SCF calculation is  4  4  4
                            with an offset of   0.125  0.125  0.125
                       Number of kpoints used =            36

                           -------------------------------
                               Symmetry and Constraints
                           -------------------------------

                      Maximum deviation from symmetry =  0.00000         ANG

                      Number of symmetry operations   =           1
                      Number of ionic constraints     =           3
                      Point group of crystal =     1: C1, 1, 1
                      Space group of crystal =     8: Cm, C -2y

             Set iprint > 1 for details on symmetry rotations/translations

                         Centre of mass is constrained
             Set iprint > 1 for details of linear ionic constraints

                         Number of cell constraints= 0
                         Cell constraints are:  1 2 3 4 5 6

                         External pressure/stress (GPa)
                          0.00000   0.00000   0.00000
                                    0.00000   0.00000
                                              0.00000
 
+---------------- MEMORY AND SCRATCH DISK ESTIMATES PER PROCESS --------------+
|                                                     Memory          Disk    |
| Baseline code, static data and system overhead      368.0 MB         0.0 MB |
| BLAS internal memory storage                          0.0 MB         0.0 MB |
| Model and support data                             4302.1 MB         0.0 MB |
| Electronic energy minimisation requirements        1320.9 MB         0.0 MB |
| Force calculation requirements                      127.4 MB         0.0 MB |
|                                               ----------------------------- |
| Approx. total storage required per process         5991.0 MB         0.0 MB |
|                                                                             |
| Requirements will fluctuate during execution and may exceed these estimates |
+-----------------------------------------------------------------------------+
Calculating approximate eigenstates for fixed initial Hamiltonian
Cut-off for approx. calculation is   89.988 eV
Improving approx. states at cut-off of  450.000 eV
Resetting cut-off to  900.000 eV
Calculating total energy with cut-off of  900.000 eV.
------------------------------------------------------------------------ <-- SCF
SCF loop      Energy           Fermi           Energy gain       Timer   <-- SCF
                               energy          per atom          (sec)   <-- SCF
------------------------------------------------------------------------ <-- SCF
Initial  -6.28289466E+004  0.00000000E+000                       430.44  <-- SCF
      1  -6.25847047E+004  3.11785911E+000  -3.87685496E+000     871.61  <-- SCF
      2  -6.25849669E+004  3.11742792E+000   4.16211913E-003    1200.12  <-- SCF
      3  -6.26521976E+004  3.19154454E+000   1.06715386E+000    1552.46  <-- SCF
      4  -6.26645358E+004  3.23220342E+000   1.95843791E-001    2037.14  <-- SCF
      5  -6.26718198E+004  3.32787577E+000   1.15618976E-001    2383.04  <-- SCF
      6  -6.26609140E+004  3.50193033E+000  -1.73107006E-001    2733.27  <-- SCF
      7  -6.26596422E+004  3.54889455E+000  -2.01875967E-002    3079.17  <-- SCF
      8  -6.26595310E+004  3.56788512E+000  -1.76496035E-003    3452.91  <-- SCF
      9  -6.26603215E+004  3.57202897E+000   1.25473111E-002    3819.87  <-- SCF
     10  -6.26607431E+004  3.80962453E+000   6.69190262E-003    4180.57  <-- SCF
     11  -6.26608242E+004  3.81428310E+000   1.28810324E-003    4531.88  <-- SCF
     12  -6.26608499E+004  3.81510543E+000   4.07174255E-004    4894.48  <-- SCF
     13  -6.26608608E+004  3.81534951E+000   1.73836586E-004    5250.01  <-- SCF
     14  -6.26608652E+004  3.81571952E+000   6.89936744E-005    5614.28  <-- SCF
     15  -6.26608661E+004  3.81594910E+000   1.39482725E-005    5976.15  <-- SCF
     16  -6.26608672E+004  3.81643765E+000   1.85529943E-005    6337.80  <-- SCF
     17  -6.26608676E+004  3.81672279E+000   5.43994714E-006    6704.81  <-- SCF
     18  -6.26608678E+004  3.81708516E+000   4.12129142E-006    7067.60  <-- SCF
     19  -6.26608679E+004  3.81716021E+000   6.30261303E-007    7407.93  <-- SCF
     20  -6.26608679E+004  3.81714535E+000   1.46680110E-007    7713.47  <-- SCF
     21  -6.26608679E+004  3.81711399E+000   5.50851061E-008    7990.14  <-- SCF
     22  -6.26608679E+004  3.81710271E+000   1.59404629E-008    8255.61  <-- SCF
     23  -6.26608679E+004  3.81709159E+000   9.61149650E-009    8506.01  <-- SCF
     24  -6.26608679E+004  3.81708775E+000   1.53048557E-009    8755.85  <-- SCF
     25  -6.26608679E+004  3.81708423E+000   1.52046827E-009    9004.23  <-- SCF
------------------------------------------------------------------------ <-- SCF
 
Integrated Spin Density     =    0.180044E-03 hbar/2
Integrated |Spin Density|   =    0.100622E-02 hbar/2
 
Final energy, E             =  -62660.73345939     eV
Final free energy (E-TS)    =  -62660.86787579     eV
(energies not corrected for finite basis set)
 
NB est. 0K energy (E-0.5TS)      =  -62660.80066759     eV
 

 ************************** Forces **************************
 *                                                          *
 *               Cartesian components (eV/A)                *
 * -------------------------------------------------------- *
 *                         x            y            z      *
 *                                                          *
 * P               1      0.23870      0.00051     -0.03988 *
 * P               2     -0.03778      0.00114      0.23477 *
 * P               3      0.08128      0.03586      0.08121 *
 * P               4      0.02680      0.01274      0.02214 *
 * P               5     -0.00648      0.09537     -0.10237 *
 * P               6      0.04451     -0.00176     -0.03236 *
 * P               7      0.03590      0.00321      0.05973 *
 * P               8     -0.07078      0.05899     -0.00765 *
 * P               9     -0.00764      0.05895     -0.07085 *
 * P              10      0.02747      0.07560      0.02729 *
 * P              11      0.13095     -0.11374      0.13080 *
 * P              12      0.05122      0.00541     -0.02352 *
 * P              13      0.02640     -0.03672      0.00736 *
 * P              14     -0.01688      0.05023      0.00085 *
 * P              15      0.03680      0.08757     -0.04424 *
 * P              16     -0.10250      0.09541     -0.00657 *
 * P              17      0.02203      0.01280      0.02661 *
 * P              18     -0.03273     -0.00212      0.04441 *
 * P              19      0.05948      0.00347      0.03574 *
 * P              20     -0.01884      0.06432     -0.02338 *
 * P              21     -0.02367      0.06425     -0.01850 *
 * P              22     -0.01920      0.05218     -0.01911 *
 * P              23      0.01007      0.02036      0.01006 *
 * P              24      0.00730     -0.03673      0.02635 *
 * P              25     -0.02355      0.00543      0.05116 *
 * P              26      0.00079      0.05029     -0.01690 *
 * P              27     -0.04429      0.08748      0.03686 *
 * P              28     -0.00006     -0.00133     -0.00866 *
 * P              29     -0.00867     -0.00135     -0.00000 *
 * P              30      0.00883      0.05337      0.00890 *
 * P              31     -0.00489      0.07391     -0.00485 *
 * In              1      0.02545     -0.00322      0.02552 *
 * In              2     -0.46471     -1.71981     -0.45930 *
 * In              3      0.07744      0.04238     -0.01752 *
 * In              4     -0.01765      0.04248      0.07747 *
 * In              5      0.01746      0.04759      0.02422 *
 * In              6     -0.05769     -0.00853      0.02680 *
 * In              7      0.04920     -0.01490      0.01630 *
 * In              8     -0.01314      0.15914     -0.16987 *
 * In              9      0.02200      0.06370      0.02200 *
 * In             10      0.09339      0.17568      0.09342 *
 * In             11     -0.00632      0.08061     -0.04098 *
 * In             12     -0.04110      0.08062     -0.00625 *
 * In             13     -0.00244      0.02291     -0.02510 *
 * In             14     -0.04763     -0.00456      0.03405 *
 * In             15      0.01941     -0.00552      0.02755 *
 * In             16     -0.04737     -0.02443      0.06982 *
 * In             17      0.02421      0.04785      0.01756 *
 * In             18      0.02689     -0.00854     -0.05764 *
 * In             19     -0.16934      0.15957     -0.01280 *
 * In             20      0.01647     -0.01495      0.04930 *
 * In             21      0.08662      0.06136      0.08660 *
 * In             22      0.03015     -0.19428      0.02985 *
 * In             23     -0.00770      0.07263     -0.02899 *
 * In             24     -0.02885      0.07264     -0.00772 *
 * In             25     -0.02507      0.02297     -0.00240 *
 * In             26      0.03428     -0.00457     -0.04726 *
 * In             27      0.06980     -0.02441     -0.04721 *
 * In             28      0.02763     -0.00554      0.01938 *
 * In             29     -0.04045     -0.06791     -0.04046 *
 * In             30     -0.00959      0.05973     -0.00965 *
 * In             31     -0.02844      0.00709     -0.00356 *
 * In             32     -0.00346      0.00712     -0.02854 *
 *                                                          *
 ************************************************************

 Pseudo atomic calculation performed for P 3s2 3p3

 Converged in 23 iterations to a total energy of -208.0292 eV

 Pseudo atomic calculation performed for In 4d10 5s2 5p1

 Converged in 42 iterations to a total energy of -1747.4501 eV
Charge spilling parameter for spin component 1 = 0.18%
Charge spilling parameter for spin component 2 = 0.18%

                   Orbital Populations                  
  ---------------------------------------------------------------
     Ion    Atom   Orbital              Up        Down      Spin
  ---------------------------------------------------------------
      P     1      S                    0.877     0.877    -0.000
      P     1      Px                   0.609     0.609    -0.000
      P     1      Py                   0.675     0.675    -0.000
      P     1      Pz                   0.659     0.659    -0.000
      P     2      S                    0.877     0.877    -0.000
      P     2      Px                   0.659     0.659    -0.000
      P     2      Py                   0.675     0.675    -0.000
      P     2      Pz                   0.609     0.609    -0.000
      P     3      S                    0.873     0.873     0.000
      P     3      Px                   0.642     0.642    -0.000
      P     3      Py                   0.671     0.671    -0.000
      P     3      Pz                   0.642     0.642    -0.000
      P     4      S                    0.869     0.869    -0.000
      P     4      Px                   0.656     0.656     0.000
      P     4      Py                   0.651     0.651    -0.000
      P     4      Pz                   0.658     0.658    -0.000
      P     5      S                    0.872     0.872     0.000
      P     5      Px                   0.662     0.662    -0.000
      P     5      Py                   0.644     0.644     0.000
      P     5      Pz                   0.651     0.651     0.000
      P     6      S                    0.870     0.870     0.000
      P     6      Px                   0.646     0.646     0.000
      P     6      Py                   0.658     0.658    -0.000
      P     6      Pz                   0.655     0.655     0.000
      P     7      S                    0.868     0.868     0.000
      P     7      Px                   0.656     0.656    -0.000
      P     7      Py                   0.652     0.652    -0.000
      P     7      Pz                   0.659     0.659     0.000
      P     8      S                    0.873     0.873     0.000
      P     8      Px                   0.647     0.647    -0.000
      P     8      Py                   0.641     0.641    -0.000
      P     8      Pz                   0.665     0.665    -0.000
      P     9      S                    0.873     0.873     0.000
      P     9      Px                   0.665     0.665     0.000
      P     9      Py                   0.641     0.641    -0.000
      P     9      Pz                   0.647     0.647    -0.000
      P    10      S                    0.894     0.894    -0.000
      P    10      Px                   0.641     0.641    -0.000
      P    10      Py                   0.638     0.638     0.000
      P    10      Pz                   0.641     0.641    -0.000
      P    11      S                    0.877     0.877    -0.000
      P    11      Px                   0.655     0.655    -0.000
      P    11      Py                   0.634     0.634    -0.000
      P    11      Pz                   0.655     0.655    -0.000
      P    12      S                    0.869     0.869    -0.000
      P    12      Px                   0.655     0.655    -0.000
      P    12      Py                   0.658     0.658     0.000
      P    12      Pz                   0.652     0.652     0.000
      P    13      S                    0.874     0.874    -0.000
      P    13      Px                   0.664     0.664    -0.000
      P    13      Py                   0.645     0.645     0.000
      P    13      Pz                   0.642     0.642     0.000
      P    14      S                    0.868     0.868     0.000
      P    14      Px                   0.654     0.654    -0.000
      P    14      Py                   0.660     0.660    -0.000
      P    14      Pz                   0.653     0.653    -0.000
      P    15      S                    0.873     0.873     0.000
      P    15      Px                   0.658     0.658     0.000
      P    15      Py                   0.651     0.651    -0.000
      P    15      Pz                   0.648     0.648     0.000
      P    16      S                    0.872     0.872     0.000
      P    16      Px                   0.651     0.651     0.000
      P    16      Py                   0.644     0.644     0.000
      P    16      Pz                   0.662     0.662    -0.000
      P    17      S                    0.869     0.869    -0.000
      P    17      Px                   0.658     0.658    -0.000
      P    17      Py                   0.651     0.651    -0.000
      P    17      Pz                   0.656     0.656     0.000
      P    18      S                    0.870     0.870     0.000
      P    18      Px                   0.655     0.655     0.000
      P    18      Py                   0.658     0.658    -0.000
      P    18      Pz                   0.646     0.646     0.000
      P    19      S                    0.868     0.868     0.000
      P    19      Px                   0.659     0.659     0.000
      P    19      Py                   0.652     0.652    -0.000
      P    19      Pz                   0.656     0.656    -0.000
      P    20      S                    0.868     0.868     0.000
      P    20      Px                   0.654     0.654     0.000
      P    20      Py                   0.656     0.656    -0.000
      P    20      Pz                   0.656     0.656    -0.000
      P    21      S                    0.868     0.868    -0.000
      P    21      Px                   0.656     0.656    -0.000
      P    21      Py                   0.656     0.656    -0.000
      P    21      Pz                   0.654     0.654     0.000
      P    22      S                    0.873     0.873    -0.000
      P    22      Px                   0.645     0.645    -0.000
      P    22      Py                   0.664     0.664    -0.000
      P    22      Pz                   0.645     0.645    -0.000
      P    23      S                    0.871     0.871     0.000
      P    23      Px                   0.650     0.650     0.000
      P    23      Py                   0.660     0.660     0.000
      P    23      Pz                   0.650     0.650     0.000
      P    24      S                    0.874     0.874    -0.000
      P    24      Px                   0.642     0.642     0.000
      P    24      Py                   0.645     0.645     0.000
      P    24      Pz                   0.664     0.664    -0.000
      P    25      S                    0.869     0.869     0.000
      P    25      Px                   0.652     0.652     0.000
      P    25      Py                   0.658     0.658     0.000
      P    25      Pz                   0.655     0.655     0.000
      P    26      S                    0.868     0.868     0.000
      P    26      Px                   0.653     0.653    -0.000
      P    26      Py                   0.660     0.660     0.000
      P    26      Pz                   0.654     0.654    -0.000
      P    27      S                    0.873     0.873     0.000
      P    27      Px                   0.648     0.648     0.000
      P    27      Py                   0.651     0.651    -0.000
      P    27      Pz                   0.658     0.658     0.000
      P    28      S                    0.868     0.868    -0.000
      P    28      Px                   0.656     0.656     0.000
      P    28      Py                   0.656     0.656     0.000
      P    28      Pz                   0.655     0.655     0.000
      P    29      S                    0.868     0.868    -0.000
      P    29      Px                   0.655     0.655     0.000
      P    29      Py                   0.656     0.656     0.000
      P    29      Pz                   0.656     0.656     0.000
      P    30      S                    0.868     0.868    -0.000
      P    30      Px                   0.656     0.656     0.000
      P    30      Py                   0.655     0.655     0.000
      P    30      Pz                   0.656     0.656     0.000
      P    31      S                    0.869     0.869    -0.000
      P    31      Px                   0.655     0.655     0.000
      P    31      Py                   0.656     0.656    -0.000
      P    31      Pz                   0.655     0.655     0.000
     In     1      Dzz                  1.000     1.000     0.000
     In     1      Dzy                  0.999     0.999     0.000
     In     1      Dzx                  0.998     0.998    -0.000
     In     1      Dxx-yy               1.000     1.000     0.000
     In     1      Dxy                  0.999     0.999     0.000
     In     1      S                    0.705     0.705     0.000
     In     1      Px                   0.242     0.242     0.000
     In     1      Py                   0.240     0.240     0.000
     In     1      Pz                   0.242     0.242     0.000
     In     1      S                   -0.242    -0.242    -0.000
     In     2      Dzz                  0.999     0.999    -0.000
     In     2      Dzy                  0.999     0.999    -0.000
     In     2      Dzx                  0.997     0.997     0.000
     In     2      Dxx-yy               0.999     0.999     0.000
     In     2      Dxy                  0.999     0.999    -0.000
     In     2      S                    0.712     0.712    -0.000
     In     2      Px                   0.229     0.229     0.000
     In     2      Py                   0.218     0.218     0.000
     In     2      Pz                   0.229     0.229     0.000
     In     2      S                   -0.225    -0.225     0.000
     In     3      Dzz                  1.000     1.000    -0.000
     In     3      Dzy                  0.998     0.998    -0.000
     In     3      Dzx                  0.998     0.998     0.000
     In     3      Dxx-yy               1.000     1.000     0.000
     In     3      Dxy                  0.999     0.999     0.000
     In     3      S                    0.711     0.711     0.000
     In     3      Px                   0.237     0.237     0.000
     In     3      Py                   0.236     0.236    -0.000
     In     3      Pz                   0.244     0.244    -0.000
     In     3      S                   -0.241    -0.241    -0.000
     In     4      Dzz                  1.000     1.000    -0.000
     In     4      Dzy                  0.999     0.999     0.000
     In     4      Dzx                  0.998     0.998    -0.000
     In     4      Dxx-yy               1.000     1.000     0.000
     In     4      Dxy                  0.998     0.998    -0.000
     In     4      S                    0.711     0.711     0.000
     In     4      Px                   0.244     0.244    -0.000
     In     4      Py                   0.236     0.236    -0.000
     In     4      Pz                   0.237     0.237     0.000
     In     4      S                   -0.241    -0.241    -0.000
     In     5      Dzz                  1.000     1.000     0.000
     In     5      Dzy                  0.998     0.998    -0.000
     In     5      Dzx                  0.999     0.999    -0.000
     In     5      Dxx-yy               1.000     1.000     0.000
     In     5      Dxy                  0.999     0.999     0.000
     In     5      S                    0.717     0.717    -0.000
     In     5      Px                   0.236     0.236    -0.000
     In     5      Py                   0.239     0.239     0.000
     In     5      Pz                   0.238     0.238     0.000
     In     5      S                   -0.250    -0.250    -0.000
     In     6      Dzz                  1.000     1.000     0.000
     In     6      Dzy                  0.999     0.999     0.000
     In     6      Dzx                  0.998     0.998     0.000
     In     6      Dxx-yy               1.000     1.000     0.000
     In     6      Dxy                  0.998     0.998     0.000
     In     6      S                    0.712     0.712     0.000
     In     6      Px                   0.241     0.241     0.000
     In     6      Py                   0.240     0.240     0.000
     In     6      Pz                   0.239     0.239     0.000
     In     6      S                   -0.256    -0.256    -0.000
     In     7      Dzz                  1.000     1.000     0.000
     In     7      Dzy                  0.998     0.998    -0.000
     In     7      Dzx                  0.999     0.999     0.000
     In     7      Dxx-yy               1.000     1.000     0.000
     In     7      Dxy                  0.998     0.998     0.000
     In     7      S                    0.710     0.710     0.000
     In     7      Px                   0.239     0.239     0.000
     In     7      Py                   0.245     0.245     0.000
     In     7      Pz                   0.237     0.237     0.000
     In     7      S                   -0.256    -0.256     0.000
     In     8      Dzz                  1.000     1.000     0.000
     In     8      Dzy                  0.999     0.999     0.000
     In     8      Dzx                  0.999     0.999    -0.000
     In     8      Dxx-yy               1.000     1.000     0.000
     In     8      Dxy                  0.998     0.998     0.000
     In     8      S                    0.719     0.719     0.000
     In     8      Px                   0.251     0.251     0.000
     In     8      Py                   0.244     0.244     0.000
     In     8      Pz                   0.234     0.234     0.000
     In     8      S                   -0.231    -0.231     0.000
     In     9      Dzz                  1.000     1.000     0.000
     In     9      Dzy                  0.998     0.998     0.000
     In     9      Dzx                  0.999     0.999     0.000
     In     9      Dxx-yy               1.000     1.000     0.000
     In     9      Dxy                  0.998     0.998     0.000
     In     9      S                    0.712     0.712    -0.000
     In     9      Px                   0.239     0.239    -0.000
     In     9      Py                   0.241     0.241    -0.000
     In     9      Pz                   0.239     0.239    -0.000
     In     9      S                   -0.250    -0.250    -0.000
     In    10      Dzz                  1.000     1.000     0.000
     In    10      Dzy                  0.999     0.999     0.000
     In    10      Dzx                  0.999     0.999    -0.000
     In    10      Dxx-yy               1.000     1.000     0.000
     In    10      Dxy                  0.999     0.999     0.000
     In    10      S                    0.727     0.727     0.000
     In    10      Px                   0.242     0.242    -0.000
     In    10      Py                   0.243     0.243    -0.000
     In    10      Pz                   0.242     0.242    -0.000
     In    10      S                   -0.231    -0.231    -0.000
     In    11      Dzz                  1.000     1.000     0.000
     In    11      Dzy                  0.999     0.999     0.000
     In    11      Dzx                  0.999     0.999     0.000
     In    11      Dxx-yy               1.000     1.000    -0.000
     In    11      Dxy                  0.998     0.998     0.000
     In    11      S                    0.704     0.704     0.000
     In    11      Px                   0.241     0.241    -0.000
     In    11      Py                   0.244     0.244    -0.000
     In    11      Pz                   0.239     0.239     0.000
     In    11      S                   -0.235    -0.235     0.000
     In    12      Dzz                  1.000     1.000    -0.000
     In    12      Dzy                  0.998     0.998     0.000
     In    12      Dzx                  0.999     0.999     0.000
     In    12      Dxx-yy               1.000     1.000     0.000
     In    12      Dxy                  0.999     0.999     0.000
     In    12      S                    0.704     0.704     0.000
     In    12      Px                   0.239     0.239    -0.000
     In    12      Py                   0.244     0.244    -0.000
     In    12      Pz                   0.241     0.241    -0.000
     In    12      S                   -0.235    -0.235    -0.000
     In    13      Dzz                  1.000     1.000    -0.000
     In    13      Dzy                  0.999     0.999     0.000
     In    13      Dzx                  0.998     0.998     0.000
     In    13      Dxx-yy               1.000     1.000     0.000
     In    13      Dxy                  0.999     0.999     0.000
     In    13      S                    0.709     0.709    -0.000
     In    13      Px                   0.241     0.241    -0.000
     In    13      Py                   0.237     0.237    -0.000
     In    13      Pz                   0.241     0.241    -0.000
     In    13      S                   -0.251    -0.251    -0.000
     In    14      Dzz                  1.000     1.000    -0.000
     In    14      Dzy                  0.998     0.999    -0.000
     In    14      Dzx                  0.998     0.998     0.000
     In    14      Dxx-yy               1.000     1.000    -0.000
     In    14      Dxy                  0.998     0.998     0.000
     In    14      S                    0.706     0.706     0.000
     In    14      Px                   0.243     0.243    -0.000
     In    14      Py                   0.239     0.239     0.000
     In    14      Pz                   0.239     0.239    -0.000
     In    14      S                   -0.241    -0.241     0.000
     In    15      Dzz                  1.000     1.000    -0.000
     In    15      Dzy                  0.998     0.998    -0.000
     In    15      Dzx                  0.998     0.998    -0.000
     In    15      Dxx-yy               1.000     1.000    -0.000
     In    15      Dxy                  0.999     0.999    -0.000
     In    15      S                    0.708     0.708    -0.000
     In    15      Px                   0.241     0.241     0.000
     In    15      Py                   0.239     0.239     0.000
     In    15      Pz                   0.241     0.241    -0.000
     In    15      S                   -0.258    -0.258     0.000
     In    16      Dzz                  1.000     1.000     0.000
     In    16      Dzy                  0.999     0.999     0.000
     In    16      Dzx                  0.999     0.999    -0.000
     In    16      Dxx-yy               1.000     1.000     0.000
     In    16      Dxy                  0.999     0.999     0.000
     In    16      S                    0.707     0.707     0.000
     In    16      Px                   0.234     0.234    -0.000
     In    16      Py                   0.244     0.244    -0.000
     In    16      Pz                   0.239     0.239    -0.000
     In    16      S                   -0.237    -0.237    -0.000
     In    17      Dzz                  1.000     1.000     0.000
     In    17      Dzy                  0.999     0.999     0.000
     In    17      Dzx                  0.999     0.999    -0.000
     In    17      Dxx-yy               1.000     1.000     0.000
     In    17      Dxy                  0.998     0.998    -0.000
     In    17      S                    0.717     0.717    -0.000
     In    17      Px                   0.238     0.238     0.000
     In    17      Py                   0.239     0.239     0.000
     In    17      Pz                   0.236     0.236     0.000
     In    17      S                   -0.250    -0.250    -0.000
     In    18      Dzz                  1.000     1.000     0.000
     In    18      Dzy                  0.998     0.998     0.000
     In    18      Dzx                  0.998     0.998     0.000
     In    18      Dxx-yy               1.000     1.000     0.000
     In    18      Dxy                  0.999     0.999     0.000
     In    18      S                    0.712     0.712     0.000
     In    18      Px                   0.239     0.239     0.000
     In    18      Py                   0.240     0.240     0.000
     In    18      Pz                   0.241     0.241     0.000
     In    18      S                   -0.256    -0.256    -0.000
     In    19      Dzz                  1.000     1.000     0.000
     In    19      Dzy                  0.998     0.998     0.000
     In    19      Dzx                  0.999     0.999    -0.000
     In    19      Dxx-yy               1.000     1.000     0.000
     In    19      Dxy                  0.999     0.999     0.000
     In    19      S                    0.719     0.719     0.000
     In    19      Px                   0.234     0.234     0.000
     In    19      Py                   0.244     0.244     0.000
     In    19      Pz                   0.251     0.251     0.000
     In    19      S                   -0.231    -0.231     0.000
     In    20      Dzz                  1.000     1.000     0.000
     In    20      Dzy                  0.998     0.998     0.000
     In    20      Dzx                  0.999     0.999     0.000
     In    20      Dxx-yy               1.000     1.000     0.000
     In    20      Dxy                  0.998     0.998    -0.000
     In    20      S                    0.710     0.710     0.000
     In    20      Px                   0.237     0.237     0.000
     In    20      Py                   0.245     0.245     0.000
     In    20      Pz                   0.239     0.239     0.000
     In    20      S                   -0.256    -0.256     0.000
     In    21      Dzz                  1.000     1.000    -0.000
     In    21      Dzy                  0.999     0.999     0.000
     In    21      Dzx                  0.998     0.998    -0.000
     In    21      Dxx-yy               1.000     1.000    -0.000
     In    21      Dxy                  0.999     0.999    -0.000
     In    21      S                    0.706     0.706    -0.000
     In    21      Px                   0.243     0.243     0.000
     In    21      Py                   0.241     0.241    -0.000
     In    21      Pz                   0.243     0.243     0.000
     In    21      S                   -0.247    -0.247    -0.000
     In    22      Dzz                  1.000     1.000     0.000
     In    22      Dzy                  0.999     0.999    -0.000
     In    22      Dzx                  0.998     0.998    -0.000
     In    22      Dxx-yy               1.000     1.000    -0.000
     In    22      Dxy                  0.999     0.999     0.000
     In    22      S                    0.706     0.706     0.000
     In    22      Px                   0.241     0.241     0.000
     In    22      Py                   0.240     0.240     0.000
     In    22      Pz                   0.241     0.241     0.000
     In    22      S                   -0.250    -0.250     0.000
     In    23      Dzz                  1.000     1.000    -0.000
     In    23      Dzy                  0.998     0.998     0.000
     In    23      Dzx                  0.999     0.999    -0.000
     In    23      Dxx-yy               1.000     1.000     0.000
     In    23      Dxy                  0.998     0.998     0.000
     In    23      S                    0.708     0.708     0.000
     In    23      Px                   0.240     0.240     0.000
     In    23      Py                   0.243     0.243     0.000
     In    23      Pz                   0.239     0.239    -0.000
     In    23      S                   -0.251    -0.251    -0.000
     In    24      Dzz                  1.000     1.000    -0.000
     In    24      Dzy                  0.998     0.998    -0.000
     In    24      Dzx                  0.999     0.999    -0.000
     In    24      Dxx-yy               1.000     1.000    -0.000
     In    24      Dxy                  0.998     0.998    -0.000
     In    24      S                    0.708     0.708     0.000
     In    24      Px                   0.239     0.239    -0.000
     In    24      Py                   0.243     0.243     0.000
     In    24      Pz                   0.240     0.240     0.000
     In    24      S                   -0.251    -0.251    -0.000
     In    25      Dzz                  1.000     1.000     0.000
     In    25      Dzy                  0.999     0.999     0.000
     In    25      Dzx                  0.998     0.998     0.000
     In    25      Dxx-yy               1.000     1.000    -0.000
     In    25      Dxy                  0.999     0.999    -0.000
     In    25      S                    0.709     0.709    -0.000
     In    25      Px                   0.241     0.241    -0.000
     In    25      Py                   0.237     0.237    -0.000
     In    25      Pz                   0.241     0.241    -0.000
     In    25      S                   -0.251    -0.251    -0.000
     In    26      Dzz                  1.000     1.000    -0.000
     In    26      Dzy                  0.998     0.998    -0.000
     In    26      Dzx                  0.998     0.998     0.000
     In    26      Dxx-yy               1.000     1.000    -0.000
     In    26      Dxy                  0.998     0.998    -0.000
     In    26      S                    0.706     0.706     0.000
     In    26      Px                   0.239     0.239    -0.000
     In    26      Py                   0.239     0.239    -0.000
     In    26      Pz                   0.243     0.243    -0.000
     In    26      S                   -0.241    -0.241    -0.000
     In    27      Dzz                  1.000     1.000     0.000
     In    27      Dzy                  0.999     0.999     0.000
     In    27      Dzx                  0.999     0.999    -0.000
     In    27      Dxx-yy               1.000     1.000    -0.000
     In    27      Dxy                  0.999     0.999     0.000
     In    27      S                    0.707     0.707     0.000
     In    27      Px                   0.239     0.239    -0.000
     In    27      Py                   0.244     0.244    -0.000
     In    27      Pz                   0.234     0.234     0.000
     In    27      S                   -0.237    -0.237     0.000
     In    28      Dzz                  1.000     1.000    -0.000
     In    28      Dzy                  0.999     0.999    -0.000
     In    28      Dzx                  0.998     0.998    -0.000
     In    28      Dxx-yy               1.000     1.000     0.000
     In    28      Dxy                  0.998     0.998    -0.000
     In    28      S                    0.708     0.708    -0.000
     In    28      Px                   0.241     0.241    -0.000
     In    28      Py                   0.239     0.239     0.000
     In    28      Pz                   0.241     0.241     0.000
     In    28      S                   -0.258    -0.258     0.000
     In    29      Dzz                  1.000     1.000     0.000
     In    29      Dzy                  0.999     0.999     0.000
     In    29      Dzx                  0.999     0.999    -0.000
     In    29      Dxx-yy               1.000     1.000     0.000
     In    29      Dxy                  0.999     0.999     0.000
     In    29      S                    0.727     0.727    -0.000
     In    29      Px                   0.242     0.242    -0.000
     In    29      Py                   0.249     0.249    -0.000
     In    29      Pz                   0.242     0.242    -0.000
     In    29      S                   -0.233    -0.233    -0.000
     In    30      Dzz                  1.000     1.000     0.000
     In    30      Dzy                  0.999     0.999    -0.000
     In    30      Dzx                  0.999     0.999     0.000
     In    30      Dxx-yy               1.000     1.000    -0.000
     In    30      Dxy                  0.999     0.999    -0.000
     In    30      S                    0.711     0.711    -0.000
     In    30      Px                   0.240     0.240    -0.000
     In    30      Py                   0.240     0.240    -0.000
     In    30      Pz                   0.240     0.240    -0.000
     In    30      S                   -0.243    -0.243    -0.000
     In    31      Dzz                  1.000     1.000     0.000
     In    31      Dzy                  0.999     0.999    -0.000
     In    31      Dzx                  0.998     0.998    -0.000
     In    31      Dxx-yy               1.000     1.000    -0.000
     In    31      Dxy                  0.999     0.999     0.000
     In    31      S                    0.710     0.710    -0.000
     In    31      Px                   0.241     0.241    -0.000
     In    31      Py                   0.238     0.238     0.000
     In    31      Pz                   0.242     0.242    -0.000
     In    31      S                   -0.253    -0.253    -0.000
     In    32      Dzz                  1.000     1.000     0.000
     In    32      Dzy                  0.999     0.999     0.000
     In    32      Dzx                  0.998     0.998    -0.000
     In    32      Dxx-yy               1.000     1.000    -0.000
     In    32      Dxy                  0.999     0.999    -0.000
     In    32      S                    0.710     0.710     0.000
     In    32      Px                   0.242     0.242     0.000
     In    32      Py                   0.238     0.238     0.000
     In    32      Pz                   0.241     0.241    -0.000
     In    32      S                   -0.253    -0.253     0.000
  ---------------------------------------------------------------
                           Total:     285.500   285.500     0.000
  ---------------------------------------------------------------

     Atomic Populations (Mulliken)
     -----------------------------
Species          Ion Spin      s       p       d       f      Total   Charge(e)   Spin(hbar/2)
==============================================================================================
  P               1   up:     0.877   1.943   0.000   0.000   2.820    -0.639       -0.000
                  1   dn:     0.877   1.943   0.000   0.000   2.820
  P               2   up:     0.877   1.943   0.000   0.000   2.820    -0.639       -0.000
                  2   dn:     0.877   1.943   0.000   0.000   2.820
  P               3   up:     0.873   1.956   0.000   0.000   2.829    -0.657       -0.000
                  3   dn:     0.873   1.956   0.000   0.000   2.829
  P               4   up:     0.869   1.966   0.000   0.000   2.835    -0.670       -0.000
                  4   dn:     0.869   1.966   0.000   0.000   2.835
  P               5   up:     0.872   1.956   0.000   0.000   2.828    -0.657        0.000
                  5   dn:     0.872   1.956   0.000   0.000   2.828
  P               6   up:     0.870   1.959   0.000   0.000   2.829    -0.659        0.000
                  6   dn:     0.870   1.959   0.000   0.000   2.829
  P               7   up:     0.868   1.967   0.000   0.000   2.835    -0.670       -0.000
                  7   dn:     0.868   1.967   0.000   0.000   2.835
  P               8   up:     0.873   1.953   0.000   0.000   2.826    -0.652       -0.000
                  8   dn:     0.873   1.953   0.000   0.000   2.826
  P               9   up:     0.873   1.953   0.000   0.000   2.826    -0.652       -0.000
                  9   dn:     0.873   1.953   0.000   0.000   2.826
  P              10   up:     0.894   1.919   0.000   0.000   2.813    -0.626       -0.000
                 10   dn:     0.894   1.919   0.000   0.000   2.813
  P              11   up:     0.877   1.943   0.000   0.000   2.821    -0.642       -0.000
                 11   dn:     0.877   1.943   0.000   0.000   2.821
  P              12   up:     0.869   1.965   0.000   0.000   2.834    -0.668        0.000
                 12   dn:     0.869   1.965   0.000   0.000   2.834
  P              13   up:     0.874   1.951   0.000   0.000   2.825    -0.649        0.000
                 13   dn:     0.874   1.951   0.000   0.000   2.825
  P              14   up:     0.868   1.968   0.000   0.000   2.836    -0.672       -0.000
                 14   dn:     0.868   1.968   0.000   0.000   2.836
  P              15   up:     0.873   1.957   0.000   0.000   2.830    -0.660        0.000
                 15   dn:     0.873   1.957   0.000   0.000   2.830
  P              16   up:     0.872   1.956   0.000   0.000   2.828    -0.657        0.000
                 16   dn:     0.872   1.956   0.000   0.000   2.828
  P              17   up:     0.869   1.966   0.000   0.000   2.835    -0.670        0.000
                 17   dn:     0.869   1.966   0.000   0.000   2.835
  P              18   up:     0.870   1.959   0.000   0.000   2.829    -0.659        0.000
                 18   dn:     0.870   1.959   0.000   0.000   2.829
  P              19   up:     0.868   1.967   0.000   0.000   2.835    -0.670        0.000
                 19   dn:     0.868   1.967   0.000   0.000   2.835
  P              20   up:     0.868   1.967   0.000   0.000   2.835    -0.670       -0.000
                 20   dn:     0.868   1.967   0.000   0.000   2.835
  P              21   up:     0.868   1.967   0.000   0.000   2.835    -0.670       -0.000
                 21   dn:     0.868   1.967   0.000   0.000   2.835
  P              22   up:     0.873   1.953   0.000   0.000   2.826    -0.652       -0.000
                 22   dn:     0.873   1.953   0.000   0.000   2.826
  P              23   up:     0.871   1.961   0.000   0.000   2.832    -0.664        0.000
                 23   dn:     0.871   1.961   0.000   0.000   2.832
  P              24   up:     0.874   1.951   0.000   0.000   2.825    -0.649        0.000
                 24   dn:     0.874   1.951   0.000   0.000   2.825
  P              25   up:     0.869   1.965   0.000   0.000   2.834    -0.668        0.000
                 25   dn:     0.869   1.965   0.000   0.000   2.834
  P              26   up:     0.868   1.968   0.000   0.000   2.836    -0.672        0.000
                 26   dn:     0.868   1.968   0.000   0.000   2.836
  P              27   up:     0.873   1.957   0.000   0.000   2.830    -0.660        0.000
                 27   dn:     0.873   1.957   0.000   0.000   2.830
  P              28   up:     0.868   1.968   0.000   0.000   2.836    -0.672        0.000
                 28   dn:     0.868   1.968   0.000   0.000   2.836
  P              29   up:     0.868   1.968   0.000   0.000   2.836    -0.672        0.000
                 29   dn:     0.868   1.968   0.000   0.000   2.836
  P              30   up:     0.868   1.967   0.000   0.000   2.835    -0.669        0.000
                 30   dn:     0.868   1.967   0.000   0.000   2.835
  P              31   up:     0.869   1.966   0.000   0.000   2.835    -0.670        0.000
                 31   dn:     0.869   1.966   0.000   0.000   2.835
  In              1   up:     0.462   0.723   4.995   0.000   6.181     0.639        0.000
                  1   dn:     0.462   0.723   4.995   0.000   6.181
  In              2   up:     0.487   0.676   4.994   0.000   6.157     0.686       -0.000
                  2   dn:     0.487   0.676   4.994   0.000   6.157
  In              3   up:     0.469   0.718   4.995   0.000   6.182     0.637       -0.000
                  3   dn:     0.469   0.718   4.995   0.000   6.182
  In              4   up:     0.469   0.718   4.995   0.000   6.182     0.637       -0.000
                  4   dn:     0.469   0.718   4.995   0.000   6.182
  In              5   up:     0.467   0.713   4.995   0.000   6.175     0.649        0.000
                  5   dn:     0.467   0.713   4.995   0.000   6.175
  In              6   up:     0.456   0.720   4.995   0.000   6.170     0.660        0.000
                  6   dn:     0.456   0.720   4.995   0.000   6.170
  In              7   up:     0.454   0.722   4.995   0.000   6.170     0.659        0.000
                  7   dn:     0.454   0.722   4.995   0.000   6.170
  In              8   up:     0.488   0.728   4.995   0.000   6.211     0.578        0.000
                  8   dn:     0.488   0.728   4.995   0.000   6.211
  In              9   up:     0.462   0.719   4.995   0.000   6.175     0.649       -0.000
                  9   dn:     0.462   0.719   4.995   0.000   6.175
  In             10   up:     0.496   0.727   4.996   0.000   6.219     0.562       -0.000
                 10   dn:     0.496   0.727   4.996   0.000   6.219
  In             11   up:     0.469   0.723   4.995   0.000   6.187     0.625        0.000
                 11   dn:     0.469   0.723   4.995   0.000   6.187
  In             12   up:     0.469   0.723   4.995   0.000   6.187     0.625        0.000
                 12   dn:     0.469   0.723   4.995   0.000   6.187
  In             13   up:     0.458   0.718   4.995   0.000   6.170     0.659       -0.000
                 13   dn:     0.458   0.718   4.995   0.000   6.170
  In             14   up:     0.466   0.721   4.994   0.000   6.181     0.637        0.000
                 14   dn:     0.466   0.721   4.994   0.000   6.181
  In             15   up:     0.450   0.721   4.995   0.000   6.166     0.668       -0.000
                 15   dn:     0.450   0.721   4.995   0.000   6.166
  In             16   up:     0.470   0.717   4.995   0.000   6.181     0.638        0.000
                 16   dn:     0.470   0.717   4.995   0.000   6.181
  In             17   up:     0.467   0.713   4.995   0.000   6.175     0.649        0.000
                 17   dn:     0.467   0.713   4.995   0.000   6.175
  In             18   up:     0.456   0.720   4.995   0.000   6.170     0.660        0.000
                 18   dn:     0.456   0.720   4.995   0.000   6.170
  In             19   up:     0.488   0.728   4.995   0.000   6.211     0.578        0.000
                 19   dn:     0.488   0.728   4.995   0.000   6.211
  In             20   up:     0.454   0.722   4.995   0.000   6.170     0.659        0.000
                 20   dn:     0.454   0.722   4.995   0.000   6.170
  In             21   up:     0.460   0.728   4.994   0.000   6.182     0.637       -0.000
                 21   dn:     0.460   0.728   4.994   0.000   6.182
  In             22   up:     0.456   0.722   4.995   0.000   6.172     0.655        0.000
                 22   dn:     0.456   0.722   4.995   0.000   6.172
  In             23   up:     0.457   0.722   4.995   0.000   6.174     0.653       -0.000
                 23   dn:     0.457   0.722   4.995   0.000   6.174
  In             24   up:     0.457   0.722   4.995   0.000   6.174     0.653       -0.000
                 24   dn:     0.457   0.722   4.995   0.000   6.174
  In             25   up:     0.458   0.718   4.995   0.000   6.170     0.659       -0.000
                 25   dn:     0.458   0.718   4.995   0.000   6.170
  In             26   up:     0.466   0.721   4.994   0.000   6.181     0.637        0.000
                 26   dn:     0.466   0.721   4.994   0.000   6.181
  In             27   up:     0.470   0.717   4.995   0.000   6.181     0.638        0.000
                 27   dn:     0.470   0.717   4.995   0.000   6.181
  In             28   up:     0.450   0.721   4.995   0.000   6.166     0.668        0.000
                 28   dn:     0.450   0.721   4.995   0.000   6.166
  In             29   up:     0.494   0.733   4.996   0.000   6.224     0.552       -0.000
                 29   dn:     0.494   0.733   4.996   0.000   6.224
  In             30   up:     0.467   0.720   4.995   0.000   6.182     0.636       -0.000
                 30   dn:     0.467   0.720   4.995   0.000   6.182
  In             31   up:     0.457   0.721   4.995   0.000   6.172     0.655       -0.000
                 31   dn:     0.457   0.721   4.995   0.000   6.172
  In             32   up:     0.457   0.721   4.995   0.000   6.172     0.655        0.000
                 32   dn:     0.457   0.721   4.995   0.000   6.172
==============================================================================================

                 Bond                   Population        Spin       Length (A)
================================================================================
              P 2  -- In 2                   0.76        -0.00          2.47788
              P 1  -- In 2                   0.76         0.00          2.47837
              P 6  -- In 8                   0.73        -0.00          2.51169
              P 18 -- In 19                  0.73        -0.00          2.51172
              P 11 -- In 21                  0.67        -0.00          2.52727
              P 10 -- In 1                   0.76         0.00          2.53510
              P 14 -- In 5                   0.68        -0.00          2.53863
              P 26 -- In 17                  0.68        -0.00          2.53863
              P 17 -- In 3                   0.68         0.00          2.54476
              P 4  -- In 4                   0.68        -0.00          2.54477
              P 30 -- In 21                  0.67        -0.00          2.54632
              P 19 -- In 3                   0.66        -0.00          2.54690
              P 7  -- In 4                   0.66        -0.00          2.54691
              P 15 -- In 17                  0.66        -0.00          2.54707
              P 27 -- In 5                   0.66         0.00          2.54708
              P 20 -- In 22                  0.65         0.00          2.54750
              P 21 -- In 22                  0.65         0.00          2.54753
              P 5  -- In 8                   0.70        -0.00          2.54762
              P 16 -- In 19                  0.70        -0.00          2.54764
              P 10 -- In 11                  0.75        -0.00          2.54779
              P 10 -- In 12                  0.75         0.00          2.54780
              P 23 -- In 20                  0.66        -0.00          2.54800
              P 23 -- In 7                   0.66        -0.00          2.54800
              P 20 -- In 23                  0.67         0.00          2.54877
              P 21 -- In 24                  0.67         0.00          2.54877
              P 20 -- In 20                  0.67         0.00          2.54973
              P 21 -- In 7                   0.67         0.00          2.54974
              P 25 -- In 26                  0.65         0.00          2.54977
              P 12 -- In 14                  0.65         0.00          2.54978
              P 29 -- In 32                  0.67         0.00          2.55050
              P 28 -- In 31                  0.67         0.00          2.55051
              P 13 -- In 14                  0.66        -0.00          2.55210
              P 24 -- In 26                  0.66        -0.00          2.55210
              P 31 -- In 15                  0.66         0.00          2.55233
              P 31 -- In 28                  0.66         0.00          2.55234
              P 4  -- In 7                   0.66         0.00          2.55234
              P 17 -- In 20                  0.66        -0.00          2.55236
              P 22 -- In 24                  0.65        -0.00          2.55241
              P 22 -- In 23                  0.65         0.00          2.55242
              P 3  -- In 3                   0.65         0.00          2.55271
              P 3  -- In 4                   0.65         0.00          2.55272
              P 17 -- In 18                  0.66         0.00          2.55290
              P 4  -- In 6                   0.66         0.00          2.55291
              P 25 -- In 9                   0.66        -0.00          2.55313
              P 12 -- In 9                   0.66         0.00          2.55313
              P 8  -- In 13                  0.68        -0.00          2.55330
              P 9  -- In 25                  0.68         0.00          2.55330
              P 18 -- In 26                  0.62        -0.00          2.55366
              P 6  -- In 14                  0.62        -0.00          2.55369
              P 16 -- In 24                  0.63         0.00          2.55507
              P 5  -- In 23                  0.63         0.00          2.55508
              P 30 -- In 32                  0.66         0.00          2.55539
              P 30 -- In 31                  0.66         0.00          2.55539
              P 29 -- In 13                  0.65         0.00          2.55629
              P 28 -- In 25                  0.65         0.00          2.55629
              P 12 -- In 15                  0.66         0.00          2.55764
              P 26 -- In 27                  0.64         0.00          2.55764
              P 25 -- In 28                  0.66         0.00          2.55764
              P 14 -- In 16                  0.64         0.00          2.55765
              P 28 -- In 28                  0.65         0.00          2.55800
              P 29 -- In 15                  0.65         0.00          2.55800
              P 7  -- In 14                  0.65         0.00          2.55860
              P 19 -- In 26                  0.65         0.00          2.55862
              P 28 -- In 30                  0.65        -0.00          2.55925
              P 29 -- In 30                  0.65        -0.00          2.55926
              P 26 -- In 18                  0.65        -0.00          2.56032
              P 14 -- In 6                   0.65        -0.00          2.56032
              P 9  -- In 27                  0.66         0.00          2.56108
              P 8  -- In 16                  0.66         0.00          2.56108
              P 19 -- In 24                  0.66         0.00          2.56197
              P 7  -- In 23                  0.66         0.00          2.56197
              P 6  -- In 13                  0.63        -0.00          2.56225
              P 18 -- In 25                  0.63         0.00          2.56226
              P 15 -- In 6                   0.64        -0.00          2.56300
              P 27 -- In 18                  0.64        -0.00          2.56300
              P 19 -- In 13                  0.65        -0.00          2.56452
              P 7  -- In 25                  0.65        -0.00          2.56452
              P 26 -- In 28                  0.64        -0.00          2.56609
              P 14 -- In 15                  0.64        -0.00          2.56609
              P 16 -- In 18                  0.60         0.00          2.56749
              P 5  -- In 6                   0.60         0.00          2.56749
              P 21 -- In 5                   0.63        -0.00          2.56753
              P 20 -- In 17                  0.63        -0.00          2.56754
              P 30 -- In 22                  0.64         0.00          2.56759
              P 31 -- In 22                  0.65         0.00          2.56760
              P 23 -- In 9                   0.61        -0.00          2.56859
              P 18 -- In 20                  0.61         0.00          2.56864
              P 6  -- In 7                   0.61         0.00          2.56864
              P 23 -- In 30                  0.61        -0.00          2.56948
              P 22 -- In 30                  0.62        -0.00          2.56991
              P 24 -- In 32                  0.63         0.00          2.57024
              P 13 -- In 31                  0.63         0.00          2.57025
              P 25 -- In 11                  0.64         0.00          2.57247
              P 12 -- In 12                  0.64         0.00          2.57248
              P 31 -- In 1                   0.63         0.00          2.57445
              P 1  -- In 3                   0.58        -0.00          2.57473
              P 2  -- In 4                   0.58         0.00          2.57477
              P 15 -- In 31                  0.63        -0.00          2.57482
              P 27 -- In 32                  0.63         0.00          2.57483
              P 3  -- In 9                   0.61         0.00          2.57487
              P 13 -- In 16                  0.63         0.00          2.57617
              P 24 -- In 27                  0.63         0.00          2.57617
              P 5  -- In 21                  0.62         0.00          2.58066
              P 16 -- In 21                  0.62         0.00          2.58066
              P 2  -- In 19                  0.58         0.00          2.58204
              P 1  -- In 8                   0.58         0.00          2.58211
              P 9  -- In 12                  0.62        -0.00          2.58528
              P 8  -- In 11                  0.62         0.00          2.58528
              P 4  -- In 1                   0.60         0.00          2.58602
              P 17 -- In 1                   0.60         0.00          2.58602
              P 11 -- In 16                  0.65         0.00          2.58854
              P 11 -- In 27                  0.65         0.00          2.58855
              P 15 -- In 12                  0.58        -0.00          2.59475
              P 27 -- In 11                  0.58         0.00          2.59475
              P 1  -- In 5                   0.56        -0.00          2.60213
              P 2  -- In 17                  0.56        -0.00          2.60225
              P 13 -- In 29                  0.62         0.00          2.60662
              P 24 -- In 29                  0.62         0.00          2.60662
              P 9  -- In 10                  0.59         0.00          2.61368
              P 8  -- In 10                  0.59         0.00          2.61368
              P 3  -- In 10                  0.60         0.00          2.61469
              P 22 -- In 29                  0.61         0.00          2.62025
              P 11 -- In 2                   0.58        -0.00          2.66759
================================================================================

 Hirshfeld supercell size:           2           2           2
Standard grid dimensions: 240 240 240
Fine grid dimensions:     240 240 240


     Hirshfeld Analysis
     ------------------
Species   Ion     Hirshfeld Charge (e)  Spin (hbar/2)
===================================================
  P        1                -0.22        0.00
  P        2                -0.22        0.00
  P        3                -0.24       -0.00
  P        4                -0.24        0.00
  P        5                -0.23        0.00
  P        6                -0.23        0.00
  P        7                -0.24       -0.00
  P        8                -0.24       -0.00
  P        9                -0.24       -0.00
  P       10                -0.26        0.00
  P       11                -0.24       -0.00
  P       12                -0.24       -0.00
  P       13                -0.24       -0.00
  P       14                -0.24        0.00
  P       15                -0.23        0.00
  P       16                -0.23        0.00
  P       17                -0.24        0.00
  P       18                -0.23        0.00
  P       19                -0.24       -0.00
  P       20                -0.24        0.00
  P       21                -0.24        0.00
  P       22                -0.24       -0.00
  P       23                -0.23        0.00
  P       24                -0.24       -0.00
  P       25                -0.24       -0.00
  P       26                -0.24        0.00
  P       27                -0.23        0.00
  P       28                -0.24       -0.00
  P       29                -0.24       -0.00
  P       30                -0.24        0.00
  P       31                -0.24        0.00
  In       1                 0.23        0.00
  In       2                 0.27        0.00
  In       3                 0.23       -0.00
  In       4                 0.23       -0.00
  In       5                 0.24        0.00
  In       6                 0.24        0.00
  In       7                 0.24        0.00
  In       8                 0.20        0.00
  In       9                 0.24       -0.00
  In      10                 0.16       -0.00
  In      11                 0.23       -0.00
  In      12                 0.23       -0.00
  In      13                 0.24       -0.00
  In      14                 0.23       -0.00
  In      15                 0.24        0.00
  In      16                 0.24       -0.00
  In      17                 0.24        0.00
  In      18                 0.24        0.00
  In      19                 0.20        0.00
  In      20                 0.24        0.00
  In      21                 0.22        0.00
  In      22                 0.24        0.00
  In      23                 0.23        0.00
  In      24                 0.23        0.00
  In      25                 0.24       -0.00
  In      26                 0.23       -0.00
  In      27                 0.24       -0.00
  In      28                 0.24        0.00
  In      29                 0.16       -0.00
  In      30                 0.24       -0.00
  In      31                 0.24       -0.00
  In      32                 0.24       -0.00
===================================================

 
 A BibTeX formatted list of references used in this run has been written to 
 P_Vacancy_Migration_5->3_Singlepoints_2.bib
 
Initialisation time =     30.24 s
Calculation time    =   9244.00 s
Finalisation time   =    153.42 s
Total time          =   9427.65 s
Peak Memory Use     = 9618188 kB
 
Overall parallel efficiency rating: Terrible (33%)
 
Data was distributed by:-
G-vector (3-way); efficiency rating: Poor (36%)
k-point (36-way); efficiency rating: Very good (80%)
