96
Lattice="14.45404925834546 20.441112492360922 0.0 14.45404925834546 -20.441112492360922 0.0 -2.220446049250313e-16 0.0 4.1725246150929305" Properties=species:S:1:pos:R:3 core_positions="_JSON [[7.227024629172732, 0.0, 2.0862623075464652], [21.68107388751819, 0.0, 2.0862623075464652]]" burgers_vectors="_JSON [[-0.9834734833333334, 1.9669469666666668, -0.9834734833333334], [0.9834734833333334, -1.9669469666666668, 0.9834734833333334]]" dislocation_types="_JSON [\"1/6<112> 30 degree partial\", \"1/6<112> 30 degree partial\"]" dislocation_classes="_JSON [\"<class 'matscipy.dislocation.DiamondGlide30degreePartial'>\", \"<class 'matscipy.dislocation.DiamondGlide30degreePartial'>\"]" energy=-407.2453336557703 pbc="T T T"
In       9.85772631      -2.95837931       3.69625615
P       10.22864256      -0.44140791       3.08122219
In       6.16812839      -2.98574076       1.99951356
P        5.95073900      -0.41739054       2.11041778
In       8.13739915       0.68416351       2.43628593
P        8.28520879       3.14955583       2.25442695
In      11.47518647       0.49725161       0.95028738
P       11.83984218       2.98816109       0.40305253
In       7.05035021       3.94631123       0.15337651
P        7.15037768       6.46974547       0.07392088
In      10.73325184       3.92889690       2.46314741
P       10.78393089       6.45777108       2.27421501
In       9.57786951       7.28290324       0.16638618
P        9.65132975       9.82106083       0.00314212
In       5.93611057       7.28637983       2.14459720
P       20.46781283     -10.61843007       2.00879113
In       8.43946901      10.64327852       2.07028304
P       22.97234440      -7.26499474       1.89296213
In      12.06632730      10.67029293       0.07139865
P       12.12709569      13.21715463      -0.03648729
In      21.76571827      -6.42570769       3.95342372
P       21.82579262      -3.90857939       3.85270241
In      10.91641327      14.05631591       2.03783039
P       25.40144740      -3.84345692       2.00147948
In      17.10342688      -2.96694150       3.62748168
P       17.37831827      -0.44567058       3.29657735
In      13.49823959      -2.95546811       1.51105248
P       13.80426352      -0.43630984       1.08141617
In      15.03447865       0.44080726       3.12837688
P       15.42255767       2.94969018       2.60956289
In      18.65362763       0.38162398       1.17614013
P       19.03939478       2.89046367       0.52508302
In      14.26790265       3.84944066       0.50396470
P       14.37935722       6.40456750       0.26684853
In      17.86299026       3.79584069       2.59769668
P       17.98003696       6.36234813       2.35929310
In      16.80200414       7.24259686       0.26018584
P       16.88636137       9.80104826       0.11011650
In      13.20627601       7.28561518       2.33324424
P       13.27268088       9.83102515       2.17279341
In      15.69394005      10.66416403       2.18718380
P       15.75168848      13.21803036       2.09701695
In      19.30623846      10.64614554       0.06403245
P       19.38009066      13.21406209      -0.01228961
In      14.54217390      14.06191146       0.00497800
P       14.56104217      16.61407319      -0.00996054
In      18.16926551      14.06307364       2.07479368
P        3.75129043      -3.81539990       2.05972198
In      24.19012768      -2.98083125       4.07398666
P       24.12258083      -0.46381874       4.40819677
In      20.66506112      -2.99968279       1.75857943
P       20.92073338      -0.62149712       0.99433262
In      22.73865332       0.29315713       2.43525442
P       22.73189639       2.89093253       2.40026915
In      26.48143088       0.39742766       4.21605458
P       26.38563896       2.95530572       0.13149081
In      21.47853287       3.69537258       0.32678904
P       21.58428043       6.28832778       0.18095260
In      25.13608186       3.76699468       2.22897267
P       10.74051071     -14.10315535       2.16401230
In       9.53036795     -13.24952677       4.25180945
P        9.62267174     -10.67834807       4.16554703
In      20.40531268       7.18873677       2.26513998
P       20.48872939       9.76098980       2.15343061
In       8.43879417      -9.79316140       2.07850362
P        8.53028533      -7.22172414       1.99254570
In      12.03279429      -9.80621592       4.07822384
P       12.13308033      -7.24892015       3.92200083
In       7.33968186      -6.35023705       4.08284277
P        7.43282681      -3.76133832       4.06439255
In      10.94899120      -6.37003830       1.82531316
P       11.06331550      -3.80897929       1.62339015
In       2.51872757      -2.98200276       4.15149171
P        2.38616827      -0.42847251       0.04049197
In      13.34229031      17.45710643       2.07542042
P       27.71317387      -0.43525439       2.12801830
In       1.18540942       0.43093969       2.13170682
P       15.55143539     -17.45691770       2.15375326
In       4.74486365       0.47220926       0.02680175
P        4.69396833       3.01335583       0.07516495
In      14.33023386     -16.61506614       4.24119029
P       14.36426399     -14.06106886       4.18934060
In       3.48357060       3.86116688       2.15703825
P       17.98686733     -14.03527726       2.09714841
In      16.77434279     -13.19874821       4.17377461
P       16.84369357     -10.65039526       4.05912427
In      13.14840994     -13.22489106       2.09954154
P       13.22846765     -10.66757984       1.99863296
In      15.64064977      -9.80409873       1.96061467
P       15.73272296      -7.25686598       1.78374329
In      19.25667564      -9.79094326       4.07791958
P       19.34283108      -7.25506079       3.90326461
In      14.54881379      -6.38332050       3.85258268
P       14.67458574      -3.83505229       3.62160052
In      18.14745066      -6.39739863       1.79655909
P       18.25057271      -3.86802721       1.57628446
96
Lattice="14.45404925834546 20.441112492360922 0.0 14.45404925834546 -20.441112492360922 0.0 -2.220446049250313e-16 0.0 4.1725246150929305" Properties=species:S:1:pos:R:3 core_positions="_JSON [[7.227024629172732, 0.0, 2.0862623075464652], [21.68107388751819, 0.0, 2.0862623075464652]]" burgers_vectors="_JSON [[-0.9834734833333334, 1.9669469666666668, -0.9834734833333334], [0.9834734833333334, -1.9669469666666668, 0.9834734833333334]]" dislocation_types="_JSON [\"1/6<112> 30 degree partial\", \"1/6<112> 30 degree partial\"]" dislocation_classes="_JSON [\"<class 'matscipy.dislocation.DiamondGlide30degreePartial'>\", \"<class 'matscipy.dislocation.DiamondGlide30degreePartial'>\"]" energy=-407.24466570010884 pbc="T T T"
In       9.86475691      -2.95071901       3.69400887
P       10.23433347      -0.43185831       3.08815262
In       6.17403344      -2.97748869       1.99544542
P        5.95536822      -0.40947979       2.11205769
In       8.14058504       0.69205767       2.44815293
P        8.28296480       3.15792682       2.26827760
In      11.48055356       0.50561524       0.95818510
P       11.83658531       2.99914774       0.42119193
In       7.04769628       3.95453358       0.16677242
P        7.14780594       6.47809612       0.08589528
In      10.72971306       3.93915703       2.48134835
P       10.78065698       6.46804270       2.28931283
In       9.57460117       7.29345558       0.18117019
P        9.64961034       9.83144744       0.01196981
In       5.93337181       7.29450313       2.15618029
P       20.46686878     -10.61015972       2.01647969
In       8.43783337      10.65414329       2.07852669
P       22.97251289      -7.25421457       1.89310447
In      12.06449878      10.68139963       0.08092334
P       12.12771792      13.22777191      -0.03484117
In      21.76668081      -6.41350040       3.95285855
P       21.82874395      -3.89616215       3.83943624
In      10.91688425      14.06657765       2.03898224
P       25.40381234      -3.83365174       1.99690058
In      17.10846458      -2.95620592       3.62492093
P       17.38298620      -0.43444930       3.29479252
In      13.50506796      -2.94762570       1.51006041
P       13.81010459      -0.42740678       1.08454527
In      15.03845224       0.45170673       3.13194605
P       15.41804774       2.96352257       2.62725831
In      18.65567091       0.39591600       1.17480877
P       19.03383134       2.90743799       0.54144309
In      14.26344862       3.86225507       0.52187554
P       14.37547065       6.41712151       0.28284187
In      17.85724991       3.81117946       2.61445111
P       17.97587990       6.37696664       2.37448418
In      16.79756281       7.25690574       0.27544765
P       16.88505606       9.81446367       0.11911707
In      13.20228235       7.29794043       2.34915969
P       13.27109671       9.84277700       2.18268630
In      15.69225431      10.67679038       2.19589682
P       15.75348145      13.22991561       2.09798754
In      19.30572677      10.65814037       0.07048109
P       19.38351680      13.22537372      -0.01269681
In      14.54305284      14.07245512       0.00548904
P       14.56404028      16.62419386      -0.01393977
In      18.17207849      14.07346119       2.07397777
P        3.75624837      -3.80549506       2.05561155
In      24.19362975      -2.97016229       4.06880136
P       24.12203045      -0.45563694       4.41677582
In      20.66862000      -2.98631717       1.74328615
P       20.92489200      -0.60404107       0.98634686
In      22.72974902       0.30070448       2.45034256
P       22.72632648       2.89994402       2.41368508
In      26.48048927       0.40479796       4.21603148
P       26.38217014       2.96229692       0.13896718
In      21.47437212       3.70721983       0.34051520
P       21.58070220       6.30006571       0.19352361
In      25.13174971       3.77325950       2.23723455
P       10.73738430     -14.09637339       2.17236764
In       9.52807293     -13.24101306       4.26036592
P        9.62324472     -10.67002560       4.16964194
In      20.40200160       7.20148198       2.27789010
P       20.48840890       9.77307903       2.16013197
In       8.43986099      -9.78409817       2.08233922
P        8.53464464      -7.21296221       1.99116345
In      12.03424841      -9.79968583       4.08146899
P       12.13739599      -7.24232523       3.92187503
In       7.34436994      -6.34113204       4.08104462
P        7.43906087      -3.75246142       4.06051756
In      10.95413448      -6.36257140       1.82481557
P       11.06996421      -3.80126966       1.62135989
In       2.52257273      -2.97379487       4.14713832
P        2.38885482      -0.42072897       0.03987554
In      13.34465531      17.46642978       2.07110644
P       27.71377622      -0.42651438       2.12776735
In       1.18674882       0.43724471       2.13124754
P       15.54936887     -17.45085886       2.15914281
In       4.74802602       0.47901946       0.02846433
P        4.69232702       3.01991659       0.08296837
In      14.32730663     -16.60966365       4.24685927
P       14.36197982     -14.05553566       4.19592439
In       3.48143648       3.86707563       2.16483523
P       17.98482425     -14.02925116       2.10519006
In      16.77215227     -13.19308141       4.18153423
P       16.84398940     -10.64451693       4.06436082
In      13.14593358     -13.21948418       2.10609873
P       13.22910820     -10.66198503       2.00220441
In      15.64139340      -9.79796095       1.96545749
P       15.73652719      -7.25035956       1.78534862
In      19.25621483      -9.78219617       4.08516084
P       19.34478619      -7.24604484       3.90538505
In      14.55323479      -6.37630368       3.85387498
P       14.68079467      -3.82757803       3.62057512
In      18.15035203      -6.38760003       1.79837495
P       18.25481703      -3.85782239       1.57339229
96
Lattice="14.45404925834546 20.441112492360922 0.0 14.45404925834546 -20.441112492360922 0.0 -2.220446049250313e-16 0.0 4.1725246150929305" Properties=species:S:1:pos:R:3 core_positions="_JSON [[7.227024629172732, 0.0, 2.0862623075464652], [21.68107388751819, 0.0, 2.0862623075464652]]" burgers_vectors="_JSON [[-0.9834734833333334, 1.9669469666666668, -0.9834734833333334], [0.9834734833333334, -1.9669469666666668, 0.9834734833333334]]" dislocation_types="_JSON [\"1/6<112> 30 degree partial\", \"1/6<112> 30 degree partial\"]" dislocation_classes="_JSON [\"<class 'matscipy.dislocation.DiamondGlide30degreePartial'>\", \"<class 'matscipy.dislocation.DiamondGlide30degreePartial'>\"]" energy=-407.240601103598 pbc="T T T"
In       9.87141611      -2.94904986       3.69014973
P       10.23881087      -0.43029191       3.08042247
In       6.17984733      -2.97281821       1.99700159
P        5.95681143      -0.40515451       2.11710995
In       8.14252451       0.69587904       2.45231343
P        8.27802985       3.16209773       2.27319828
In      11.48362546       0.50749580       0.95081559
P       11.83110478       3.00350336       0.42440440
In       7.04240190       3.95874897       0.17146219
P        7.14352616       6.48230972       0.08660823
In      10.72436473       3.94326376       2.48445073
P       10.77699217       6.47190847       2.28899337
In       9.57063128       7.29788924       0.18033879
P        9.64791169       9.83559010       0.00390755
In       5.92894787       7.29896426       2.15667081
P       20.46562276     -10.60550690       2.01168472
In       8.43652228      10.66036584       2.06946009
P       22.97450480      -7.24787066       1.87331339
In      12.06444382      10.68157293       0.07702959
P       12.13238705      13.22713474      -0.04342111
In      21.76998512      -6.40386125       3.93147715
P       21.83975735      -3.88557003       3.78041454
In      10.92189658      14.06531801       2.02973749
P       25.41273701      -3.83659718       1.98616591
In      17.11543632      -2.95103749       3.60338599
P       17.38821714      -0.42829936       3.27521593
In      13.51241054      -2.94494246       1.49904227
P       13.81456675      -0.42376593       1.07654690
In      15.04042188       0.45654588       3.12498147
P       15.41170249       2.97011610       2.63304359
In      18.65520390       0.40841929       1.15575213
P       19.02356630       2.92219631       0.55678605
In      14.25685841       3.86733694       0.52715545
P       14.37307727       6.42150936       0.28587658
In      17.84763230       3.82317031       2.62921874
P       17.97279309       6.38671235       2.38483633
In      16.79414360       7.26554548       0.28485688
P       16.88599592       9.82183280       0.12286818
In      13.19920317       7.30096665       2.35153053
P       13.27189270       9.84502404       2.17965002
In      15.69239480      10.68223312       2.19879586
P       15.75766369      13.23464846       2.09658462
In      19.30745778      10.66468682       0.07863368
P       19.38808795      13.23141369      -0.00983144
In      14.54655670      14.07551979       0.00341077
P       14.57037586      16.62671239      -0.01367591
In      18.17633132      14.07891489       2.07639636
P        3.76187602      -3.80034510       2.05784302
In      24.20757637      -2.96972537       4.05625883
P       24.11991679      -0.46863656       4.47870953
In      20.67903875      -2.97541463       1.67586164
P       20.94132409      -0.56879907       0.97842815
In      22.68467596       0.28748025       2.54790279
P       22.71348703       2.89239203       2.44954841
In      26.47222315       0.39941318       4.23199491
P       26.37337760       2.95742529       0.16038346
In      21.46887496       3.71115724       0.37394487
P       21.57771658       6.30372139       0.21323758
In      25.12057345       3.76469806       2.26029005
P       10.73301047     -14.10240126       2.18698404
In       9.52683897     -13.24152549       4.27495236
P        9.62521599     -10.66981717       4.17739269
In      20.40079065       7.20822963       2.29640034
P       20.48990502       9.77918685       2.16906294
In       8.44297222      -9.78154775       2.08983174
P        8.54013335      -7.21003431       1.99376864
In      12.03643090      -9.79892317       4.08526690
P       12.14345271      -7.24117759       3.92102014
In       7.35001457      -6.33714265       4.08354271
P        7.44536886      -3.74812150       4.06182948
In      10.96034664      -6.36071912       1.82397327
P       11.07759593      -3.79918643       1.61717104
In       2.52777570      -2.96942577       4.14933297
P        2.38923723      -0.41695378       0.04868453
In      13.35057847      17.46839763       2.07129416
P       27.71199470      -0.42584077       2.14264507
In       1.18408712       0.43861000       2.14089947
P       15.54294237     -17.44959597       2.16986727
In       4.74842152       0.48294472       0.03358332
P        4.68727109       3.02371798       0.08911880
In      14.31767582     -16.61142334       4.25810988
P       14.35733122     -14.05666008       4.20437672
In       3.47492651       3.86961809       2.17114570
P       17.98042545     -14.02651505       2.10873959
In      16.76707269     -13.19113981       4.18510224
P       16.84398927     -10.64214991       4.06360361
In      13.14075152     -13.22136766       2.11477791
P       13.23016400     -10.66290200       2.00602798
In      15.64186641      -9.79512955       1.96465981
P       15.74276618      -7.24689510       1.77939957
In      19.25571391      -9.77670509       4.08016604
P       19.34882844      -7.23995741       3.89176919
In      14.55914290      -6.37335305       3.84808882
P       14.68919962      -3.82416028       3.60889350
In      18.15602278      -6.38043387       1.78447358
P       18.26436805      -3.84919888       1.55019431
96
Lattice="14.45404925834546 20.441112492360922 0.0 14.45404925834546 -20.441112492360922 0.0 -2.220446049250313e-16 0.0 4.1725246150929305" Properties=species:S:1:pos:R:3 core_positions="_JSON [[7.227024629172732, 0.0, 2.0862623075464652], [21.68107388751819, 0.0, 2.0862623075464652]]" burgers_vectors="_JSON [[-0.9834734833333334, 1.9669469666666668, -0.9834734833333334], [0.9834734833333334, -1.9669469666666668, 0.9834734833333334]]" dislocation_types="_JSON [\"1/6<112> 30 degree partial\", \"1/6<112> 30 degree partial\"]" dislocation_classes="_JSON [\"<class 'matscipy.dislocation.DiamondGlide30degreePartial'>\", \"<class 'matscipy.dislocation.DiamondGlide30degreePartial'>\"]" energy=-407.22172227014005 pbc="T T T"
In       9.87959439      -2.94784127       3.68738983
P       10.24393978      -0.42921348       3.07574842
In       6.18716672      -2.96750492       1.99601384
P        5.96109486      -0.40032345       2.11818881
In       8.14675174       0.69973226       2.45586293
P        8.27285765       3.16628228       2.27878338
In      11.48703433       0.50800437       0.94667530
P       11.82518628       3.00586141       0.42856087
In       7.03661237       3.96260914       0.17682392
P        7.13815049       6.48601810       0.08836904
In      10.71898042       3.94573074       2.48843152
P       10.77278652       6.47386513       2.28971976
In       9.56594848       7.30022289       0.18062121
P        9.64534656       9.83747421      -0.00337346
In       5.92330707       7.30284443       2.15823720
P       20.46346549     -10.60134554       2.00847698
In       8.43458117      10.66549769       2.06133625
P       22.97629837      -7.24249518       1.85384229
In      12.06512206      10.67508034       0.06924746
P       12.13987723      13.21907795      -0.06298929
In      21.77345427      -6.39366661       3.91089926
P       21.85589342      -3.87398927       3.71408578
In      10.93018860      14.05686494       2.00880492
P       25.42782383      -3.84849727       1.94624719
In      17.12577745      -2.94719599       3.58299146
P       17.39282243      -0.42232536       3.25711201
In      13.52193999      -2.94334314       1.49068485
P       13.81927766      -0.42113573       1.07271364
In      15.04069701       0.46087133       3.12261114
P       15.40425909       2.97516707       2.64036282
In      18.64966215       0.42539830       1.13815427
P       19.00955598       2.94085238       0.57694571
In      14.24929517       3.87047288       0.53373714
P       14.37099423       6.42335250       0.28876192
In      17.83458169       3.83830624       2.64825400
P       17.96879071       6.39883476       2.39704373
In      16.78962937       7.27545534       0.29564575
P       16.88684607       9.83007904       0.12482271
In      13.19621757       7.29995782       2.35355817
P       13.27390356       9.84259361       2.17305684
In      15.69222977      10.68738304       2.19943250
P       15.76268150      13.23873077       2.08751895
In      19.30787541      10.67552813       0.08762951
P       19.39279144      13.24077585      -0.01003258
In      14.55070333      14.07739594      -0.00704849
P       14.57934571      16.62770809      -0.02863156
In      18.18042023      14.08624815       2.07520258
P        3.76899222      -3.79388394       2.05284722
In      24.23227196      -2.97263759       4.01087313
P       24.12476384      -0.49710342       4.54072916
In      20.69849934      -2.96073022       1.60198489
P       20.96005703      -0.52095013       0.98923968
In      22.60696835       0.28002166       2.69415825
P       22.69174553       2.88741073       2.50428165
In      26.46203601       0.38821556       4.22853555
P       26.36055199       2.94793268       0.18801217
In      21.45887510       3.72552048       0.42599921
P       21.57277554       6.31557723       0.23967730
In      25.10426653       3.75176987       2.29205915
P       10.72688566     -14.11113849       2.20604386
In       9.52626062     -13.24082090       4.29410905
P        9.62741010     -10.66832147       4.18709066
In      20.39716350       7.22222858       2.32086623
P       20.49058650       9.79119440       2.17930317
In       8.44662843      -9.77703858       2.09909493
P        8.54637262      -7.20546809       1.99604539
In      12.03916314      -9.79786716       4.09067050
P       12.15061261      -7.23977217       3.92136034
In       7.35637646      -6.33180810       4.08543458
P        7.45276248      -3.74295059       4.06098367
In      10.96776570      -6.35852283       1.82425179
P       11.08704096      -3.79702487       1.61418424
In       2.53442032      -2.96442930       4.14358802
P        2.39313161      -0.41270007       0.04954108
In      13.35861208      17.46926007       2.05527616
P       27.71345839      -0.42656096       2.13952832
In       1.18345282       0.43923927       2.14231297
P       15.53472942     -17.44893187       2.18211053
In       4.75208904       0.48760823       0.03457106
P        4.68158901       3.02789315       0.09587423
In      14.30347245     -16.61563729       4.27169586
P       14.35074003     -14.05955791       4.21495937
In       3.46669513       3.87179652       2.17834010
P       17.97462959     -14.02411317       2.11348635
In      16.76000344     -13.19013164       4.18994618
P       16.84321628     -10.64046295       4.06438655
In      13.13371937     -13.22473320       2.12574454
P       13.23097246     -10.66473460       2.01148624
In      15.64201265      -9.79233610       1.96541207
P       15.75065273      -7.24310010       1.77550721
In      19.25433917      -9.77150064       4.07683894
P       19.35303861      -7.23365421       3.87958898
In      14.56635488      -6.37068169       3.84443077
P       14.70071487      -3.82095131       3.59967557
In      18.16317328      -6.37132993       1.77202418
P       18.28171312      -3.83755955       1.52749914
96
Lattice="14.45404925834546 20.441112492360922 0.0 14.45404925834546 -20.441112492360922 0.0 -2.220446049250313e-16 0.0 4.1725246150929305" Properties=species:S:1:pos:R:3 core_positions="_JSON [[7.227024629172732, 0.0, 2.0862623075464652], [21.68107388751819, 0.0, 2.0862623075464652]]" burgers_vectors="_JSON [[-0.9834734833333334, 1.9669469666666668, -0.9834734833333334], [0.9834734833333334, -1.9669469666666668, 0.9834734833333334]]" dislocation_types="_JSON [\"1/6<112> 30 degree partial\", \"1/6<112> 30 degree partial\"]" dislocation_classes="_JSON [\"<class 'matscipy.dislocation.DiamondGlide30degreePartial'>\", \"<class 'matscipy.dislocation.DiamondGlide30degreePartial'>\"]" energy=-407.1700902543845 pbc="T T T"
In       9.88375347      -2.94771576       3.68705125
P       10.24766774      -0.42992936       3.07475195
In       6.19176362      -2.96552780       1.99456898
P        5.96792187      -0.39863205       2.11625156
In       8.15191755       0.70188280       2.45741530
P        8.27133333       3.16829947       2.28170228
In      11.48852422       0.50706901       0.94588505
P       11.82221352       3.00508446       0.43024212
In       7.03499011       3.96417510       0.17970335
P        7.13568004       6.48708388       0.08981865
In      10.71720188       3.94538879       2.49014153
P       10.77099577       6.47271870       2.29068124
In       9.56391805       7.29880458       0.18158166
P        9.64376863       9.83526663      -0.00516626
In       5.92071463       7.30358168       2.15965728
P       20.46168269     -10.60063604       2.00856037
In       8.43321181      10.66542840       2.05939918
P       22.97578815      -7.24269994       1.84850861
In      12.06723824      10.66236067       0.06277259
P       12.14847670      13.20345444      -0.08396753
In      21.77245340      -6.39130130       3.90580002
P       21.86627341      -3.87038684       3.67852061
In      10.93894172      14.03979735       1.98603667
P       25.44467767      -3.87263491       1.88642186
In      17.13167926      -2.94860845       3.57464068
P       17.39285944      -0.42182415       3.24251015
In      13.52668022      -2.94364239       1.48870122
P       13.82110716      -0.42124299       1.07269459
In      15.03715970       0.46295123       3.12372241
P       15.39896170       2.97588889       2.64317314
In      18.63811914       0.43698097       1.12296173
P       18.99845239       2.95386945       0.58672986
In      14.24469623       3.87002079       0.53613763
P       14.37067126       6.42123012       0.28909248
In      17.82382855       3.84760963       2.65695022
P       17.96574341       6.40599662       2.40254804
In      16.78654170       7.28050735       0.30020014
P       16.88726187       9.83397473       0.12437129
In      13.19556319       7.29460199       2.35352837
P       13.27721630       9.83522998       2.16725906
In      15.69236108      10.68886354       2.19816071
P       15.76620216      13.23921920       2.07837566
In      19.30623952      10.68494389       0.09245073
P       19.39499876      13.24803501      -0.01160027
In      14.55383649      14.07702357      -0.01732435
P       14.58657201      16.62609221      -0.04934478
In      18.18224005      14.09045142       2.07284580
P        3.77392983      -3.79095391       2.04607381
In      24.25901589      -2.98691012       3.94161141
P       24.15563380      -0.53852357       4.52532597
In      20.71848033      -2.95035340       1.56315214
P       20.97321555      -0.47843928       1.01928403
In      22.48013321       0.29698699       2.87205483
P       22.66527033       2.89354262       2.55440813
In      26.46786404       0.37959746       4.20329449
P       26.35254906       2.94073089       0.21056693
In      21.44724290       3.75445397       0.47289655
P       21.56854098       6.33734941       0.25756389
In      25.08980670       3.73813707       2.31947113
P       10.72262119     -14.11919442       2.21893114
In       9.52882883     -13.23813024       4.30692979
P        9.62891518     -10.66555307       4.19294136
In      20.39127524       7.23901139       2.33667535
P       20.48971809       9.80453115       2.18505621
In       8.44885959      -9.77302736       2.10456188
P        8.54943622      -7.20196914       1.99715334
In      12.04097531      -9.79658277       4.09395442
P       12.15383325      -7.23863836       3.92226605
In       7.35964320      -6.32854055       4.08621647
P        7.45684510      -3.74048817       4.05984518
In      10.97136425      -6.35714109       1.82508877
P       11.09184227      -3.79607552       1.61376554
In       2.53926097      -2.96282522       4.13592161
P        2.40412047      -0.41133222       0.04147737
In      13.36323496      17.46846066       2.03272789
P       27.72758394      -0.42837991       2.11612024
In       1.19194067       0.43855989       2.13360273
P       15.53163381     -17.44850298       2.19069059
In       4.76108046       0.49061390       0.03256016
P        4.68034952       3.03022999       0.09994887
In      14.29439282     -16.61763526       4.28200446
P       14.34695086     -14.06059411       4.22120934
In       3.46332098       3.87278997       2.18286658
P       17.97185889     -14.02310158       2.11641303
In      16.75632509     -13.19015841       4.19296176
P       16.84181148     -10.64026086       4.06577001
In      13.12861111     -13.22765536       2.13221269
P       13.23066504     -10.66627608       2.01483889
In      15.64130322      -9.79143741       1.96676362
P       15.75428770      -7.24136120       1.77530733
In      19.25267826      -9.77083120       4.07696310
P       19.35259069      -7.23211718       3.87579567
In      14.56953580      -6.37002838       3.84435572
P       14.70711581      -3.82005823       3.59720432
In      18.16632823      -6.36629786       1.76798419
P       18.29721869      -3.82911231       1.51764540
96