96
Lattice="14.45404925834546 20.441112492360922 0.0 14.45404925834546 -20.441112492360922 0.0 -2.220446049250313e-16 0.0 4.1725246150929305" Properties=species:S:1:pos:R:3 core_positions="_JSON [[7.227024629172732, 0.0, 2.0862623075464652], [21.68107388751819, 0.0, 2.0862623075464652]]" burgers_vectors="_JSON [[-0.9834734833333334, -0.9834734833333334, 1.9669469666666668], [0.9834734833333334, 0.9834734833333334, -1.9669469666666668]]" dislocation_types="_JSON [\"1/6<112> 90 degree partial\", \"1/6<112> 90 degree partial\"]" dislocation_classes="_JSON [\"<class 'matscipy.dislocation.DiamondGlide90degreePartial'>\", \"<class 'matscipy.dislocation.DiamondGlide90degreePartial'>\"]" energy=-406.67876953940674 pbc="T T T"
In       9.22206614      -3.03885350       0.00000000
P        8.53582666      -0.62466635      -0.00000000
In       5.78602557      -2.99426476       2.08626231
P        6.20591487      -0.51293987       2.08626231
In       9.63902892       0.25454242       2.08626231
P        8.89090229       2.77744187       2.08626231
In      13.26332587       0.40588684       0.00000000
P       12.51211397       2.90304783       0.00000000
In       7.60618248       3.58994172       0.00000000
P        7.39850583       6.21812231       0.00000000
In      11.24918643       3.75569380       2.08626231
P       10.99859820       6.32832222       2.08626231
In       9.76094495       7.18359134       0.00000000
P        9.60082200       9.76698786       0.00000000
In       6.20666569       7.15016578       2.08626231
P       20.48813722     -10.70132578       2.08626231
In       8.40060718      10.67974156       2.08626231
P       22.70092402      -7.17483090       2.08626231
In      11.98718083      10.65188533       0.00000000
P       11.86511401      13.21792614       0.00000000
In      21.49898777      -6.24675604       0.00000000
P       21.37082139      -3.64150587       0.00000000
In      10.65729055      14.10093106       2.08626231
P       25.06573133      -3.77516963       2.08626231
In      16.36719804      -2.94929196       0.00000000
P       15.73684604      -0.44883573       0.00000000
In      12.75779653      -2.99853530       2.08626231
P       12.18634453      -0.50695374       2.08626231
In      16.83775634       0.47307773       2.08626231
P       16.10039582       2.95632626       2.08626231
In      20.41439803       0.64099367       0.00000000
P       19.61383312       3.10201052       0.00000000
In      14.87802406       3.82446184       0.00000000
P       14.61025364       6.38322243       0.00000000
In      18.42319807       3.94596681       2.08626231
P       18.21170728       6.48508423       2.08626231
In      16.97688766       7.29247467       0.00000000
P       16.81111214       9.83264814       0.00000000
In      13.37703352       7.22776160       2.08626231
P       13.20550184       9.78858377       2.08626231
In      15.58994167      10.66874828       2.08626231
P       15.47210777      13.21626325       2.08626231
In      19.21071361      10.65845551       0.00000000
P       19.06192108      13.18615097       0.00000000
In      14.26542353      14.07266697       0.00000000
P       14.24768301      16.62552061       0.00000000
In      17.87407074      14.06059556       2.08626231
P        3.37648758      -3.84769354       2.08626231
In      23.85402944      -2.89555542       0.00000000
P       24.06598946      -0.34810522       0.00000000
In      20.03358800      -2.86705807       2.08626231
P       19.31252547      -0.38333226       2.08626231
In      22.80016205       0.56472570       2.08626231
P       23.11861658       3.12832299       2.08626231
In      26.52136933       0.44882886       0.00000000
P       12.26144669     -17.44518796       0.00000000
In      21.96020532       4.02854289       0.00000000
P       21.83768186       6.55139649       0.00000000
In      25.54307149       3.86930119       2.08626231
P       11.01285175     -14.01699433       2.08626231
In       9.81103192     -13.15785972       0.00000000
P        9.65832264     -10.62388271       0.00000000
In      20.59981061       7.33473451       2.08626231
P       20.45193786       9.86362888       2.08626231
In       8.42439229      -9.81383255       2.08626231
P        8.25184081      -7.29144587       2.08626231
In      12.06617632      -9.80785691       0.00000000
P       11.87292105      -7.27188123       0.00000000
In       7.02174664      -6.46962833       0.00000000
P        6.87822007      -3.97494635       0.00000000
In      10.64300070      -6.43434508       2.08626231
P       10.42020530      -3.91996442       2.08626231
In      16.66598370      17.47087817       0.00000000
P        2.44748873      -0.43814018       0.00000000
In      13.04730494      17.48976227       2.08626231
P       27.72490589      -0.40426807       2.08626231
In       1.26967025       0.40874985       2.08626231
P       15.89409268     -17.47374874       2.08626231
In       4.98137099       0.28159978       0.00000000
P        5.11529359       2.86967852       0.00000000
In      14.68659977     -16.62400146       0.00000000
P       14.62688158     -14.06400915       0.00000000
In       3.90641201       3.74584560       2.08626231
P       18.24376125     -14.11939947       2.08626231
In      17.04105164     -13.23432212       0.00000000
P       16.90228062     -10.66748965       0.00000000
In      13.42198487     -13.20064739       2.08626231
P       13.28619944     -10.65096239       2.08626231
In      15.68712420      -9.79996626       2.08626231
P       15.49398911      -7.24554876       2.08626231
In      19.29657544      -9.78202997       0.00000000
P       19.12476258      -7.20217585       0.00000000
In      14.25869082      -6.39778261       0.00000000
P       13.99885346      -3.85606471       0.00000000
In      17.88002118      -6.34911698       2.08626231
P       17.64874662      -3.78806342       2.08626231
96
Lattice="14.45404925834546 20.441112492360922 0.0 14.45404925834546 -20.441112492360922 0.0 -2.220446049250313e-16 0.0 4.1725246150929305" Properties=species:S:1:pos:R:3 core_positions="_JSON [[7.227024629172732, 0.0, 2.0862623075464652], [21.68107388751819, 0.0, 2.0862623075464652]]" burgers_vectors="_JSON [[-0.9834734833333334, -0.9834734833333334, 1.9669469666666668], [0.9834734833333334, 0.9834734833333334, -1.9669469666666668]]" dislocation_types="_JSON [\"1/6<112> 90 degree partial\", \"1/6<112> 90 degree partial\"]" dislocation_classes="_JSON [\"<class 'matscipy.dislocation.DiamondGlide90degreePartial'>\", \"<class 'matscipy.dislocation.DiamondGlide90degreePartial'>\"]" energy=-406.6758811574996 pbc="T T T"
In       9.22055496      -3.03617313       0.00175988
P        8.54697787      -0.61991301       0.00906849
In       5.78053805      -2.99199228       2.08384366
P        6.20585276      -0.51326758       2.07701756
In       9.66312002       0.24351876       2.09329398
P        8.91383534       2.76582742       2.08775656
In      13.29518731       0.39702237       0.00145080
P       12.54047985       2.89248398       0.00058723
In       7.62547366       3.57278648       0.00101051
P        7.41609639       6.20117668       0.00032063
In      11.27442351       3.74058639       2.08680368
P       11.01955272       6.31256331       2.08641277
In       9.77955264       7.16388025       0.00012867
P        9.61380460       9.74714809       0.00004613
In       6.22396792       7.13326787       2.08649268
P       20.49983267     -10.71861842       2.08634557
In       8.41305351      10.65831185       2.08630455
P       22.70714488      -7.19602330       2.08630179
In      11.99732176      10.63840690       0.00001908
P       11.86683012      13.20539619      -0.00000107
In      21.50598672      -6.26885214       0.00004375
P       21.37517713      -3.66253617       0.00008637
In      10.65927577      14.08901426       2.08626208
P       25.06202574      -3.78498216       2.08623091
In      16.37916891      -2.95706101       0.00027424
P       15.76933363      -0.45332947       0.00051845
In      12.76518319      -3.00190518       2.08699157
P       12.21135856      -0.50887500       2.08806964
In      16.87572611       0.46418356       2.08669823
P       16.12906502       2.94580473       2.08652010
In      20.44960890       0.63894543       0.00021154
P       19.63777993       3.09767907       0.00007237
In      14.90663076       3.81422843       0.00026217
P       14.63132406       6.37260567       0.00006532
In      18.44807345       3.94347504       2.08633654
P       18.23029653       6.48236491       2.08627421
In      16.99490457       7.28862710       0.00001141
P       16.81989704       9.82881959      -0.00001106
In      13.39674722       7.21525144       2.08632100
P       13.21657570       9.77622005       2.08628247
In      15.59771032      10.66411637       2.08625150
P       15.47161583      13.21211413       2.08621276
In      19.21585581      10.66367064      -0.00003063
P       19.06137186      13.19071785      -0.00013081
In      14.26370550      14.06817693      -0.00004692
P       14.24051926      16.62196785      -0.00014565
In      17.87116530      14.06283669       2.08615025
P        3.37067831      -3.84606169       2.08589472
In      23.85163631      -2.90462428      -0.00002789
P       24.07334389      -0.35356976      -0.00020428
In      20.04395894      -2.88165926       2.08636491
P       19.35010314      -0.39038043       2.08651001
In      22.82639006       0.57956252       2.08608916
P       23.13937112       3.14177862       2.08624855
In      26.52578582       0.45331725      -0.00035759
P       12.27487247     -17.44029157      -0.00019160
In      21.97777838       4.03873355       0.00000260
P       21.85185641       6.56106306      -0.00002665
In      25.56341114       3.88352033       2.08610607
P       11.02708084     -14.00401166       2.08615716
In       9.82424698     -13.14561547      -0.00009597
P        9.66576124     -10.61243906      -0.00015771
In      20.61370013       7.34353729       2.08624106
P       20.45899726       9.87155440       2.08622403
In       8.43057158      -9.80342997       2.08608676
P        8.25385461      -7.28206768       2.08563428
In      12.07470834      -9.79992222      -0.00001379
P       11.87744903      -7.26466288       0.00019933
In       7.02089858      -6.46366563      -0.00076206
P        6.87570111      -3.97018839      -0.00216646
In      10.64623298      -6.42728406       2.08650812
P       10.42326995      -3.91382567       2.08777283
In      16.65784660      17.47007617      -0.00037288
P        2.44420449      -0.43983178      -0.00165093
In      13.04039504      17.48744276       2.08611556
P       27.72356068      -0.40569073       2.08582823
In       1.26796324       0.40790147       2.08498641
P       15.90597425     -17.47522152       2.08573185
In       4.97949161       0.27608187      -0.00695749
P        5.12985711       2.86282378      -0.00120971
In      14.70105093     -16.62235110      -0.00042158
P       14.63955312     -14.06193176      -0.00016830
In       3.92105739       3.73853338       2.08533736
P       18.25818802     -14.12703753       2.08600030
In      17.05591823     -13.24052982      -0.00021152
P       16.91186583     -10.67394223      -0.00001359
In      13.43759395     -13.19289501       2.08612669
P       13.29518222     -10.64405781       2.08623704
In      15.69871977      -9.80196568       2.08626168
P       15.50097437      -7.24806583       2.08639933
In      19.30849999      -9.79807780       0.00006683
P       19.13091989      -7.21806444       0.00008621
In      14.26618539      -6.39847244       0.00015598
P       14.00801647      -3.85715510       0.00063187
In      17.88940126      -6.35977307       2.08635427
P       17.65864219      -3.79812963       2.08649655
96
Lattice="14.45404925834546 20.441112492360922 0.0 14.45404925834546 -20.441112492360922 0.0 -2.220446049250313e-16 0.0 4.1725246150929305" Properties=species:S:1:pos:R:3 core_positions="_JSON [[7.227024629172732, 0.0, 2.0862623075464652], [21.68107388751819, 0.0, 2.0862623075464652]]" burgers_vectors="_JSON [[-0.9834734833333334, -0.9834734833333334, 1.9669469666666668], [0.9834734833333334, 0.9834734833333334, -1.9669469666666668]]" dislocation_types="_JSON [\"1/6<112> 90 degree partial\", \"1/6<112> 90 degree partial\"]" dislocation_classes="_JSON [\"<class 'matscipy.dislocation.DiamondGlide90degreePartial'>\", \"<class 'matscipy.dislocation.DiamondGlide90degreePartial'>\"]" energy=-406.6558994607211 pbc="T T T"
In       9.21365354      -3.02341151       0.00153482
P        8.55320077      -0.60521669       0.00770563
In       5.76834211      -2.97995162       2.08409207
P        6.19104401      -0.50277133       2.07843042
In       9.68254360       0.24187677       2.09232876
P        8.92541195       2.76271939       2.08758631
In      13.33145396       0.39794678       0.00134310
P       12.55873079       2.88931353       0.00056703
In       7.63180977       3.56236859       0.00090366
P        7.42226727       6.19145453       0.00030060
In      11.28923625       3.73346890       2.08678734
P       11.02967308       6.30495465       2.08641944
In       9.78712036       7.15147881       0.00013617
P        9.61936568       9.73440796       0.00005306
In       6.22922586       7.12250997       2.08648342
P       20.50227444     -10.72980094       2.08634841
In       8.41720091      10.64149823       2.08631136
P       22.70700365      -7.21364938       2.08630907
In      12.00006693      10.63320378       0.00002306
P       11.86234894      13.20108994       0.00000114
In      21.50322157      -6.29420257       0.00005132
P       21.36469823      -3.68775595       0.00009624
In      10.65427366      14.08360649       2.08626483
P       25.04486776      -3.78766886       2.08623374
In      16.38470307      -2.95351220       0.00028098
P       15.81002923      -0.44494675       0.00050303
In      12.76708692      -2.99249279       2.08695738
P       12.23605410      -0.49763892       2.08790705
In      16.92892655       0.46204798       2.08669298
P       16.14674124       2.93741342       2.08652043
In      20.51015775       0.63878690       0.00021589
P       19.64717510       3.08685422       0.00007706
In      14.92583396       3.81068278       0.00026180
P       14.64098143       6.36885028       0.00007254
In      18.46197092       3.94233529       2.08634149
P       18.23790569       6.48175784       2.08627739
In      17.00252055       7.28797251       0.00001472
P       16.82053254       9.82940213      -0.00001210
In      13.40577747       7.21080162       2.08632842
P       13.22006487       9.77223549       2.08628633
In      15.59874101      10.66629895       2.08625057
P       15.46529051      13.21537239       2.08620721
In      19.21097288      10.67827406      -0.00003873
P       19.05453526      13.20473123      -0.00014322
In      14.25627447      14.07180981      -0.00005246
P       14.22234816      16.62685292      -0.00015239
In      17.86206615      14.07447243       2.08613571
P        3.35703465      -3.83514495       2.08589484
In      23.82955995      -2.91539581      -0.00002458
P       24.06325328      -0.35421705      -0.00019294
In      20.04520963      -2.89342846       2.08637529
P       19.40606700      -0.38972599       2.08651528
In      22.87400535       0.63618614       2.08610110
P       23.15304445       3.19130469       2.08624995
In      26.50940059       0.46639427      -0.00035894
P       12.27439831     -17.42568161      -0.00019592
In      21.97000379       4.06384310       0.00000438
P       21.85102688       6.58467979      -0.00002943
In      25.58117407       3.92211703       2.08610000
P       11.03323596     -13.97048405       2.08615048
In       9.82377646     -13.12189358      -0.00010275
P        9.66351483     -10.58971793      -0.00016178
In      20.61243600       7.36433156       2.08623824
P       20.45614071       9.89079153       2.08621646
In       8.42726772      -9.78269123       2.08608365
P        8.24990740      -7.26244263       2.08566993
In      12.07424644      -9.78195515      -0.00002103
P       11.87548969      -7.24724751       0.00018254
In       7.01403705      -6.44800131      -0.00071330
P        6.86739240      -3.95567937      -0.00194955
In      10.64363798      -6.40971765       2.08648523
P       10.42168134      -3.89717255       2.08758885
In      16.64002018      17.47730092      -0.00036852
P        2.42186367      -0.43304348      -0.00151472
In      13.02085872      17.49272523       2.08610953
P       27.70008647      -0.39874129       2.08583603
In       1.24449318       0.41276877       2.08506187
P       15.90363937     -17.47139355       2.08574861
In       4.95996004       0.27732546      -0.00598567
P        5.13066363       2.86275551      -0.00108013
In      14.70279244     -16.61515475      -0.00041837
P       14.64112391     -14.05322454      -0.00017385
In       3.92172429       3.73687985       2.08541241
P       18.26066802     -14.12866077       2.08601423
In      17.05931177     -13.24075562      -0.00020529
P       16.91076955     -10.67384532      -0.00001183
In      13.44746784     -13.17157293       2.08611872
P       13.29636468     -10.62475147       2.08623074
In      15.70269893      -9.79313706       2.08626256
P       15.49986463      -7.24004118       2.08640321
In      19.30983748      -9.80988124       0.00007117
P       19.12579299      -7.22981582       0.00009479
In      14.26662662      -6.38753392       0.00015914
P       14.01113343      -3.84644792       0.00060831
In      17.89070947      -6.36170098       2.08636325
P       17.65923487      -3.79990730       2.08650551
96
Lattice="14.45404925834546 20.441112492360922 0.0 14.45404925834546 -20.441112492360922 0.0 -2.220446049250313e-16 0.0 4.1725246150929305" Properties=species:S:1:pos:R:3 core_positions="_JSON [[7.227024629172732, 0.0, 2.0862623075464652], [21.68107388751819, 0.0, 2.0862623075464652]]" burgers_vectors="_JSON [[-0.9834734833333334, -0.9834734833333334, 1.9669469666666668], [0.9834734833333334, 0.9834734833333334, -1.9669469666666668]]" dislocation_types="_JSON [\"1/6<112> 90 degree partial\", \"1/6<112> 90 degree partial\"]" dislocation_classes="_JSON [\"<class 'matscipy.dislocation.DiamondGlide90degreePartial'>\", \"<class 'matscipy.dislocation.DiamondGlide90degreePartial'>\"]" energy=-406.58405917952336 pbc="T T T"
In       9.20953552      -3.01944607       0.00124407
P        8.55545695      -0.60039477       0.00607477
In       5.76032373      -2.97620644       2.08446242
P        6.17354588      -0.49867592       2.08007351
In       9.69120029       0.23889665       2.09111131
P        8.92949677       2.75952017       2.08734724
In      13.35744106       0.39627528       0.00113778
P       12.56830208       2.88503513       0.00049554
In       7.63205114       3.55442212       0.00074522
P        7.42373347       6.18397484       0.00025622
In      11.29621539       3.72729531       2.08672261
P       11.03370641       6.29882155       2.08640596
In       9.78966180       7.14242065       0.00012542
P        9.62207658       9.72467063       0.00005071
In       6.22989047       7.11368159       2.08645384
P       20.50237298     -10.73938288       2.08634038
In       8.41878444      10.62761885       2.08630930
P       22.70643547      -7.22952456       2.08630705
In      12.00133442      10.62754735       0.00002328
P       11.86018852      13.19572678       0.00000542
In      21.49615965      -6.32426320       0.00004855
P       21.34353044      -3.72069610       0.00008787
In      10.65123390      14.07427436       2.08626978
P       25.02951283      -3.79449284       2.08625088
In      16.38577769      -2.95198248       0.00025274
P       15.84425402      -0.43894790       0.00043362
In      12.76705000      -2.98832520       2.08686357
P       12.25166133      -0.49188893       2.08763806
In      16.97710949       0.45788513       2.08663672
P       16.15641438       2.92720616       2.08649119
In      20.58983839       0.61921706       0.00017216
P       19.64610393       3.05208058       0.00006856
In      14.93662238       3.80618926       0.00023211
P       14.64469507       6.36417253       0.00006813
In      18.47187074       3.93023432       2.08633351
P       18.24232146       6.47065218       2.08627716
In      17.00725088       7.27883127       0.00001469
P       16.82040486       9.82228407      -0.00001092
In      13.40947734       7.20629148       2.08632494
P       13.22175039       9.76792100       2.08628626
In      15.60005350      10.66317617       2.08625181
P       15.46178026      13.21365389       2.08621142
In      19.20630114      10.68250705      -0.00003815
P       19.05015506      13.20890620      -0.00013353
In      14.25255858      14.07165867      -0.00004848
P       14.20785254      16.62810150      -0.00013374
In      17.85687704      14.07850831       2.08614258
P        3.34711768      -3.83127242       2.08594014
In      23.79726065      -2.95256360      -0.00000684
P       24.02370716      -0.36920636      -0.00012058
In      20.03984045      -2.90603283       2.08636389
P       19.46510803      -0.39148813       2.08646355
In      22.97772352       0.73086085       2.08616432
P       23.16792207       3.26407009       2.08625240
In      26.46529650       0.46472950      -0.00031987
P       12.26762819     -17.42326204      -0.00017168
In      21.94023535       4.07956274       0.00000384
P       21.84493636       6.59740143      -0.00002694
In      25.60693082       3.96407694       2.08612007
P       11.03968380     -13.93878123       2.08616073
In       9.81894225     -13.11048119      -0.00009384
P        9.66003708     -10.57927992      -0.00014609
In      20.60730109       7.37494229       2.08624000
P       20.45263336       9.89923916       2.08621807
In       8.42352029      -9.77415063       2.08610168
P        8.24714292      -7.25479845       2.08575345
In      12.07237736      -9.77531099      -0.00002245
P       11.87350166      -7.24084366       0.00015346
In       7.00974125      -6.44276258      -0.00060955
P        6.86218316      -3.95088756      -0.00162158
In      10.64161869      -6.40337330       2.08644817
P       10.42064608      -3.89128340       2.08734459
In      16.62756949      17.48005965      -0.00031823
P        2.39357668      -0.42963874      -0.00128383
In      13.00561152      17.49418043       2.08612943
P       27.65942001      -0.39548151       2.08588637
In       1.20913769       0.41033581       2.08522603
P       15.89709785     -17.47583513       2.08581430
In       4.93803094       0.27466729      -0.00479728
P        5.12706975       2.85920247      -0.00089227
In      14.70070480     -16.61882014      -0.00037091
P       14.64080520     -14.05440211      -0.00015801
In       3.91769360       3.73127121       2.08554394
P       18.26021354     -14.13385464       2.08604786
In      17.05949646     -13.24568811      -0.00018054
P       16.90767835     -10.67829064      -0.00000984
In      13.45854580     -13.15719079       2.08613001
P       13.29744317     -10.61347184       2.08623097
In      15.70514803      -9.78929616       2.08626283
P       15.49722937      -7.23717962       2.08639004
In      19.30774114      -9.82247769       0.00006562
P       19.11658191      -7.24339984       0.00008886
In      14.26526823      -6.38303726       0.00014359
P       14.01168554      -3.84180274       0.00052973
In      17.88891611      -6.36480688       2.08635683
P       17.65477907      -3.80358376       2.08648281
96
Lattice="14.45404925834546 20.441112492360922 0.0 14.45404925834546 -20.441112492360922 0.0 -2.220446049250313e-16 0.0 4.1725246150929305" Properties=species:S:1:pos:R:3 core_positions="_JSON [[7.227024629172732, 0.0, 2.0862623075464652], [21.68107388751819, 0.0, 2.0862623075464652]]" burgers_vectors="_JSON [[-0.9834734833333334, -0.9834734833333334, 1.9669469666666668], [0.9834734833333334, 0.9834734833333334, -1.9669469666666668]]" dislocation_types="_JSON [\"1/6<112> 90 degree partial\", \"1/6<112> 90 degree partial\"]" dislocation_classes="_JSON [\"<class 'matscipy.dislocation.DiamondGlide90degreePartial'>\", \"<class 'matscipy.dislocation.DiamondGlide90degreePartial'>\"]" energy=-406.40113565180343 pbc="T T T"
In       9.20868661      -3.01850941       0.00120506
P        8.55640032      -0.59925895       0.00581624
In       5.75779884      -2.97539307       2.08450805
P        6.16509942      -0.49722395       2.08032114
In       9.69342098       0.23827535       2.09093682
P        8.93068671       2.75915611       2.08731654
In      13.36802505       0.39615461       0.00111434
P       12.57233082       2.88422007       0.00048895
In       7.63195240       3.55262958       0.00072471
P        7.42417106       6.18217841       0.00025120
In      11.29867282       3.72585337       2.08671668
P       11.03502527       6.29751889       2.08640498
In       9.79048959       7.14024834       0.00012471
P        9.62315755       9.72203793       0.00005053
In       6.23004415       7.11120730       2.08645082
P       20.50274430     -10.74239244       2.08633970
In       8.41972709      10.62305057       2.08630909
P       22.70658124      -7.23537398       2.08630658
In      12.00190986      10.62589301       0.00002363
P       11.85996271      13.19440166       0.00000753
In      21.49084254      -6.34181670       0.00004778
P       21.32632989      -3.74345468       0.00008550
In      10.65090645      14.06843484       2.08627235
P       25.02425265      -3.79716257       2.08626191
In      16.38636570      -2.95173326       0.00024971
P       15.86199006      -0.43613010       0.00042233
In      12.76727538      -2.98694545       2.08685417
P       12.25791575      -0.48965821       2.08760525
In      16.99968030       0.45815171       2.08662728
P       16.16196838       2.92492213       2.08648832
In      20.64355679       0.59246801       0.00014981
P       19.64576899       3.01659279       0.00006733
In      14.94086260       3.80601313       0.00022935
P       14.64611209       6.36351870       0.00006781
In      18.48014824       3.91987618       2.08633261
P       18.24617144       6.46076809       2.08627721
In      17.01062640       7.27231136       0.00001478
P       16.82090870       9.81726722      -0.00001078
In      13.41071676       7.20561925       2.08632473
P       13.22255473       9.76720645       2.08628652
In      15.60135928      10.66132363       2.08625195
P       15.46098826      13.21279826       2.08621148
In      19.20494001      10.68251729      -0.00003815
P       19.04901853      13.20921819      -0.00013322
In      14.25196665      14.07169896      -0.00004853
P       14.20166891      16.62949794      -0.00013040
In      17.85568904      14.07977775       2.08614256
P        3.34336076      -3.82967097       2.08594573
In      23.77333149      -3.00079928       0.00000511
P       23.93100100      -0.38865783      -0.00006818
In      20.03606000      -2.91265529       2.08636004
P       19.50278408      -0.39356891       2.08643532
In      23.16091649       0.83681416       2.08620621
P       23.17786019       3.32860761       2.08625267
In      26.40211855       0.45584872      -0.00032491
P       12.25823992     -17.42406535      -0.00016186
In      21.91006856       4.08575004       0.00000253
P       21.84162585       6.59904638      -0.00002654
In      25.62692834       3.99701194       2.08612961
P       11.04387000     -13.91739250       2.08616275
In       9.81603233     -13.10646197      -0.00009247
P        9.65829162     -10.57608645      -0.00014466
In      20.60517136       7.37789360       2.08624026
P       20.45153062       9.90051067       2.08621818
In       8.42195464      -9.77187153       2.08610333
P        8.24639902      -7.25296571       2.08576217
In      12.07154573      -9.77360620      -0.00002263
P       11.87290340      -7.23917523       0.00015069
In       7.00859725      -6.44167040      -0.00059838
P        6.86086683      -3.94980911      -0.00158266
In      10.64106349      -6.40186202       2.08644430
P       10.42080414      -3.88987277       2.08731347
In      16.62367581      17.48217416      -0.00030991
P        2.37495304      -0.42609717      -0.00126715
In      13.00165249      17.49568637       2.08613388
P       27.61639982      -0.39137731       2.08588002
In       1.18289369       0.40927364       2.08523411
P       15.89223648     -17.47936344       2.08582191
In       4.92778843       0.27409862      -0.00463819
P        5.12515920       2.85808356      -0.00086841
In      14.70106723     -16.62206639      -0.00036663
P       14.64096367     -14.05647192      -0.00015669
In       3.91537503       3.72872082       2.08555807
P       18.26009080     -14.13600990       2.08605088
In      17.05989387     -13.24749368      -0.00017862
P       16.90639967     -10.68008156      -0.00000961
In      13.46566358     -13.14986609       2.08613089
P       13.29853692     -10.60850966       2.08623100
In      15.70643642      -9.78761690       2.08626291
P       15.49607115      -7.23603568       2.08638924
In      19.30671747      -9.82784752       0.00006526
P       19.11076440      -7.25028194       0.00008858
In      14.26469334      -6.38153336       0.00014254
P       14.01234464      -3.84000227       0.00052238
In      17.88778037      -6.36575011       2.08635651
P       17.65249636      -3.80468311       2.08648074
96