96
Lattice="14.644920365034478 20.711046147942152 0.0 14.644920365034478 -20.711046147942152 0.0 0.0 0.0 4.227624853803599" Properties=species:S:1:pos:R:3:x_err:R:1:y_err:R:1:z_err:R:1:total_err:R:1:forces:R:3 energy=-407.5959408189879 free_energy=-407.5959408189879 stress="-0.000303559679697932 -0.008481973495998675 0.00018858551056619366 -0.008481973495998675 -0.0010507235293343038 0.000275945975543981 0.00018858551056619366 0.000275945975543981 0.003469808289963224" pbc="T T T"
P       10.37058397      -0.44534522       3.08353317       0.00424434      -0.00251748      -0.02436749       0.02486216       0.00057876       0.00028986       0.00008280
P        6.03983507      -0.40577307       2.16148613      -0.00069223       0.00303417       0.01379199       0.01413875      -0.00034633       0.00047009      -0.00055108
P        8.38359367       3.19418696       2.31637752      -0.00127590      -0.00207362       0.00946393       0.00977209       0.00043316      -0.00041968       0.00001099
P       11.98440859       3.04746153       0.43221190       0.00021140       0.00124679      -0.00394402       0.00414179      -0.00020373       0.00009255      -0.00020498
P        7.24651608       6.55664676       0.09312317      -0.00112097      -0.00274156       0.00350635       0.00458991       0.00027467      -0.00002672       0.00005113
P       10.92360706       6.54736662       2.32101305      -0.00034546      -0.00021727      -0.00272721       0.00275757      -0.00000618      -0.00005632      -0.00003935
P        9.77955221       9.95120070       0.02460400      -0.00005434       0.00060936      -0.00149309       0.00161356       0.00032945       0.00016247      -0.00012469
P       20.74068976     -10.76465359       2.05362677      -0.00081017      -0.00105257       0.00139026       0.00192278       0.00015354       0.00029074      -0.00005217
P       23.27624142      -7.36948005       1.95968601       0.00047518       0.00079501      -0.00152074       0.00178059      -0.00014419      -0.00001529      -0.00004542
P       12.28425715      13.39196609      -0.02749660       0.00207629      -0.00050301      -0.00369777       0.00427054      -0.00032399       0.00024987      -0.00015655
P       22.11161272      -3.98384267       3.97366213       0.00163280      -0.00009647       0.00203988       0.00261466       0.00011411      -0.00029975      -0.00029930
P       25.73101284      -3.89532796       2.02993729       0.00215001      -0.00133373      -0.00331356       0.00416906      -0.00014970      -0.00065175      -0.00033513
P       17.59877242      -0.47832062       3.31257801       0.00111879      -0.00588441      -0.00993335       0.01159954      -0.00011645       0.00020062      -0.00015746
P       13.98869504      -0.44971152       1.08186758       0.00049993       0.00148973      -0.00816857       0.00831834      -0.00085948       0.00004344      -0.00007496
P       15.62107998       2.99573147       2.65546225       0.00167534      -0.00180329      -0.00190848       0.00311463      -0.00009586       0.00035982       0.00002897
P       19.29981881       2.93090347       0.51899649       0.00279936      -0.00223724      -0.00650854       0.00742986       0.00002061       0.00006454      -0.00010099
P       14.56676688       6.49494431       0.27914600       0.00195515      -0.00086285      -0.00323734       0.00387911       0.00018403       0.00000910       0.00003765
P       18.21552651       6.44761742       2.38384126       0.00242400      -0.00120612      -0.00469694       0.00542142       0.00003083       0.00004041       0.00013700
P       17.10348342       9.93143949       0.11069546       0.00115836      -0.00133356      -0.00270290       0.00322891      -0.00004837       0.00043096       0.00006997
P       13.44487049       9.96174650       2.21143774       0.00103912      -0.00104847      -0.00386103       0.00413360      -0.00053598      -0.00011114      -0.00007018
P       15.95377190      13.39402801       2.12574801       0.00181959      -0.00073737      -0.00101497       0.00221015      -0.00040987       0.00021015      -0.00012287
P       19.62551334      13.39202038      -0.01495675      -0.00028027       0.00014206       0.00174075       0.00176889       0.00022469       0.00014909       0.00014731
P       14.74502214      16.83492342      -0.01794308       0.00146129       0.00029319       0.00257064       0.00297145       0.00011609      -0.00005349      -0.00016999
P        3.78995532      -3.86011192       2.08304345       0.00123187       0.00206954       0.00616364       0.00661748      -0.00045293      -0.00008300       0.00009487
P       24.45386019      -0.46229654       4.33802013      -0.00300100      -0.00265875      -0.00076504       0.00408170      -0.00035286       0.00031349       0.00001877
P       21.15010344      -0.68609581       1.16007637      -0.00278370      -0.00554012       0.02800901       0.02868705       0.00003169       0.00000902      -0.00009528
P       23.05567995       2.95671186       2.38136764       0.00194962       0.00348381      -0.00298958       0.00498754       0.00054278      -0.00007802      -0.00029545
P       26.74956928       3.00316317       0.11150042       0.00039083       0.00185575       0.00095996       0.00212558      -0.00018231      -0.00040480       0.00010595
P       21.87015580       6.38806306       0.16460433       0.00126222       0.00211690       0.00017008       0.00247051       0.00029773      -0.00079623       0.00028642
P       10.88921139     -14.27036767       2.18241083      -0.00051109       0.00221278       0.00220071       0.00316239      -0.00021495      -0.00012050       0.00003031
P        9.74603358     -10.81013141       4.21584258      -0.00086295       0.00131458       0.00158782       0.00223473      -0.00003936       0.00002252       0.00014683
P       20.75248381       9.89694318       2.17540122       0.00010742       0.00081290       0.00070726       0.00108285      -0.00012256       0.00019633       0.00017608
P        8.63278581      -7.31398318       2.01675007      -0.00110068       0.00057831       0.00233738       0.00264751      -0.00001232      -0.00007776       0.00010260
P       12.28440794      -7.34717514       3.97760210      -0.00294304       0.00130287       0.00275837       0.00423882      -0.00060306      -0.00007071       0.00004005
P        7.51781405      -3.80723400       4.11341099      -0.00008174       0.00030138       0.00610720       0.00611518      -0.00010617       0.00064384      -0.00028788
P       11.20119191      -3.86456911       1.63709088      -0.00205817       0.00227920       0.00124237       0.00331275      -0.00015466       0.00048782       0.00029995
P        2.42086673      -0.42906186       0.03350907      -0.00163232       0.00217964       0.00691167       0.00742877      -0.00032342      -0.00036175      -0.00040024
P       28.08650301      -0.43958080       2.13620715      -0.00303711       0.00011847       0.00639100       0.00707693      -0.00000563       0.00015917      -0.00010114
P       15.76673771     -17.68502067       2.17787111       0.00019747       0.00102845       0.00344259       0.00359835      -0.00028723      -0.00030320      -0.00004772
P        4.75868427       3.05652976       0.08887368      -0.00012576      -0.00036984       0.00721208       0.00722265      -0.00021301      -0.00016913      -0.00008425
P       14.56030789     -14.24370840       4.24381915      -0.00152427       0.00148152       0.00363258       0.00420879      -0.00042563      -0.00010311       0.00003046
P       18.22874561     -14.22043616       2.13554030      -0.00169887       0.00013549       0.00493662       0.00522252       0.00016845       0.00012581      -0.00007120
P       17.06719073     -10.79476661       4.12285921      -0.00206127       0.00133192       0.00262827       0.00359593      -0.00001856       0.00005247       0.00002172
P       13.40243892     -10.80522514       2.02671492      -0.00191830       0.00186554       0.00368601       0.00455486       0.00011026       0.00006932       0.00001154
P       15.93177301      -7.36214009       1.81788997      -0.00370988       0.00179145       0.00009176       0.00412079       0.00046898       0.00055380       0.00001051
P       19.59643404      -7.36545768       3.97599977      -0.00141783      -0.00058903      -0.00089548       0.00177738       0.00005475       0.00037465      -0.00011233
P       14.85541826      -3.89758127       3.67007967      -0.00413124       0.00227544      -0.00527393       0.00707524       0.00011290       0.00045561       0.00006613
P       18.47799612      -3.94585255       1.61848712      -0.00282272      -0.00173848      -0.00565958       0.00655903      -0.00005406      -0.00078326       0.00015035
In       9.98523340      -3.00154841       3.73257497      -0.00138903       0.00354860       0.00079921       0.00389367       0.00000677      -0.00021582       0.00015882
In       6.23735503      -3.01397888       2.02884220       0.00155490       0.00348769       0.00681634       0.00781308       0.00038554       0.00001948       0.00038117
In       8.25112618       0.70610845       2.49198759       0.00269135      -0.00112126      -0.00503683       0.00581981      -0.00005551       0.00000570       0.00031054
In      11.64403032       0.50617602       0.91543088      -0.00167625      -0.00210203      -0.02152699       0.02169423       0.00018231       0.00010126       0.00019322
In       7.14076581       4.00600706       0.18135533       0.00196155      -0.00378548       0.00826488       0.00929977      -0.00010679      -0.00022122      -0.00000714
In      10.86268992       3.98799507       2.51197682       0.00147174      -0.00214222      -0.00440917       0.00511819       0.00015174      -0.00033186       0.00021479
In       9.70643545       7.38382758       0.18047414      -0.00093633      -0.00165141      -0.00287175       0.00344250      -0.00046111       0.00048462      -0.00017798
In       6.01910018       7.38128718       2.18650403       0.00080406      -0.00277045       0.00295985       0.00413311      -0.00012452      -0.00024650      -0.00013670
In       8.55369872      10.77961734       2.11589541      -0.00056146      -0.00120342      -0.00180665       0.00224220       0.00002671      -0.00011287      -0.00005463
In      12.22684969      10.81264141       0.07978773       0.00100319      -0.00187458      -0.00428815       0.00478630       0.00002710       0.00014124      -0.00008073
In      22.05414266      -6.52638403       4.04705222      -0.00114559      -0.00089553      -0.00203354       0.00249992      -0.00030053       0.00036469      -0.00014218
In      11.05957302      14.24006475       2.07155555       0.00220846      -0.00222577      -0.00414109       0.00519423       0.00017512      -0.00049135      -0.00016558
In      17.32133372      -3.02869710       3.68655120      -0.00417844      -0.00276852      -0.00760646       0.00910946      -0.00009796       0.00018691       0.00002872
In      13.67217465      -3.00295241       1.52376042      -0.00418883       0.00484234      -0.00670999       0.00927461       0.00004597      -0.00034393       0.00015083
In      15.24374362       0.43934143       3.14883318       0.00089904      -0.00336596      -0.00734112       0.00812588      -0.00008978      -0.00009899       0.00007830
In      18.89327335       0.37061762       1.14102179      -0.00264595      -0.00293606      -0.01323775       0.01381520       0.00025781       0.00045754      -0.00019891
In      14.45454968       3.90394943       0.51542054       0.00088130      -0.00287480      -0.00334692       0.00449923       0.00001471       0.00044420      -0.00000378
In      18.10456132       3.84207302       2.61759774       0.00080864      -0.00282285      -0.00738640       0.00794867       0.00032292      -0.00018096      -0.00001392
In      17.02287939       7.33774523       0.25588126       0.00073515      -0.00147719      -0.00482896       0.00510308       0.00036768      -0.00010931      -0.00024878
In      13.37910826       7.38352517       2.36934343      -0.00013997      -0.00223243      -0.00394976       0.00453915       0.00007270      -0.00023660      -0.00013292
In      15.89801065      10.80618906       2.21418171       0.00125194      -0.00109566      -0.00288273       0.00332835       0.00057571      -0.00031245      -0.00012245
In      19.55405732      10.78959657       0.05889647       0.00013895       0.00132420       0.00052786       0.00143229       0.00047410       0.00006952      -0.00006247
In      14.73092206      14.24936836       0.00536763       0.00329959      -0.00011844      -0.00106972       0.00347068       0.00018735       0.00023435      -0.00001105
In      18.40257016      14.25388828       2.10021901       0.00203692       0.00269085       0.00184625       0.00384686       0.00022021      -0.00030439       0.00009056
In      24.49887329      -3.02960433       4.12969819       0.00198025      -0.00238177      -0.00409338       0.00513322      -0.00052641       0.00001054      -0.00005628
In      20.92739744      -3.09189567       1.85227074      -0.00130842      -0.01019256       0.00173582       0.01042177       0.00012358      -0.00059490       0.00014094
In      23.13984416       0.34468007       2.28455785       0.00679741       0.00418697      -0.00314558       0.00858080      -0.00000459      -0.00026657      -0.00011489
In      26.84552226       0.40992689       4.25225354      -0.00255718       0.00208817       0.00712345       0.00785131       0.00017361      -0.00025167      -0.00010409
In      21.77520662       3.76046464       0.29074941       0.00022811       0.00273559      -0.00330841       0.00429896      -0.00014776       0.00060310       0.00014919
In      25.49267224       3.84164700       2.23815196       0.00223624       0.00340927       0.00048919       0.00410648      -0.00027202       0.00010167      -0.00023199
In       9.66079710     -13.41415720       4.29799082       0.00059239       0.00300067       0.00196075       0.00363311       0.00012474      -0.00018094       0.00004083
In      20.66997303       7.28977024       2.27863276       0.00001001       0.00203589      -0.00004768       0.00203647      -0.00018274       0.00007099      -0.00011335
In       8.54488855      -9.91986807       2.10100508      -0.00040261       0.00221907       0.00147049       0.00269234      -0.00028746       0.00000433       0.00010428
In      12.19131362      -9.93645649       4.13177040      -0.00134547       0.00267160       0.00348129       0.00458989       0.00019520       0.00003651       0.00019920
In       7.42758340      -6.43330254       4.13568571      -0.00024656       0.00121105       0.00245685       0.00275019      -0.00029533      -0.00060392       0.00036848
In      11.08629837      -6.45940931       1.85100733      -0.00230509       0.00401420       0.00246868       0.00524611       0.00058350       0.00027188       0.00031788
In       2.54128364      -3.01594508       4.20387368       0.00266069       0.00306745       0.00615989       0.00737785      -0.00013186      -0.00023180      -0.00000264
In      13.51163483      17.68821824       2.09387802       0.00278317       0.00010650       0.00252244       0.00375767       0.00022727       0.00014389      -0.00002873
In       1.20473289       0.44007922       2.15049127      -0.00053081       0.00066716       0.00692211       0.00697441       0.00015354      -0.00003228       0.00035775
In       4.80695543       0.48308453       0.04918434       0.00116510      -0.00090663       0.01229225       0.01238058      -0.00014698      -0.00038710       0.00050146
In      14.53488211     -16.82957899       4.29158453       0.00251469       0.00138835       0.00306969       0.00420407       0.00003621       0.00012648      -0.00005567
In       3.53706733       3.91463713       2.19478365       0.00224099      -0.00069991       0.00652997       0.00693919       0.00027651      -0.00033580      -0.00008443
In      17.00321727     -13.37368963       4.23640207       0.00031706       0.00034517       0.00438449       0.00440947       0.00019176       0.00003918       0.00004440
In      13.33328336     -13.39334945       2.12489000       0.00046538       0.00229263       0.00341761       0.00414159       0.00022738       0.00003603       0.00010074
In      15.84935926      -9.94004707       1.99294807      -0.00157468       0.00143148       0.00216526       0.00303596       0.00023636       0.00001819       0.00018019
In      19.51464133      -9.93016745       4.14568481      -0.00050019      -0.00190570       0.00080270       0.00212749      -0.00043312       0.00050214      -0.00003720
In      14.73413806      -6.47882146       3.90903843      -0.00450053       0.00273852      -0.00074861       0.00532116      -0.00007547       0.00012066       0.00010186
In      18.38107230      -6.50301690       1.83531511      -0.00348401      -0.00155380      -0.00185024       0.00423981       0.00025720      -0.00004579       0.00001659
96
Lattice="14.644920365034203 20.71104614794176 0.0 14.644920365034203 -20.71104614794176 0.0 0.0 0.0 4.227624853803519" Properties=species:S:1:pos:R:3:x_err:R:1:y_err:R:1:z_err:R:1:total_err:R:1:forces:R:3 energy=-407.5959408189879 free_energy=-407.5959408189879 stress="-0.000303559679697932 -0.008481973495998675 0.00018858551056619366 -0.008481973495998675 -0.0010507235293343038 0.000275945975543981 0.00018858551056619366 0.000275945975543981 0.003469808289963224" pbc="T T T"
P        8.57517672      -0.68871918      -0.45888427       0.00864476       0.00769150       0.03574445       0.03757069       0.00057876       0.00028986       0.00008280
P        6.32623915      -0.60836160       2.55562878      -0.00905340       0.01568966      -0.04168889       0.04545430      -0.00034633       0.00047009      -0.00055108
P        9.01760581       2.85165445       1.97339174      -0.00043936      -0.00829091       0.00759898       0.01125508       0.00043316      -0.00041968       0.00001099
P       12.70123049       2.95857651      -0.15970231       0.00336979      -0.00517977       0.01074865       0.01239834      -0.00020373       0.00009255      -0.00020498
P        7.50540427       6.33749494      -0.05758032      -0.00065644      -0.00649379       0.00694547       0.00953099       0.00027467      -0.00002672       0.00005113
P       11.15837001       6.42497908       2.03277049      -0.00074530      -0.00577070       0.00736343       0.00938491      -0.00000618      -0.00005632      -0.00003935
P        9.73641570       9.91440113      -0.04902846      -0.00086391      -0.00737918       0.00505895       0.00898842       0.00032945       0.00016247      -0.00012469
P       20.76363710     -10.81861299       2.06704452      -0.00027913      -0.00638003       0.00372288       0.00739206       0.00015354       0.00029074      -0.00005217
P       23.00828594      -7.24793168       2.06227643      -0.00092285      -0.00916907       0.00364382       0.00990964      -0.00014419      -0.00001529      -0.00004542
P       12.02934891      13.40443701       0.03775144      -0.00433017      -0.00214588      -0.00136520       0.00502185      -0.00032399       0.00024987      -0.00015655
P       21.65084393      -3.65694623      -0.12149046       0.00231531      -0.01092290       0.00242690       0.01142629       0.00011411      -0.00029975      -0.00029930
P       25.41089538      -3.80911759       2.22702581      -0.00116386      -0.00220622      -0.00293661       0.00385301      -0.00014970      -0.00065175      -0.00033513
P       15.86255987      -0.46201669      -0.25767010       0.01431578      -0.00417696       0.02211129       0.02667017      -0.00011645       0.00020062      -0.00015746
P       12.25357534      -0.51994629       1.84974583       0.02108263      -0.00432466       0.02727728       0.03474521      -0.00085948       0.00004344      -0.00007496
P       16.34221394       3.01594081       1.96867235       0.00485069      -0.00114194       0.01006467       0.01123080      -0.00009586       0.00035982       0.00002897
P       19.90790602       3.15695708      -0.10236357       0.00467241       0.00622805       0.00917086       0.01203016       0.00002061       0.00006454      -0.00010099
P       14.81770671       6.47614048      -0.06357021      -0.00041411       0.00028631       0.00524146       0.00526559       0.00018403       0.00000910       0.00003765
P       18.46920724       6.57136466       2.08993786       0.00033315       0.00503805       0.00416912       0.00654786       0.00003083       0.00004041       0.00013700
P       17.04055125       9.95620959       0.02545516      -0.00083549       0.00443882       0.00118109       0.00466863      -0.00004837       0.00043096       0.00006997
P       13.38585837       9.92549987       2.10150845      -0.00265381      -0.00111366       0.00235314       0.00371756      -0.00053598      -0.00011114      -0.00007018
P       15.67726514      13.38100657       2.18937784      -0.00395487       0.00109641      -0.00254993       0.00483170      -0.00040987       0.00021015      -0.00012287
P       19.31704309      13.33795840       0.09554128      -0.00181721       0.00725321      -0.00531787       0.00917557       0.00022469       0.00014909       0.00014731
P       14.45090238      16.84462733       0.13985364      -0.00235928      -0.00122392      -0.00676647       0.00726975       0.00011609      -0.00005349      -0.00016999
P        3.40654389      -3.92544003       2.26247474       0.00079065       0.00323088      -0.01116231       0.01164735      -0.00045293      -0.00008300       0.00009487
P       24.44406975      -0.34247203       0.41604269      -0.01089800      -0.00433922      -0.01182356       0.01665508      -0.00035286       0.00031349       0.00001877
P       19.45852461      -0.38212928       1.64979994       0.01113296      -0.00485032       0.01739347       0.02121323       0.00003169       0.00000902      -0.00009528
P       23.46388213       3.16945800       2.17187182      -0.00216524       0.00460740      -0.00058451       0.00512426       0.00054278      -0.00007802      -0.00029545
P       12.44243249     -17.67061435       0.11987142      -0.00321692       0.00127047      -0.00594570       0.00687852      -0.00018231      -0.00040480       0.00010595
P       22.14352381       6.62499282       0.05438651       0.00141749       0.00859136      -0.00415043       0.00964608       0.00029773      -0.00079623       0.00028642
P       11.17529403     -14.19620856       2.19315806       0.00050213       0.00413878      -0.00602698       0.00732845      -0.00021495      -0.00012050       0.00003031
P        9.79355283     -10.77670125       0.06822821      -0.00004638       0.00832952      -0.00554661       0.01000739      -0.00003936       0.00002252       0.00014683
P       20.73011447       9.97582222       2.17505508      -0.00006679       0.00769306      -0.00364737       0.00851416      -0.00012256       0.00019633       0.00017608
P        8.36358175      -7.41490889       2.20402160      -0.00253843       0.01109591      -0.00771782       0.01375236      -0.00001232      -0.00007776       0.00010260
P       12.02957779      -7.38585020      -0.00814391       0.00159194       0.00282377       0.00127508       0.00348336      -0.00060306      -0.00007071       0.00004005
P        6.95914317      -4.07013318       0.17251281       0.00109925       0.01598079      -0.01570622       0.02243389      -0.00010617       0.00064384      -0.00028788
P       10.52983282      -4.00198241       1.99565317       0.00233923       0.00455347       0.00349579       0.00619892      -0.00015466       0.00048782       0.00029995
P        2.52304198      -0.44424660       0.22434572      -0.01902164       0.00018554      -0.02544952       0.03177319      -0.00032342      -0.00036175      -0.00040024
P       28.12838379      -0.40987730       2.33945043      -0.01389040       0.00007053      -0.01833804       0.02300504      -0.00000563       0.00015917      -0.00010114
P       16.11087783     -17.70430037       2.24203328      -0.00411599      -0.00112624      -0.00763599       0.00874746      -0.00028723      -0.00030320      -0.00004772
P        5.19676720       2.91486107       0.11124419      -0.00507002      -0.00489764      -0.00947184       0.01180711      -0.00021301      -0.00016913      -0.00008425
P       14.83330811     -14.24703694       0.06785985       0.00107280      -0.00088588      -0.00401399       0.00424827      -0.00042563      -0.00010311       0.00003046
P       18.49318918     -14.29997386       2.14368846       0.00042265      -0.00495425      -0.00326831       0.00595022       0.00016845       0.00012581      -0.00007120
P       17.13162228     -10.80068251      -0.01021693       0.00134386      -0.00508782      -0.00055065       0.00529104      -0.00001856       0.00005247       0.00002172
P       13.47064932     -10.79472143       2.14288631       0.00197881       0.00108370      -0.00161022       0.00277180       0.00011026       0.00006932       0.00001154
P       15.69655969      -7.33880936       2.06060982       0.00410715      -0.00275545       0.00139945       0.00514001       0.00046898       0.00055380       0.00001051
P       19.37823833      -7.27894503      -0.06822542       0.00043093      -0.00699885       0.00273847       0.00752787       0.00005475       0.00037465      -0.00011233
P       14.14444478      -3.91398045      -0.13608196       0.00517859      -0.00307411       0.00530584       0.00802620       0.00011290       0.00045561       0.00006613
P       17.85040749      -3.82954329       1.97686963       0.00613783      -0.00164500       0.00245901       0.00681364      -0.00005406      -0.00078326       0.00015035
In       9.30412537      -3.14737363      -0.13074576       0.00567935       0.01517712       0.00393864       0.01667672       0.00000677      -0.00021582       0.00015882
In       5.83634571      -3.12870655       2.31082392      -0.00036501       0.01890706      -0.01621043       0.02490759       0.00038554       0.00001948       0.00038117
In       9.69511709       0.30432949       1.72305992       0.01377891      -0.01279951       0.03201010       0.03712590      -0.00005551       0.00000570       0.00031054
In      13.35987016       0.40807978      -0.25364088       0.01223988      -0.00551092       0.02558827       0.02889541       0.00018231       0.00010126       0.00019322
In       7.70644579       3.68900736      -0.09996277      -0.00076271      -0.01027908       0.00583557       0.01184463      -0.00010679      -0.00022122      -0.00000714
In      11.42302109       3.82085334       1.96630642      -0.00306965      -0.00792277       0.01005975       0.01316782       0.00015174      -0.00033186       0.00021479
In       9.90530671       7.29623063      -0.07490121      -0.00189357      -0.00737270       0.00706286       0.01038394      -0.00046111       0.00048462      -0.00017798
In       6.28556494       7.26776464       2.06680459       0.00085144      -0.00679025       0.00600853       0.00910686      -0.00012452      -0.00024650      -0.00013670
In       8.51562093      10.83700959       2.06462673      -0.00099886      -0.00897950       0.00484769       0.01025325       0.00002671      -0.00011287      -0.00005463
In      12.15219630      10.80406731      -0.01049551      -0.00437046      -0.00256608       0.00200789       0.00545136       0.00002710       0.00014124      -0.00008073
In      21.78287644      -6.30820543      -0.06147799      -0.00036445      -0.01188105       0.00369979       0.01244912      -0.00030053       0.00036469      -0.00014218
In      10.80417909      14.30252876       2.15408827      -0.00476999      -0.00331270      -0.00154807       0.00601026       0.00017512      -0.00049135      -0.00016558
In      16.53685062      -2.99123695      -0.14700830       0.00388560      -0.00517833       0.00370640       0.00745992      -0.00009796       0.00018691       0.00002872
In      12.88604818      -3.04870518       1.96915040       0.00434870      -0.00328887       0.00648070       0.00846919       0.00004597      -0.00034393       0.00015083
In      16.96968882       0.47231719       1.85426032       0.00752257      -0.00101200       0.02181784       0.02310046      -0.00008978      -0.00009899       0.00007830
In      20.54837551       0.64977491      -0.46605344      -0.00095633       0.00560485       0.01904150       0.01987228       0.00025781       0.00045754      -0.00019891
In      15.09589425       3.88425127      -0.13769166      -0.00089673      -0.00210112       0.00958154       0.00985011       0.00001471       0.00044420      -0.00000378
In      18.69503512       4.00130897       2.02205307      -0.00057166       0.00386853       0.00954016       0.01031053       0.00032292      -0.00018096      -0.00001392
In      17.21518250       7.38663604      -0.02305793      -0.00268296       0.00431148       0.00393650       0.00642520       0.00036768      -0.00010931      -0.00024878
In      13.56662359       7.33229347       2.05433157      -0.00368888      -0.00171666       0.00497246       0.00642496       0.00007270      -0.00023660      -0.00013292
In      15.80154047      10.80154593       2.14072864      -0.00437632       0.00153810       0.00100360       0.00474607       0.00057571      -0.00031245      -0.00012245
In      19.47074301      10.78001669       0.06103673      -0.00154895       0.00843016      -0.00351578       0.00926432       0.00047410       0.00006952      -0.00006247
In      14.46158304      14.25760723       0.07848126      -0.00581413      -0.00069491      -0.00274319       0.00646622       0.00018735       0.00023435      -0.00001105