24
Lattice="4.227923640641853 0.0 0.0 -9.792008360548651e-17 7.32297855611327 -8.881784197001252e-16 2.860375426311349e-15 -1.7763568394002505e-15 20.712511182045457" Properties=species:S:1:pos:R:3 energy=-102.80814684313084 pbc="T T T"
In       2.11396182       3.66148928       0.00000000
P        2.11396182       3.66148928       2.58906390
In       0.00000000       0.00000000       0.00000000
P        0.00000000      -0.00000000       2.58906390
In       0.00000000       2.44099285       3.45208520
P        0.00000000       2.44099285       6.04114909
In       2.11396182       6.10248213       3.45208520
P        2.11396182       6.10248213       6.04114909
In       2.11396182       1.22049643       6.90417039
P        2.11396182       1.22049643       9.49323429
In       0.00000000       4.88198570       6.90417039
P        0.00000000       4.88198570       9.49323429
In       2.11396182       3.66148928      10.35625559
P        2.11396182       3.66148928      12.94531949
In       0.00000000      -0.00000000      10.35625559
P        0.00000000      -0.00000000      12.94531949
In       0.00000000       2.44099285      13.80834079
P        0.00000000       2.44099285      16.39740469
In       2.11396182       6.10248213      13.80834079
P        2.11396182       6.10248213      16.39740469
In       2.11396182       1.22049643      17.26042599
P        2.11396182       1.22049643      19.84948988
In       0.00000000       4.88198570      17.26042599
P        0.00000000       4.88198570      19.84948988
24
Lattice="4.227923640641853 0.0 0.0 -9.792008360548648e-17 7.32297855611327 -8.881784197001252e-16 2.860375426311348e-15 0.03051241065047018 20.712511182045457" Properties=species:S:1:pos:R:3 energy=-102.80217143436647 pbc="T T T"
In       2.11396182       3.66148928       0.00047148
P        2.11396182       3.66148928       2.58919710
In      -0.00000000       0.00000000       0.00047148
P        0.00000000      -0.00000000       2.58919710
In       0.00000000       2.44099285       3.45210725
P        0.00000000       2.44099285       6.04111714
In       2.11396182       6.10248213       3.45210725
P        2.11396182       6.10248213       6.04111714
In       2.11396182       1.22049643       6.90418609
P        2.11396182       1.22049643       9.49322500
In       0.00000000       4.88198570       6.90418609
P        0.00000000       4.88198570       9.49322500
In       2.11396182       3.66148928      10.35626134
P        2.11396182       3.66148928      12.94530016
In       0.00000000      -0.00000000      10.35626134
P        0.00000000      -0.00000000      12.94530016
In       0.00000000       2.44099285      13.80837188
P        0.00000000       2.44099285      16.39736084
In       2.11396182       6.10248213      13.80837188
P        2.11396182       6.10248213      16.39736084
In       2.11396182       1.22049643      17.26023951
P        2.11396182       1.22049643      19.84910150
In       0.00000000       4.88198570      17.26023951
P        0.00000000       4.88198570      19.84910150
24
Lattice="4.227923640641853 0.0 0.0 -9.792008360548638e-17 7.32297855611327 -8.881784197001252e-16 2.860375426311345e-15 0.06102482130094214 20.712511182045457" Properties=species:S:1:pos:R:3 energy=-102.7848636743221 pbc="T T T"
In       2.11396182       3.66148928       0.00222129
P        2.11396182       3.66148928       2.59030872
In      -0.00000000       0.00000000       0.00222129
P        0.00000000      -0.00000000       2.59030872
In       0.00000000       2.44099285       3.45289432
P        0.00000000       2.44099285       6.04154439
In       2.11396182       6.10248213       3.45289432
P        2.11396182       6.10248213       6.04154439
In       2.11396182       1.22049643       6.90432585
P        2.11396182       1.22049643       9.49323982
In       0.00000000       4.88198570       6.90432585
P        0.00000000       4.88198570       9.49323982
In       2.11396182       3.66148928      10.35615116
P        2.11396182       3.66148928      12.94504741
In       0.00000000      -0.00000000      10.35615116
P        0.00000000      -0.00000000      12.94504741
In       0.00000000       2.44099285      13.80783594
P        0.00000000       2.44099285      16.39652336
In       2.11396182       6.10248213      13.80783594
P        2.11396182       6.10248213      16.39652336
In       2.11396182       1.22049643      17.25902165
P        2.11396182       1.22049643      19.84782539
In       0.00000000       4.88198570      17.25902165
P        0.00000000       4.88198570      19.84782539
24
Lattice="4.227923640641853 0.0 0.0 -9.792008360548637e-17 7.32297855611327 -8.881784197001252e-16 2.8603754263113446e-15 0.09153723195141426 20.712511182045457" Properties=species:S:1:pos:R:3 energy=-102.7571501417748 pbc="T T T"
In       2.11396182       3.66148928       0.00485400
P        2.11396182       3.66148928       2.59180043
In      -0.00000000       0.00000000       0.00485400
P        0.00000000      -0.00000000       2.59180043
In       0.00000000       2.44099285       3.45405740
P        0.00000000       2.44099285       6.04229112
In       2.11396182       6.10248213       3.45405740
P        2.11396182       6.10248213       6.04229112
In       2.11396182       1.22049643       6.90476942
P        2.11396182       1.22049643       9.49330119
In       0.00000000       4.88198570       6.90476942
P        0.00000000       4.88198570       9.49330119
In       2.11396182       3.66148928      10.35589626
P        2.11396182       3.66148928      12.94444853
In       0.00000000      -0.00000000      10.35589626
P        0.00000000      -0.00000000      12.94444853
In       0.00000000       2.44099285      13.80696697
P        0.00000000       2.44099285      16.39533940
In       2.11396182       6.10248213      13.80696697
P        2.11396182       6.10248213      16.39533940
In       2.11396182       1.22049643      17.25739883
P        2.11396182       1.22049643      19.84581575
In       0.00000000       4.88198570      17.25739883
P        0.00000000       4.88198570      19.84581575
24
Lattice="4.227923640641853 0.0 0.0 -9.792008360548635e-17 7.32297855611327 -8.881784197001252e-16 2.8603754263113438e-15 0.12204964260188605 20.712511182045457" Properties=species:S:1:pos:R:3 energy=-102.71997232842737 pbc="T T T"
In       2.11396182       3.66148928       0.00826624
P        2.11396182       3.66148928       2.59368969
In      -0.00000000       0.00000000       0.00826624
P        0.00000000      -0.00000000       2.59368969
In       0.00000000       2.44099285       3.45550561
P        0.00000000       2.44099285       6.04317005
In       2.11396182       6.10248213       3.45550561
P        2.11396182       6.10248213       6.04317005
In       2.11396182       1.22049643       6.90536421
P        2.11396182       1.22049643       9.49347054
In       0.00000000       4.88198570       6.90536421
P        0.00000000       4.88198570       9.49347054
In       2.11396182       3.66148928      10.35548547
P        2.11396182       3.66148928      12.94368953
In       0.00000000      -0.00000000      10.35548547
P        0.00000000      -0.00000000      12.94368953
In       0.00000000       2.44099285      13.80595656
P        0.00000000       2.44099285      16.39385899
In       2.11396182       6.10248213      13.80595656
P        2.11396182       6.10248213      16.39385899
In       2.11396182       1.22049643      17.25532750
P        2.11396182       1.22049643      19.84315490
In       0.00000000       4.88198570      17.25532750
P        0.00000000       4.88198570      19.84315490
24
Lattice="4.227923640641853 0.0 0.0 -9.792008360548638e-17 7.32297855611327 -8.881784197001252e-16 2.860375426311345e-15 0.15256205325235828 20.712511182045457" Properties=species:S:1:pos:R:3 energy=-102.6742941064205 pbc="T T T"
In       2.11396182       3.66148928       0.01243842
P        2.11396182       3.66148928       2.59605314
In      -0.00000000       0.00000000       0.01243842
P        0.00000000      -0.00000000       2.59605314
In       0.00000000       2.44099285       3.45726878
P        0.00000000       2.44099285       6.04422088
In       2.11396182       6.10248213       3.45726878
P        2.11396182       6.10248213       6.04422088
In       2.11396182       1.22049643       6.90598406
P        2.11396182       1.22049643       9.49360294
In       0.00000000       4.88198570       6.90598406
P        0.00000000       4.88198570       9.49360294
In       2.11396182       3.66148928      10.35510688
P        2.11396182       3.66148928      12.94286946
In       0.00000000      -0.00000000      10.35510688
P        0.00000000      -0.00000000      12.94286946
In       0.00000000       2.44099285      13.80476426
P        0.00000000       2.44099285      16.39205642
In       2.11396182       6.10248213      13.80476426
P        2.11396182       6.10248213      16.39205642
In       2.11396182       1.22049643      17.25273940
P        2.11396182       1.22049643      19.83983465
In       0.00000000       4.88198570      17.25273940
P        0.00000000       4.88198570      19.83983465
24
Lattice="4.227923640641853 0.0 0.0 -9.792008360548638e-17 7.32297855611327 -8.881784197001252e-16 2.860375426311345e-15 0.18307446390283028 20.712511182045457" Properties=species:S:1:pos:R:3 energy=-102.62109997763467 pbc="T T T"
In       2.11396182       3.66148928       0.01722129
P        2.11396182       3.66148928       2.59878962
In      -0.00000000       0.00000000       0.01722129
P        0.00000000      -0.00000000       2.59878962
In       0.00000000       2.44099285       3.45932575
P        0.00000000       2.44099285       6.04545475
In       2.11396182       6.10248213       3.45932575
P        2.11396182       6.10248213       6.04545475
In       2.11396182       1.22049643       6.90671187
P        2.11396182       1.22049643       9.49376661
In       0.00000000       4.88198570       6.90671187
P        0.00000000       4.88198570       9.49376661
In       2.11396182       3.66148928      10.35468052
P        2.11396182       3.66148928      12.94192893
In       0.00000000      -0.00000000      10.35468052
P        0.00000000      -0.00000000      12.94192893
In       0.00000000       2.44099285      13.80340357
P        0.00000000       2.44099285      16.38997621
In       2.11396182       6.10248213      13.80340357
P        2.11396182       6.10248213      16.38997621
In       2.11396182       1.22049643      17.24975270
P        2.11396182       1.22049643      19.83592747
In       0.00000000       4.88198570      17.24975270
P        0.00000000       4.88198570      19.83592747
24
Lattice="4.227923640641853 0.0 0.0 -9.792008360548637e-17 7.32297855611327 -8.881784197001252e-16 2.8603754263113446e-15 0.21358687455330194 20.712511182045457" Properties=species:S:1:pos:R:3 energy=-102.56137965352521 pbc="T T T"
In       2.11396182       3.66148928       0.02244223
P        2.11396182       3.66148928       2.60181587
In      -0.00000000       0.00000000       0.02244223
P        0.00000000      -0.00000000       2.60181587
In       0.00000000       2.44099285       3.46147865
P        0.00000000       2.44099285       6.04686191
In       2.11396182       6.10248213       3.46147865
P        2.11396182       6.10248213       6.04686191
In       2.11396182       1.22049643       6.90760976
P        2.11396182       1.22049643       9.49396601
In       0.00000000       4.88198570       6.90760976
P        0.00000000       4.88198570       9.49396601
In       2.11396182       3.66148928      10.35418885
P        2.11396182       3.66148928      12.94084712
In       0.00000000      -0.00000000      10.35418885
P        0.00000000      -0.00000000      12.94084712
In       0.00000000       2.44099285      13.80196154
P        0.00000000       2.44099285      16.38777950
In       2.11396182       6.10248213      13.80196154
P        2.11396182       6.10248213      16.38777950
In       2.11396182       1.22049643      17.24645939
P        2.11396182       1.22049643      19.83152847
In       0.00000000       4.88198570      17.24645939
P        0.00000000       4.88198570      19.83152847
24
Lattice="4.227923640641853 0.0 0.0 -9.792008360548637e-17 7.32297855611327 -8.881784197001252e-16 2.8603754263113446e-15 0.24409928520377389 20.712511182045457" Properties=species:S:1:pos:R:3 energy=-102.49610420294005 pbc="T T T"
In       2.11396182       3.66148928       0.02809485
P        2.11396182       3.66148928       2.60514667
In      -0.00000000       0.00000000       0.02809485
P        0.00000000      -0.00000000       2.60514667
In       0.00000000       2.44099285       3.46398881
P        0.00000000       2.44099285       6.04842616
In       2.11396182       6.10248213       3.46398881
P        2.11396182       6.10248213       6.04842616
In       2.11396182       1.22049643       6.90854557
P        2.11396182       1.22049643       9.49420090
In       0.00000000       4.88198570       6.90854557
P        0.00000000       4.88198570       9.49420090
In       2.11396182       3.66148928      10.35369339
P        2.11396182       3.66148928      12.93971572
In       0.00000000      -0.00000000      10.35369339
P        0.00000000      -0.00000000      12.93971572
In       0.00000000       2.44099285      13.80037000
P        0.00000000       2.44099285      16.38528455
In       2.11396182       6.10248213      13.80037000
P        2.11396182       6.10248213      16.38528455
In       2.11396182       1.22049643      17.24284882
P        2.11396182       1.22049643      19.82662384
In       0.00000000       4.88198570      17.24284882
P        0.00000000       4.88198570      19.82662384
24
Lattice="4.227923640641853 0.0 0.0 -9.792008360548637e-17 7.32297855611327 -8.881784197001252e-16 2.8603754263113446e-15 0.27461169585424583 20.712511182045457" Properties=species:S:1:pos:R:3 energy=-102.42620370304925 pbc="T T T"
In       2.11396182       3.66148928       0.03404024
P        2.11396182       3.66148928       2.60871554
In      -0.00000000       0.00000000       0.03404024
P        0.00000000      -0.00000000       2.60871554
In       0.00000000       2.44099285       3.46670923
P        0.00000000       2.44099285       6.05013964
In       2.11396182       6.10248213       3.46670923
P        2.11396182       6.10248213       6.05013964
In       2.11396182       1.22049643       6.90956793
P        2.11396182       1.22049643       9.49447384
In       0.00000000       4.88198570       6.90956793
P        0.00000000       4.88198570       9.49447384
In       2.11396182       3.66148928      10.35318047
P        2.11396182       3.66148928      12.93851715
In       0.00000000      -0.00000000      10.35318047
P        0.00000000      -0.00000000      12.93851715
In       0.00000000       2.44099285      13.79869129
P        0.00000000       2.44099285      16.38261567
In       2.11396182       6.10248213      13.79869129
P        2.11396182       6.10248213      16.38261567
In       2.11396182       1.22049643      17.23898653
P        2.11396182       1.22049643      19.82130176
In       0.00000000       4.88198570      17.23898653
P        0.00000000       4.88198570      19.82130176
24
Lattice="4.227923640641853 0.0 0.0 -9.792008360548637e-17 7.32297855611327 -8.881784197001252e-16 2.8603754263113446e-15 0.3051241065047184 20.712511182045457" Properties=species:S:1:pos:R:3 energy=-102.35254843187039 pbc="T T T"
In       2.11396182       3.66148928       0.04020016
P        2.11396182       3.66148928       2.61249030
In      -0.00000000       0.00000000       0.04020016
P        0.00000000      -0.00000000       2.61249030
In       0.00000000       2.44099285       3.46962258
P        0.00000000       2.44099285       6.05199496
In       2.11396182       6.10248213       3.46962258
P        2.11396182       6.10248213       6.05199496
In       2.11396182       1.22049643       6.91067163
P        2.11396182       1.22049643       9.49478578
In       0.00000000       4.88198570       6.91067163
P        0.00000000       4.88198570       9.49478578
In       2.11396182       3.66148928      10.35265605
P        2.11396182       3.66148928      12.93726243
In       0.00000000      -0.00000000      10.35265605
P        0.00000000      -0.00000000      12.93726243
In       0.00000000       2.44099285      13.79693990
P        0.00000000       2.44099285      16.37979471
In       2.11396182       6.10248213      13.79693990
P        2.11396182       6.10248213      16.37979471
In       2.11396182       1.22049643      17.23490354
P        2.11396182       1.22049643      19.81561726
In       0.00000000       4.88198570      17.23490354
P        0.00000000       4.88198570      19.81561726
24
Lattice="4.227923640641853 0.0 0.0 -9.792008360548637e-17 7.32297855611327 -8.881784197001252e-16 2.8603754263113446e-15 0.3356365171551904 20.712511182045457" Properties=species:S:1:pos:R:3 energy=-102.27594091905321 pbc="T T T"
In       2.11396182       3.66148928       0.04651575
P        2.11396182       3.66148928       2.61644673
In      -0.00000000       0.00000000       0.04651575
P        0.00000000      -0.00000000       2.61644673
In       0.00000000       2.44099285       3.47271603
P        0.00000000       2.44099285       6.05398656
In       2.11396182       6.10248213       3.47271603
P        2.11396182       6.10248213       6.05398656
In       2.11396182       1.22049643       6.91185244
P        2.11396182       1.22049643       9.49513661
In       0.00000000       4.88198570       6.91185244
P        0.00000000       4.88198570       9.49513661
In       2.11396182       3.66148928      10.35212340
P        2.11396182       3.66148928      12.93595853
In       0.00000000      -0.00000000      10.35212340
P        0.00000000      -0.00000000      12.93595853
In       0.00000000       2.44099285      13.79512359
P        0.00000000       2.44099285      16.37683647
In       2.11396182       6.10248213      13.79512359
P        2.11396182       6.10248213      16.37683647
In       2.11396182       1.22049643      17.23062170
P        2.11396182       1.22049643      19.80962149
In       0.00000000       4.88198570      17.23062170
P        0.00000000       4.88198570      19.80962149
24
Lattice="4.227923640641853 0.0 0.0 -9.792008360548637e-17 7.32297855611327 -8.881784197001252e-16 2.8603754263113446e-15 0.3661489278056618 20.712511182045457" Properties=species:S:1:pos:R:3 energy=-102.19711823336057 pbc="T T T"
In       2.11396182       3.66148928       0.05294757
P        2.11396182       3.66148928       2.62056788
In      -0.00000000       0.00000000       0.05294757
P        0.00000000      -0.00000000       2.62056788
In       0.00000000       2.44099285       3.47598069
P        0.00000000       2.44099285       6.05611026
In       2.11396182       6.10248213       3.47598069
P        2.11396182       6.10248213       6.05611026
In       2.11396182       1.22049643       6.91310678
P        2.11396182       1.22049643       9.49552507
In       0.00000000       4.88198570       6.91310678
P        0.00000000       4.88198570       9.49552507
In       2.11396182       3.66148928      10.35158323
P        2.11396182       3.66148928      12.93460863
In       0.00000000      -0.00000000      10.35158323
P        0.00000000      -0.00000000      12.93460863
In       0.00000000       2.44099285      13.79324398
P        0.00000000       2.44099285      16.37374932
In       2.11396182       6.10248213      13.79324398
P        2.11396182       6.10248213      16.37374932
In       2.11396182       1.22049643      17.22615509
P        2.11396182       1.22049643      19.80336081
In       0.00000000       4.88198570      17.22615509
P        0.00000000       4.88198570      19.80336081
24
Lattice="4.227923640641853 0.0 0.0 -9.792008360548637e-17 7.32297855611327 -8.881784197001252e-16 2.8603754263113446e-15 0.3966613384561337 20.712511182045457" Properties=species:S:1:pos:R:3 energy=-102.11676238811953 pbc="T T T"
In       2.11396182       3.66148928       0.05947331
P        2.11396182       3.66148928       2.62484252
In      -0.00000000       0.00000000       0.05947331
P        0.00000000      -0.00000000       2.62484252
In       0.00000000       2.44099285       3.47941051
P        0.00000000       2.44099285       6.05836257
In       2.11396182       6.10248213       3.47941051
P        2.11396182       6.10248213       6.05836257
In       2.11396182       1.22049643       6.91443140
P        2.11396182       1.22049643       9.49594881
In       0.00000000       4.88198570       6.91443140
P        0.00000000       4.88198570       9.49594881
In       2.11396182       3.66148928      10.35103406
P        2.11396182       3.66148928      12.93321285
In       0.00000000      -0.00000000      10.35103406
P        0.00000000      -0.00000000      12.93321285
In       0.00000000       2.44099285      13.79129785
P        0.00000000       2.44099285      16.37053656
In       2.11396182       6.10248213      13.79129785
P        2.11396182       6.10248213      16.37053656
In       2.11396182       1.22049643      17.22151213
P        2.11396182       1.22049643      19.79687673
In       0.00000000       4.88198570      17.22151213
P        0.00000000       4.88198570      19.79687673
24
Lattice="4.227923640641853 0.0 0.0 -9.792008360548636e-17 7.32297855611327 -8.881784197001252e-16 2.860375426311344e-15 0.42717374910660566 20.712511182045457" Properties=species:S:1:pos:R:3 energy=-102.03551495977773 pbc="T T T"
In       2.11396182       3.66148928       0.06609975
P        2.11396182       3.66148928       2.62929511
In      -0.00000000       0.00000000       0.06609975
P        0.00000000      -0.00000000       2.62929511
In       0.00000000       2.44099285       3.48300952
P        0.00000000       2.44099285       6.06070161
In       2.11396182       6.10248213       3.48300952
P        2.11396182       6.10248213       6.06070161
In       2.11396182       1.22049643       6.91582720
P        2.11396182       1.22049643       9.49640420
In       0.00000000       4.88198570       6.91582720
P        0.00000000       4.88198570       9.49640420
In       2.11396182       3.66148928      10.35046692
P        2.11396182       3.66148928      12.93176815
In       0.00000000      -0.00000000      10.35046692
P        0.00000000      -0.00000000      12.93176815
In       0.00000000       2.44099285      13.78930317
P        0.00000000       2.44099285      16.36720850
In       2.11396182       6.10248213      13.78930317
P        2.11396182       6.10248213      16.36720850
In       2.11396182       1.22049643      17.21664961
P        2.11396182       1.22049643      19.79020556
In       0.00000000       4.88198570      17.21664961
P        0.00000000       4.88198570      19.79020556
24
Lattice="4.227923640641853 0.0 0.0 -9.792008360548633e-17 7.32297855611327 -8.881784197001252e-16 2.8603754263113434e-15 0.4576861597570776 20.712511182045457" Properties=species:S:1:pos:R:3 energy=-101.95399104757361 pbc="T T T"
In       2.11396182       3.66148928       0.07280873
P        2.11396182       3.66148928       2.63380109
In      -0.00000000       0.00000000       0.07280873
P        0.00000000      -0.00000000       2.63380109
In       0.00000000       2.44099285       3.48678286
P        0.00000000       2.44099285       6.06313854
In       2.11396182       6.10248213       3.48678286
P        2.11396182       6.10248213       6.06313854
In       2.11396182       1.22049643       6.91727866
P        2.11396182       1.22049643       9.49685568
In       0.00000000       4.88198570       6.91727866
P        0.00000000       4.88198570       9.49685568
In       2.11396182       3.66148928      10.34994355
P        2.11396182       3.66148928      12.93029509
In       0.00000000      -0.00000000      10.34994355
P        0.00000000      -0.00000000      12.93029509
In       0.00000000       2.44099285      13.78722149
P        0.00000000       2.44099285      16.36376139
In       2.11396182       6.10248213      13.78722149
P        2.11396182       6.10248213      16.36376139
In       2.11396182       1.22049643      17.21166009
P        2.11396182       1.22049643      19.78339211
In       0.00000000       4.88198570      17.21166009
P        0.00000000       4.88198570      19.78339211
24
Lattice="4.227923640641853 0.0 0.0 -9.792008360548633e-17 7.32297855611327 -8.881784197001252e-16 2.8603754263113434e-15 0.4881985704075503 20.712511182045457" Properties=species:S:1:pos:R:3 energy=-101.87278975537744 pbc="T T T"
In       2.11396182       3.66148928       0.07958675
P        2.11396182       3.66148928       2.63848365
In      -0.00000000       0.00000000       0.07958675
P        0.00000000      -0.00000000       2.63848365
In       0.00000000       2.44099285       3.49067984
P        0.00000000       2.44099285       6.06574364
In       2.11396182       6.10248213       3.49067984
P        2.11396182       6.10248213       6.06574364
In       2.11396182       1.22049643       6.91878941
P        2.11396182       1.22049643       9.49735873
In       0.00000000       4.88198570       6.91878941
P        0.00000000       4.88198570       9.49735873
In       2.11396182       3.66148928      10.34935515
P        2.11396182       3.66148928      12.92874881
In       0.00000000      -0.00000000      10.34935515
P        0.00000000      -0.00000000      12.92874881
In       0.00000000       2.44099285      13.78503543
P        0.00000000       2.44099285      16.36017965
In       2.11396182       6.10248213      13.78503543
P        2.11396182       6.10248213      16.36017965
In       2.11396182       1.22049643      17.20651981
P        2.11396182       1.22049643      19.77645843
In       0.00000000       4.88198570      17.20651981
P        0.00000000       4.88198570      19.77645843
24
Lattice="4.227923640641853 0.0 0.0 -9.792008360548633e-17 7.32297855611327 -8.881784197001252e-16 2.8603754263113434e-15 0.5187109810580215 20.712511182045457" Properties=species:S:1:pos:R:3 energy=-101.79249833454197 pbc="T T T"
In       2.11396182       3.66148928       0.08644043
P        2.11396182       3.66148928       2.64327754
In      -0.00000000       0.00000000       0.08644043
P        0.00000000      -0.00000000       2.64327754
In       0.00000000       2.44099285       3.49471028
P        0.00000000       2.44099285       6.06845037
In       2.11396182       6.10248213       3.49471028
P        2.11396182       6.10248213       6.06845037
In       2.11396182       1.22049643       6.92034944
P        2.11396182       1.22049643       9.49788134
In       0.00000000       4.88198570       6.92034944
P        0.00000000       4.88198570       9.49788134
In       2.11396182       3.66148928      10.34874448
P        2.11396182       3.66148928      12.92715114
In       0.00000000      -0.00000000      10.34874448
P        0.00000000      -0.00000000      12.92715114
In       0.00000000       2.44099285      13.78276149
P        0.00000000       2.44099285      16.35648217
In       2.11396182       6.10248213      13.78276149
P        2.11396182       6.10248213      16.35648217
In       2.11396182       1.22049643      17.20124077
P        2.11396182       1.22049643      19.76944984
In       0.00000000       4.88198570      17.20124077
P        0.00000000       4.88198570      19.76944984
24
Lattice="4.227923640641853 0.0 0.0 -9.792008360548633e-17 7.32297855611327 -8.881784197001252e-16 2.8603754263113434e-15 0.5492233917084934 20.712511182045457" Properties=species:S:1:pos:R:3 energy=-101.71368876011007 pbc="T T T"
In       2.11396182       3.66148928       0.09335504
P        2.11396182       3.66148928       2.64815956
In      -0.00000000       0.00000000       0.09335504
P        0.00000000      -0.00000000       2.64815956
In       0.00000000       2.44099285       3.49885379
P        0.00000000       2.44099285       6.07124288
In       2.11396182       6.10248213       3.49885379
P        2.11396182       6.10248213       6.07124288
In       2.11396182       1.22049643       6.92194937
P        2.11396182       1.22049643       9.49841842
In       0.00000000       4.88198570       6.92194937
P        0.00000000       4.88198570       9.49841842
In       2.11396182       3.66148928      10.34811056
P        2.11396182       3.66148928      12.92550633
In       0.00000000      -0.00000000      10.34811056
P        0.00000000      -0.00000000      12.92550633
In       0.00000000       2.44099285      13.78040367
P        0.00000000       2.44099285      16.35268367
In       2.11396182       6.10248213      13.78040367
P        2.11396182       6.10248213      16.35268367
In       2.11396182       1.22049643      17.19584739
P        2.11396182       1.22049643      19.76240862
In       0.00000000       4.88198570      17.19584739
P        0.00000000       4.88198570      19.76240862
24
Lattice="4.227923640641853 0.0 0.0 -9.792008360548633e-17 7.32297855611327 -8.881784197001252e-16 2.8603754263113434e-15 0.5797358023589654 20.712511182045457" Properties=species:S:1:pos:R:3 energy=-101.6369083572633 pbc="T T T"
In       2.11396182       3.66148928       0.10030361
P        2.11396182       3.66148928       2.65309768
In      -0.00000000       0.00000000       0.10030361
P        0.00000000      -0.00000000       2.65309768
In       0.00000000       2.44099285       3.50308165
P        0.00000000       2.44099285       6.07410001
In       2.11396182       6.10248213       3.50308165
P        2.11396182       6.10248213       6.07410001
In       2.11396182       1.22049643       6.92357728
P        2.11396182       1.22049643       9.49896454
In       0.00000000       4.88198570       6.92357728
P        0.00000000       4.88198570       9.49896454
In       2.11396182       3.66148928      10.34745476