24
Lattice="4.227923640641853 0.0 0.0 0.0 4.227923640641853 0.0 0.0 0.0 35.87512171964124" Properties=species:S:1:pos:R:3 energy=-102.80814684313087 pbc="T T T"
P        2.11396182      -0.00000000       4.48439021
In       0.00000000       0.00000000       0.00000000
P       -0.00000000       2.11396182       1.49479674
In       2.11396182       2.11396182       2.98959348
P        2.11396182      -0.00000000      10.46357717
In       0.00000000       0.00000000       5.97918695
P       -0.00000000       2.11396182       7.47398369
In       2.11396182       2.11396182       8.96878043
P        2.11396182      -0.00000000      16.44276412
In       0.00000000       0.00000000      11.95837391
P       -0.00000000       2.11396182      13.45317064
In       2.11396182       2.11396182      14.94796738
P        2.11396182      -0.00000000      22.42195107
In       0.00000000       0.00000000      17.93756086
P       -0.00000000       2.11396182      19.43235760
In       2.11396182       2.11396182      20.92715434
P        2.11396182      -0.00000000      28.40113803
In       0.00000000       0.00000000      23.91674781
P       -0.00000000       2.11396182      25.41154455
In       2.11396182       2.11396182      26.90634129
P        2.11396182      -0.00000000      34.38032498
In       0.00000000       0.00000000      29.89593477
P       -0.00000000       2.11396182      31.39073150
In       2.11396182       2.11396182      32.88552824
24
Lattice="4.227923640641853 0.0 0.0 0.0 4.227923640641853 0.0 0.0 0.05284904550802316 35.87512171964124" Properties=species:S:1:pos:R:3 energy=-102.80627370220364 pbc="T T T"
P        2.11396182      -0.00000000       4.48440455
In       0.00000000       0.00000000      -0.00016731
P       -0.00000000       2.11396182       1.49483043
In       2.11396182       2.11396182       2.98956649
P        2.11396182      -0.00000000      10.46357616
In       0.00000000       0.00000000       5.97918288
P       -0.00000000       2.11396182       7.47398093
In       2.11396182       2.11396182       8.96878227
P        2.11396182      -0.00000000      16.44276413
In       0.00000000       0.00000000      11.95837394
P       -0.00000000       2.11396182      13.45317069
In       2.11396182       2.11396182      14.94796738
P        2.11396182      -0.00000000      22.42195138
In       0.00000000       0.00000000      17.93756086
P       -0.00000000       2.11396182      19.43235762
In       2.11396182       2.11396182      20.92715431
P        2.11396182      -0.00000000      28.40111615
In       0.00000000       0.00000000      23.91674783
P       -0.00000000       2.11396182      25.41154117
In       2.11396182       2.11396182      26.90635150
P        2.11396182      -0.00000000      34.38055130
In       0.00000000       0.00000000      29.89597993
P       -0.00000000       2.11396182      31.39067332
In       2.11396182       2.11396182      32.88548188
24
Lattice="4.227923640641853 0.0 0.0 0.0 4.227923640641853 0.0 0.0 0.10569809101604632 35.87512171964124" Properties=species:S:1:pos:R:3 energy=-102.80066175080772 pbc="T T T"
P        2.11396182      -0.00000000       4.48450118
In       0.00000000       0.00000000      -0.00066183
P       -0.00000000       2.11396182       1.49475892
In       2.11396182       2.11396182       2.98942631
P        2.11396182      -0.00000000      10.46358025
In       0.00000000       0.00000000       5.97912158
P       -0.00000000       2.11396182       7.47400188
In       2.11396182       2.11396182       8.96877020
P        2.11396182      -0.00000000      16.44276370
In       0.00000000       0.00000000      11.95837137
P       -0.00000000       2.11396182      13.45317057
In       2.11396182       2.11396182      14.94796798
P        2.11396182      -0.00000000      22.42193986
In       0.00000000       0.00000000      17.93756145
P       -0.00000000       2.11396182      19.43235497
In       2.11396182       2.11396182      20.92716079
P        2.11396182      -0.00000000      28.40113044
In       0.00000000       0.00000000      23.91675870
P       -0.00000000       2.11396182      25.41153187
In       2.11396182       2.11396182      26.90635339
P        2.11396182      -0.00000000      34.38136564
In       0.00000000       0.00000000      29.89602046
P       -0.00000000       2.11396182      31.39047314
In       2.11396182       2.11396182      32.88547698
24
Lattice="4.227923640641853 0.0 0.0 0.0 4.227923640641853 0.0 0.0 0.15854713652406952 35.87512171964124" Properties=species:S:1:pos:R:3 energy=-102.79133535232295 pbc="T T T"
P        2.11396182      -0.00000000       4.48453440
In       0.00000000       0.00000000      -0.00147555
P       -0.00000000       2.11396182       1.49459125
In       2.11396182       2.11396182       2.98906257
P        2.11396182      -0.00000000      10.46358179
In       0.00000000       0.00000000       5.97909202
P       -0.00000000       2.11396182       7.47398219
In       2.11396182       2.11396182       8.96877083
P        2.11396182      -0.00000000      16.44276386
In       0.00000000       0.00000000      11.95836109
P       -0.00000000       2.11396182      13.45317707
In       2.11396182       2.11396182      14.94796520
P        2.11396182      -0.00000000      22.42194926
In       0.00000000       0.00000000      17.93756115
P       -0.00000000       2.11396182      19.43235788
In       2.11396182       2.11396182      20.92715179
P        2.11396182      -0.00000000      28.40103529
In       0.00000000       0.00000000      23.91675167
P       -0.00000000       2.11396182      25.41151743
In       2.11396182       2.11396182      26.90642598
P        2.11396182      -0.00000000      34.38277908
In       0.00000000       0.00000000      29.89610292
P       -0.00000000       2.11396182      31.39023716
In       2.11396182       2.11396182      32.88562343
24
Lattice="4.227923640641853 0.0 0.0 0.0 4.227923640641853 0.0 0.0 0.21139618203209265 35.87512171964124" Properties=species:S:1:pos:R:3 energy=-102.77834137692516 pbc="T T T"
P        2.11396182      -0.00000000       4.48419449
In       0.00000000       0.00000000      -0.00256914
P       -0.00000000       2.11396182       1.49425003
In       2.11396182       2.11396182       2.98820313
P        2.11396182      -0.00000000      10.46356157
In       0.00000000       0.00000000       5.97877343
P       -0.00000000       2.11396182       7.47390779
In       2.11396182       2.11396182       8.96873660
P        2.11396182      -0.00000000      16.44276105
In       0.00000000       0.00000000      11.95834868
P       -0.00000000       2.11396182      13.45317406
In       2.11396182       2.11396182      14.94796389
P        2.11396182      -0.00000000      22.42194108
In       0.00000000       0.00000000      17.93756081
P       -0.00000000       2.11396182      19.43235464
In       2.11396182       2.11396182      20.92715109
P        2.11396182      -0.00000000      28.40094929
In       0.00000000       0.00000000      23.91677395
P       -0.00000000       2.11396182      25.41150714
In       2.11396182       2.11396182      26.90644408
P        2.11396182      -0.00000000      34.38495797
In       0.00000000       0.00000000      29.89648283
P       -0.00000000       2.11396182      31.39032008
In       2.11396182       2.11396182      32.88615126
24
Lattice="4.227923640641853 0.0 0.0 0.0 4.227923640641853 0.0 0.0 0.2642452275401158 35.87512171964124" Properties=species:S:1:pos:R:3 energy=-102.76175486268899 pbc="T T T"
P        2.11396182      -0.00000000       4.48364905
In       0.00000000       0.00000000      -0.00397718
P       -0.00000000       2.11396182       1.49384415
In       2.11396182       2.11396182       2.98718965
P        2.11396182      -0.00000000      10.46343548
In       0.00000000       0.00000000       5.97794224
P       -0.00000000       2.11396182       7.47341475
In       2.11396182       2.11396182       8.96843439
P        2.11396182      -0.00000000      16.44274974
In       0.00000000       0.00000000      11.95828748
P       -0.00000000       2.11396182      13.45314557
In       2.11396182       2.11396182      14.94794895
P        2.11396182      -0.00000000      22.42193533
In       0.00000000       0.00000000      17.93755485
P       -0.00000000       2.11396182      19.43235175
In       2.11396182       2.11396182      20.92716410
P        2.11396182      -0.00000000      28.40133108
In       0.00000000       0.00000000      23.91678433
P       -0.00000000       2.11396182      25.41153284
In       2.11396182       2.11396182      26.90669787
P        2.11396182      -0.00000000      34.38771563
In       0.00000000       0.00000000      29.89738217
P       -0.00000000       2.11396182      31.39058465
In       2.11396182       2.11396182      32.88680093
24
Lattice="4.227923640641853 0.0 0.0 0.0 4.227923640641853 0.0 0.0 0.31709427304813903 35.87512171964124" Properties=species:S:1:pos:R:3 energy=-102.74168483384761 pbc="T T T"
P        2.11396182      -0.00000000       4.48307531
In       0.00000000       0.00000000      -0.00575472
P       -0.00000000       2.11396182       1.49327939
In       2.11396182       2.11396182       2.98599091
P        2.11396182      -0.00000000      10.46256976
In       0.00000000       0.00000000       5.97696663
P       -0.00000000       2.11396182       7.47247515
In       2.11396182       2.11396182       8.96732882
P        2.11396182      -0.00000000      16.44267016
In       0.00000000       0.00000000      11.95763343
P       -0.00000000       2.11396182      13.45275714
In       2.11396182       2.11396182      14.94779613
P        2.11396182      -0.00000000      22.42218992
In       0.00000000       0.00000000      17.93753552
P       -0.00000000       2.11396182      19.43232308
In       2.11396182       2.11396182      20.92723432
P        2.11396182      -0.00000000      28.40217042
In       0.00000000       0.00000000      23.91731671
P       -0.00000000       2.11396182      25.41237614
In       2.11396182       2.11396182      26.90779273
P        2.11396182      -0.00000000      34.39107898
In       0.00000000       0.00000000      29.89851572
P       -0.00000000       2.11396182      31.39092735
In       2.11396182       2.11396182      32.88765077
24
Lattice="4.227923640641853 0.0 0.0 0.0 4.227923640641853 0.0 0.0 0.3699433185561607 35.87512171964124" Properties=species:S:1:pos:R:3 energy=-102.71826591807942 pbc="T T T"
P        2.11396182      -0.00000000       4.48254678
In       0.00000000       0.00000000      -0.00784735
P       -0.00000000       2.11396182       1.49265199
In       2.11396182       2.11396182       2.98468993
P        2.11396182      -0.00000000      10.46190369
In       0.00000000      -0.00000000       5.97603569
P       -0.00000000       2.11396182       7.47178261
In       2.11396182       2.11396182       8.96675760
P        2.11396182      -0.00000000      16.44242594
In       0.00000000      -0.00000000      11.95698872
P       -0.00000000       2.11396182      13.45223059
In       2.11396182       2.11396182      14.94734653
P        2.11396182      -0.00000000      22.42267943
In       0.00000000      -0.00000000      17.93746380
P       -0.00000000       2.11396182      19.43249011
In       2.11396182       2.11396182      20.92759455
P        2.11396182      -0.00000000      28.40273745
In       0.00000000      -0.00000000      23.91797283
P       -0.00000000       2.11396182      25.41289028
In       2.11396182       2.11396182      26.90850122
P        2.11396182      -0.00000000      34.39486414
In       0.00000000      -0.00000000      29.89962961
P       -0.00000000       2.11396182      31.39110258
In       2.11396182       2.11396182      32.88846103
24
Lattice="4.227923640641853 0.0 0.0 0.0 4.227923640641853 0.0 0.0 0.4227923640641853 35.87512171964124" Properties=species:S:1:pos:R:3 energy=-102.69164140341671 pbc="T T T"
P        2.11396182      -0.00000000       4.48201733
In       0.00000000       0.00000000      -0.01032201
P       -0.00000000       2.11396182       1.49187601
In       2.11396182       2.11396182       2.98321564
P        2.11396182      -0.00000000      10.46142717
In       0.00000000       0.00000000       5.97510648
P       -0.00000000       2.11396182       7.47115224
In       2.11396182       2.11396182       8.96617392
P        2.11396182      -0.00000000      16.44234455
In       0.00000000       0.00000000      11.95659828
P       -0.00000000       2.11396182      13.45198228
In       2.11396182       2.11396182      14.94718291
P        2.11396182      -0.00000000      22.42289629
In       0.00000000       0.00000000      17.93744269
P       -0.00000000       2.11396182      19.43253173
In       2.11396182       2.11396182      20.92772153
P        2.11396182      -0.00000000      28.40322418
In       0.00000000       0.00000000      23.91833698
P       -0.00000000       2.11396182      25.41329612
In       2.11396182       2.11396182      26.90914682
P        2.11396182      -0.00000000      34.39918544
In       0.00000000       0.00000000      29.90073104
P       -0.00000000       2.11396182      31.39126104
In       2.11396182       2.11396182      32.88937111
24
Lattice="4.227923640641853 0.0 0.0 0.0 4.227923640641853 0.0 0.0 0.47564140957220846 35.87512171964124" Properties=species:S:1:pos:R:3 energy=-102.66193746030613 pbc="T T T"
P        2.11396182      -0.00000000       4.48148986
In       0.00000000       0.00000000      -0.01318971
P       -0.00000000       2.11396182       1.49096974
In       2.11396182       2.11396182       2.98159022
P        2.11396182      -0.00000000      10.46082272
In       0.00000000       0.00000000       5.97411347
P       -0.00000000       2.11396182       7.47038563
In       2.11396182       2.11396182       8.96536808
P        2.11396182      -0.00000000      16.44229604
In       0.00000000       0.00000000      11.95617324
P       -0.00000000       2.11396182      13.45171562
In       2.11396182       2.11396182      14.94703581
P        2.11396182      -0.00000000      22.42308924
In       0.00000000       0.00000000      17.93742179
P       -0.00000000       2.11396182      19.43255237
In       2.11396182       2.11396182      20.92783641
P        2.11396182      -0.00000000      28.40381580
In       0.00000000       0.00000000      23.91874570
P       -0.00000000       2.11396182      25.41388465
In       2.11396182       2.11396182      26.91002618
P        2.11396182      -0.00000000      34.40400393
In       0.00000000       0.00000000      29.90191155
P       -0.00000000       2.11396182      31.39144676
In       2.11396182       2.11396182      32.89039469
24
Lattice="4.227923640641853 0.0 0.0 0.0 4.227923640641853 0.0 0.0 0.5284904550802316 35.87512171964124" Properties=species:S:1:pos:R:3 energy=-102.6292503668687 pbc="T T T"
P        2.11396182      -0.00000000       4.48086563
In       0.00000000       0.00000000      -0.01644850
P       -0.00000000       2.11396182       1.48986203
In       2.11396182       2.11396182       2.97976396
P        2.11396182      -0.00000000      10.46023673
In       0.00000000       0.00000000       5.97297917
P       -0.00000000       2.11396182       7.46961033
In       2.11396182       2.11396182       8.96462457
P        2.11396182      -0.00000000      16.44221110
In       0.00000000       0.00000000      11.95571097
P       -0.00000000       2.11396182      13.45142566
In       2.11396182       2.11396182      14.94685602
P        2.11396182      -0.00000000      22.42335190
In       0.00000000       0.00000000      17.93740222
P       -0.00000000       2.11396182      19.43259877
In       2.11396182       2.11396182      20.92799093
P        2.11396182      -0.00000000      28.40443624
In       0.00000000       0.00000000      23.91920191
P       -0.00000000       2.11396182      25.41442547
In       2.11396182       2.11396182      26.91086333
P        2.11396182      -0.00000000      34.40938965
In       0.00000000       0.00000000      29.90325563
P       -0.00000000       2.11396182      31.39170018
In       2.11396182       2.11396182      32.89158587
24
Lattice="4.227923640641853 0.0 0.0 0.0 4.227923640641853 0.0 0.0 0.5813395005882548 35.87512171964124" Properties=species:S:1:pos:R:3 energy=-102.59365811359909 pbc="T T T"
P        2.11396182      -0.00000000       4.48010765
In       0.00000000       0.00000000      -0.02011970
P       -0.00000000       2.11396182       1.48853499
In       2.11396182       2.11396182       2.97771096
P        2.11396182      -0.00000000      10.45956159
In       0.00000000       0.00000000       5.97167534
P       -0.00000000       2.11396182       7.46883835
In       2.11396182       2.11396182       8.96382577
P        2.11396182      -0.00000000      16.44189648
In       0.00000000       0.00000000      11.95500347
P       -0.00000000       2.11396182      13.45077368
In       2.11396182       2.11396182      14.94638605
P        2.11396182      -0.00000000      22.42396081
In       0.00000000       0.00000000      17.93739032
P       -0.00000000       2.11396182      19.43282848
In       2.11396182       2.11396182      20.92847181
P        2.11396182      -0.00000000      28.40511263
In       0.00000000       0.00000000      23.91990145
P       -0.00000000       2.11396182      25.41506905
In       2.11396182       2.11396182      26.91173668
P        2.11396182      -0.00000000      34.41536776
In       0.00000000       0.00000000      29.90479650
P       -0.00000000       2.11396182      31.39208685
In       2.11396182       2.11396182      32.89298280
24
Lattice="4.227923640641853 0.0 0.0 0.0 4.227923640641853 0.0 0.0 0.6341885460962781 35.87512171964124" Properties=species:S:1:pos:R:3 energy=-102.5552377645551 pbc="T T T"
P        2.11396182      -0.00000000       4.47941775
In       0.00000000       0.00000000      -0.02420775
P       -0.00000000       2.11396182       1.48710160
In       2.11396182       2.11396182       2.97559851
P        2.11396182      -0.00000000      10.45889658
In       0.00000000       0.00000000       5.97036805
P       -0.00000000       2.11396182       7.46799631
In       2.11396182       2.11396182       8.96299397
P        2.11396182      -0.00000000      16.44177161
In       0.00000000       0.00000000      11.95445091
P       -0.00000000       2.11396182      13.45039290
In       2.11396182       2.11396182      14.94614165
P        2.11396182      -0.00000000      22.42431807
In       0.00000000       0.00000000      17.93737337
P       -0.00000000       2.11396182      19.43291836
In       2.11396182       2.11396182      20.92870733
P        2.11396182      -0.00000000      28.40581226
In       0.00000000       0.00000000      23.92046214
P       -0.00000000       2.11396182      25.41569009
In       2.11396182       2.11396182      26.91268236
P        2.11396182      -0.00000000      34.42177297
In       0.00000000       0.00000000      29.90634730
P       -0.00000000       2.11396182      31.39243830
In       2.11396182       2.11396182      32.89445512
24
Lattice="4.227923640641853 0.0 0.0 0.0 4.227923640641853 0.0 0.0 0.6870375916043011 35.87512171964124" Properties=species:S:1:pos:R:3 energy=-102.51408364806741 pbc="T T T"
P        2.11396182      -0.00000000       4.47866102
In       0.00000000       0.00000000      -0.02868854
P       -0.00000000       2.11396182       1.48555748
In       2.11396182       2.11396182       2.97336985
P        2.11396182      -0.00000000      10.45828821
In       0.00000000       0.00000000       5.96894982
P       -0.00000000       2.11396182       7.46711337
In       2.11396182       2.11396182       8.96224087
P        2.11396182      -0.00000000      16.44155835
In       0.00000000       0.00000000      11.95388208
P       -0.00000000       2.11396182      13.44992096
In       2.11396182       2.11396182      14.94570671
P        2.11396182      -0.00000000      22.42476733
In       0.00000000       0.00000000      17.93736135
P       -0.00000000       2.11396182      19.43314266
In       2.11396182       2.11396182      20.92911713
P        2.11396182      -0.00000000      28.40657395
In       0.00000000       0.00000000      23.92100818
P       -0.00000000       2.11396182      25.41624440
In       2.11396182       2.11396182      26.91358675
P        2.11396182      -0.00000000      34.42860345
In       0.00000000       0.00000000      29.90802078
P       -0.00000000       2.11396182      31.39287526
In       2.11396182       2.11396182      32.89603832
24
Lattice="4.227923640641853 0.0 0.0 0.0 4.227923640641853 0.0 0.0 0.7398866371123196 35.87512171964124" Properties=species:S:1:pos:R:3 energy=-102.47030100608184 pbc="T T T"
P        2.11396182      -0.00000000       4.47795398
In       0.00000000       0.00000000      -0.03357422
P       -0.00000000       2.11396182       1.48385952
In       2.11396182       2.11396182       2.97106845
P        2.11396182      -0.00000000      10.45760442
In       0.00000000      -0.00000000       5.96753510
P       -0.00000000       2.11396182       7.46624082
In       2.11396182       2.11396182       8.96137965
P        2.11396182      -0.00000000      16.44141590
In       0.00000000      -0.00000000      11.95329769
P       -0.00000000       2.11396182      13.44950764
In       2.11396182       2.11396182      14.94542551
P        2.11396182      -0.00000000      22.42516487
In       0.00000000      -0.00000000      17.93735232
P       -0.00000000       2.11396182      19.43326414
In       2.11396182       2.11396182      20.92939842
P        2.11396182      -0.00000000      28.40731596
In       0.00000000      -0.00000000      23.92160219
P       -0.00000000       2.11396182      25.41689053
In       2.11396182       2.11396182      26.91458933
P        2.11396182      -0.00000000      34.43584305
In       0.00000000      -0.00000000      29.90971545
P       -0.00000000       2.11396182      31.39330039
In       2.11396182       2.11396182      32.89774864
24
Lattice="4.227923640641853 0.0 0.0 0.0 4.227923640641853 0.0 0.0 0.7927356826203474 35.87512171964124" Properties=species:S:1:pos:R:3 energy=-102.42399278821064 pbc="T T T"
P        2.11396182      -0.00000000       4.47722597
In       0.00000000       0.00000000      -0.03885565
P       -0.00000000       2.11396182       1.48201409
In       2.11396182       2.11396182       2.96866318
P        2.11396182      -0.00000000      10.45690168
In       0.00000000       0.00000000       5.96606258
P       -0.00000000       2.11396182       7.46534613
In       2.11396182       2.11396182       8.96049139
P        2.11396182      -0.00000000      16.44127337
In       0.00000000       0.00000000      11.95269676
P       -0.00000000       2.11396182      13.44908465
In       2.11396182       2.11396182      14.94513962
P        2.11396182      -0.00000000      22.42558157
In       0.00000000       0.00000000      17.93734785
P       -0.00000000       2.11396182      19.43339487
In       2.11396182       2.11396182      20.92969488
P        2.11396182      -0.00000000      28.40808827
In       0.00000000       0.00000000      23.92222280
P       -0.00000000       2.11396182      25.41756266
In       2.11396182       2.11396182      26.91563401
P        2.11396182      -0.00000000      34.44344645
In       0.00000000       0.00000000      29.91149418
P       -0.00000000       2.11396182      31.39378797
In       2.11396182       2.11396182      32.89960046
24
Lattice="4.227923640641853 0.0 0.0 0.0 4.227923640641853 0.0 0.0 0.8455847281283706 35.87512171964124" Properties=species:S:1:pos:R:3 energy=-102.37523761164604 pbc="T T T"
P        2.11396182      -0.00000000       4.47641077
In       0.00000000       0.00000000      -0.04456770
P       -0.00000000       2.11396182       1.47994985
In       2.11396182       2.11396182       2.96608958
P        2.11396182      -0.00000000      10.45614762
In       0.00000000       0.00000000       5.96448008
P       -0.00000000       2.11396182       7.46438262
In       2.11396182       2.11396182       8.95953721
P        2.11396182      -0.00000000      16.44112657
In       0.00000000       0.00000000      11.95205404
P       -0.00000000       2.11396182      13.44863371
In       2.11396182       2.11396182      14.94483772
P        2.11396182      -0.00000000      22.42604244
In       0.00000000       0.00000000      17.93735071
P       -0.00000000       2.11396182      19.43354494
In       2.11396182       2.11396182      20.93002385
P        2.11396182      -0.00000000      28.40894632
In       0.00000000       0.00000000      23.92290248
P       -0.00000000       2.11396182      25.41830050
In       2.11396182       2.11396182      26.91676774
P        2.11396182      -0.00000000      34.45141609
In       0.00000000       0.00000000      29.91342098
P       -0.00000000       2.11396182      31.39442099
In       2.11396182       2.11396182      32.90168067
24
Lattice="4.227923640641853 0.0 0.0 0.0 4.227923640641853 0.0 0.0 0.8984337736363887 35.87512171964124" Properties=species:S:1:pos:R:3 energy=-102.32410611162479 pbc="T T T"
P        2.11396182      -0.00000000       4.47537850
In       0.00000000       0.00000000      -0.05078544
P       -0.00000000       2.11396182       1.47751313
In       2.11396182       2.11396182       2.96321728
P        2.11396182      -0.00000000      10.45527648
In       0.00000000      -0.00000000       5.96267883
P       -0.00000000       2.11396182       7.46325575
In       2.11396182       2.11396182       8.95843729
P        2.11396182      -0.00000000      16.44096751
In       0.00000000      -0.00000000      11.95131843
P       -0.00000000       2.11396182      13.44811847
In       2.11396182       2.11396182      14.94449774
P        2.11396182      -0.00000000      22.42659820
In       0.00000000      -0.00000000      17.93736712
P       -0.00000000       2.11396182      19.43373489
In       2.11396182       2.11396182      20.93042093
P        2.11396182      -0.00000000      28.40999758
In       0.00000000      -0.00000000      23.92370716
P       -0.00000000       2.11396182      25.41918279
In       2.11396182       2.11396182      26.91808583
P        2.11396182      -0.00000000      34.45978139
In       0.00000000      -0.00000000      29.91562235
P       -0.00000000       2.11396182      31.39535643
In       2.11396182       2.11396182      32.90417110
24
Lattice="4.227923640641853 0.0 0.0 0.0 4.227923640641853 0.0 0.0 0.9512828191444169 35.87512171964124" Properties=species:S:1:pos:R:3 energy=-102.27067956054934 pbc="T T T"
P        2.11396182      -0.00000000       4.47417348
In       0.00000000       0.00000000      -0.05747866
P       -0.00000000       2.11396182       1.47479069
In       2.11396182       2.11396182       2.96011849
P        2.11396182      -0.00000000      10.45431444
In       0.00000000       0.00000000       5.96069842
P       -0.00000000       2.11396182       7.46200277
In       2.11396182       2.11396182       8.95722150
P        2.11396182      -0.00000000      16.44080100
In       0.00000000       0.00000000      11.95051054
P       -0.00000000       2.11396182      13.44755395
In       2.11396182       2.11396182      14.94412940
P        2.11396182      -0.00000000      22.42722898
In       0.00000000       0.00000000      17.93739684
P       -0.00000000       2.11396182      19.43395875
In       2.11396182       2.11396182      20.93087325
P        2.11396182      -0.00000000      28.41119979
In       0.00000000       0.00000000      23.92460978
P       -0.00000000       2.11396182      25.42017658
In       2.11396182       2.11396182      26.91955035
P        2.11396182      -0.00000000      34.46844900
In       0.00000000       0.00000000      29.91804902
P       -0.00000000       2.11396182      31.39655685
In       2.11396182       2.11396182      32.90701458
24
Lattice="4.227923640641853 0.0 0.0 0.0 4.227923640641853 0.0 0.0 1.0041318646524402 35.87512171964124" Properties=species:S:1:pos:R:3 energy=-102.21508239087659 pbc="T T T"
P        2.11396182      -0.00000000       4.47290572
In       0.00000000       0.00000000      -0.06455286
P       -0.00000000       2.11396182       1.47196101
In       2.11396182       2.11396182       2.95694261
P        2.11396182      -0.00000000      10.45332160
In       0.00000000       0.00000000       5.95863708
P       -0.00000000       2.11396182       7.46071061
In       2.11396182       2.11396182       8.95596160
P        2.11396182      -0.00000000      16.44063452
In       0.00000000       0.00000000      11.94967726
P       -0.00000000       2.11396182      13.44697406
In       2.11396182       2.11396182      14.94375335
P        2.11396182      -0.00000000      22.42788783
In       0.00000000       0.00000000      17.93743383
P       -0.00000000       2.11396182      19.43419677
In       2.11396182       2.11396182      20.93134735
P        2.11396182      -0.00000000      28.41245406
In       0.00000000       0.00000000      23.92555033
P       -0.00000000       2.11396182      25.42120849
In       2.11396182       2.11396182      26.92107462
P        2.11396182      -0.00000000      34.47725177
In       0.00000000       0.00000000      29.92058632
P       -0.00000000       2.11396182      31.39790800
In       2.11396182       2.11396182      32.91007386
24
Lattice="4.227923640641853 0.0 0.0 0.0 4.227923640641853 0.0 0.0 1.0569809101604632 35.87512171964124" Properties=species:S:1:pos:R:3 energy=-102.15751229221678 pbc="T T T"
P        2.11396182      -0.00000000       4.47171504
In       0.00000000       0.00000000      -0.07187146
P       -0.00000000       2.11396182       1.46924323
In       2.11396182       2.11396182       2.95387151
P        2.11396182      -0.00000000      10.45237355
In       0.00000000       0.00000000       5.95662096
P       -0.00000000       2.11396182       7.45948806