24
Lattice="5.97918695327354 0.0 0.0 0.0 4.227923640641853 0.0 0.0 0.0 25.367541843851118" Properties=species:S:1:pos:R:3 energy=-102.80814684313081 pbc="T T T"
P        4.48439021       2.11396182       0.00000000
In       0.00000000       0.00000000       0.00000000
P        1.49479674      -0.00000000       2.11396182
In       2.98959348       2.11396182       2.11396182
P        4.48439021       2.11396182       4.22792364
In       0.00000000       0.00000000       4.22792364
P        1.49479674      -0.00000000       6.34188546
In       2.98959348       2.11396182       6.34188546
P        4.48439021       2.11396182       8.45584728
In       0.00000000       0.00000000       8.45584728
P        1.49479674      -0.00000000      10.56980910
In       2.98959348       2.11396182      10.56980910
P        4.48439021       2.11396182      12.68377092
In       0.00000000       0.00000000      12.68377092
P        1.49479674      -0.00000000      14.79773274
In       2.98959348       2.11396182      14.79773274
P        4.48439021       2.11396182      16.91169456
In       0.00000000       0.00000000      16.91169456
P        1.49479674      -0.00000000      19.02565638
In       2.98959348       2.11396182      19.02565638
P        4.48439021       2.11396182      21.13961820
In       0.00000000       0.00000000      21.13961820
P        1.49479674      -0.00000000      23.25358002
In       2.98959348       2.11396182      23.25358002
24
Lattice="5.9791869532735396 0.0 0.0 0.0 4.227923640641853 0.0 0.0 0.05284904550802316 25.367541843851118" Properties=species:S:1:pos:R:3 energy=-102.80646152274502 pbc="T T T"
P        4.48439021       2.11396182      -0.00022807
In       0.00000000       0.00000000      -0.00015976
P        1.49479674      -0.00000000       2.11397985
In       2.98959348       2.11396182       2.11392794
P        4.48439021       2.11396182       4.22793676
In       0.00000000       0.00000000       4.22791267
P        1.49479674      -0.00000000       6.34188817
In       2.98959348       2.11396182       6.34187734
P        4.48439021       2.11396182       8.45584852
In       0.00000000       0.00000000       8.45584775
P        1.49479674      -0.00000000      10.56980896
In       2.98959348       2.11396182      10.56980916
P        4.48439021       2.11396182      12.68377107
In       0.00000000       0.00000000      12.68377086
P        1.49479674      -0.00000000      14.79773151
In       2.98959348       2.11396182      14.79773228
P        4.48439021       2.11396182      16.91169185
In       0.00000000       0.00000000      16.91170268
P        1.49479674      -0.00000000      19.02564327
In       2.98959348       2.11396182      19.02566735
P        4.48439021       2.11396182      21.13960017
In       0.00000000       0.00000000      21.13965208
P        1.49479674      -0.00000000      23.25380810
In       2.98959348       2.11396182      23.25373979
24
Lattice="5.979186953273539 0.0 0.0 0.0 4.227923640641853 0.0 0.0 0.10569809101604632 25.367541843851118" Properties=species:S:1:pos:R:3 energy=-102.80141424436972 pbc="T T T"
P        4.48439021       2.11396182      -0.00097385
In       0.00000000       0.00000000      -0.00070993
P        1.49479674      -0.00000000       2.11365457
In       2.98959348       2.11396182       2.11325393
P        4.48439021       2.11396182       4.22769395
In       0.00000000       0.00000000       4.22781404
P        1.49479674      -0.00000000       6.34187789
In       2.98959348       2.11396182       6.34181328
P        4.48439021       2.11396182       8.45584057
In       0.00000000       0.00000000       8.45583822
P        1.49479674      -0.00000000      10.56981032
In       2.98959348       2.11396182      10.56980390
P        4.48439021       2.11396182      12.68376970
In       0.00000000       0.00000000      12.68377612
P        1.49479674      -0.00000000      14.79773946
In       2.98959348       2.11396182      14.79774180
P        4.48439021       2.11396182      16.91170213
In       0.00000000       0.00000000      16.91176674
P        1.49479674      -0.00000000      19.02588607
In       2.98959348       2.11396182      19.02576598
P        4.48439021       2.11396182      21.13992545
In       0.00000000       0.00000000      21.14032610
P        1.49479674      -0.00000000      23.25455387
In       2.98959348       2.11396182      23.25428995
24
Lattice="5.979186953273539 0.0 0.0 0.0 4.227923640641853 0.0 0.0 0.15854713652406952 25.367541843851118" Properties=species:S:1:pos:R:3 energy=-102.7930230414057 pbc="T T T"
P        4.48439021       2.11396182      -0.00246650
In       0.00000000       0.00000000      -0.00143985
P        1.49479674      -0.00000000       2.11310288
In       2.98959348       2.11396182       2.11193414
P        4.48439021       2.11396182       4.22675878
In       0.00000000       0.00000000       4.22708429
P        1.49479674      -0.00000000       6.34140777
In       2.98959348       2.11396182       6.34097259
P        4.48439021       2.11396182       8.45548072
In       0.00000000       0.00000000       8.45561934
P        1.49479674      -0.00000000      10.56979611
In       2.98959348       2.11396182      10.56968447
P        4.48439021       2.11396182      12.68378391
In       0.00000000       0.00000000      12.68389555
P        1.49479674      -0.00000000      14.79809930
In       2.98959348       2.11396182      14.79796068
P        4.48439021       2.11396182      16.91217225
In       0.00000000       0.00000000      16.91260743
P        1.49479674      -0.00000000      19.02682124
In       2.98959348       2.11396182      19.02649573
P        4.48439021       2.11396182      21.14047714
In       0.00000000       0.00000000      21.14164588
P        1.49479674      -0.00000000      23.25604653
In       2.98959348       2.11396182      23.25501987
24
Lattice="5.979186953273539 0.0 0.0 0.0 4.227923640641853 0.0 0.0 0.21139618203209265 25.367541843851118" Properties=species:S:1:pos:R:3 energy=-102.78129518691622 pbc="T T T"
P        4.48439021       2.11396182      -0.00430596
In       0.00000000       0.00000000      -0.00244495
P        1.49479674      -0.00000000       2.11255169
In       2.98959348       2.11396182       2.11062430
P        4.48439021       2.11396182       4.22586831
In       0.00000000       0.00000000       4.22657068
P        1.49479674      -0.00000000       6.34091645
In       2.98959348       2.11396182       6.34027629
P        4.48439021       2.11396182       8.45503092
In       0.00000000       0.00000000       8.45537965
P        1.49479674      -0.00000000      10.56971010
In       2.98959348       2.11396182      10.56949478
P        4.48439021       2.11396182      12.68386992
In       0.00000000       0.00000000      12.68408524
P        1.49479674      -0.00000000      14.79854911
In       2.98959348       2.11396182      14.79820037
P        4.48439021       2.11396182      16.91266358
In       0.00000000       0.00000000      16.91330373
P        1.49479674      -0.00000000      19.02771171
In       2.98959348       2.11396182      19.02700934
P        4.48439021       2.11396182      21.14102833
In       0.00000000       0.00000000      21.14295572
P        1.49479674      -0.00000000      23.25788598
In       2.98959348       2.11396182      23.25602497
24
Lattice="5.979186953273539 0.0 0.0 0.0 4.227923640641853 0.0 0.0 0.2642452275401158 25.367541843851118" Properties=species:S:1:pos:R:3 energy=-102.76623236499032 pbc="T T T"
P        4.48439021       2.11396182      -0.00657648
In       0.00000000       0.00000000      -0.00367104
P        1.49479674      -0.00000000       2.11196215
In       2.98959348       2.11396182       2.10899371
P        4.48439021       2.11396182       4.22486921
In       0.00000000       0.00000000       4.22596461
P        1.49479674      -0.00000000       6.34047908
In       2.98959348       2.11396182       6.33948477
P        4.48439021       2.11396182       8.45463970
In       0.00000000       0.00000000       8.45517596
P        1.49479674      -0.00000000      10.56967454
In       2.98959348       2.11396182      10.56934126
P        4.48439021       2.11396182      12.68390549
In       0.00000000       0.00000000      12.68423876
P        1.49479674      -0.00000000      14.79894032
In       2.98959348       2.11396182      14.79840406
P        4.48439021       2.11396182      16.91310094
In       0.00000000       0.00000000      16.91409526
P        1.49479674      -0.00000000      19.02871082
In       2.98959348       2.11396182      19.02761542
P        4.48439021       2.11396182      21.14161788
In       0.00000000       0.00000000      21.14458632
P        1.49479674      -0.00000000      23.26015650
In       2.98959348       2.11396182      23.25725107
24
Lattice="5.979186953273539 0.0 0.0 0.0 4.227923640641853 0.0 0.0 0.31709427304813903 25.367541843851118" Properties=species:S:1:pos:R:3 energy=-102.7478380157208 pbc="T T T"
P        4.48439021       2.11396182      -0.00924216
In       0.00000000       0.00000000      -0.00515136
P        1.49479674      -0.00000000       2.11128824
In       2.98959348       2.11396182       2.10702180
P        4.48439021       2.11396182       4.22370938
In       0.00000000       0.00000000       4.22528431
P        1.49479674      -0.00000000       6.33992415
In       2.98959348       2.11396182       6.33844255
P        4.48439021       2.11396182       8.45405783
In       0.00000000       0.00000000       8.45478389
P        1.49479674      -0.00000000      10.56958725
In       2.98959348       2.11396182      10.56902772
P        4.48439021       2.11396182      12.68399277
In       0.00000000       0.00000000      12.68455230
P        1.49479674      -0.00000000      14.79952219
In       2.98959348       2.11396182      14.79879613
P        4.48439021       2.11396182      16.91365587
In       0.00000000       0.00000000      16.91513747
P        1.49479674      -0.00000000      19.02987064
In       2.98959348       2.11396182      19.02829571
P        4.48439021       2.11396182      21.14229179
In       0.00000000       0.00000000      21.14655822
P        1.49479674      -0.00000000      23.26282218
In       2.98959348       2.11396182      23.25873138
24
Lattice="5.979186953273539 0.0 0.0 0.0 4.227923640641853 0.0 0.0 0.3699433185561616 25.367541843851118" Properties=species:S:1:pos:R:3 energy=-102.72612475983709 pbc="T T T"
P        4.48439021       2.11396182      -0.01231458
In       0.00000000       0.00000000      -0.00674515
P        1.49479674      -0.00000000       2.11067417
In       2.98959348       2.11396182       2.10491267
P        4.48439021       2.11396182       4.22244559
In       0.00000000      -0.00000000       4.22459460
P        1.49479674      -0.00000000       6.33939925
In       2.98959348       2.11396182       6.33739125
P        4.48439021       2.11396182       8.45352420
In       0.00000000      -0.00000000       8.45451134
P        1.49479674      -0.00000000      10.56954226
In       2.98959348       2.11396182      10.56878463
P        4.48439021       2.11396182      12.68403776
In       0.00000000      -0.00000000      12.68479540
P        1.49479674      -0.00000000      14.80005583
In       2.98959348       2.11396182      14.79906868
P        4.48439021       2.11396182      16.91418077
In       0.00000000      -0.00000000      16.91618877
P        1.49479674      -0.00000000      19.03113443
In       2.98959348       2.11396182      19.02898543
P        4.48439021       2.11396182      21.14290586
In       0.00000000      -0.00000000      21.14866736
P        1.49479674      -0.00000000      23.26589460
In       2.98959348       2.11396182      23.26032517
24
Lattice="5.979186953273539 0.0 0.0 0.0 4.227923640641853 0.0 0.0 0.4227923640641853 25.367541843851118" Properties=species:S:1:pos:R:3 energy=-102.70112782168827 pbc="T T T"
P        4.48439021       2.11396182      -0.01579217
In       0.00000000       0.00000000      -0.00864977
P        1.49479674      -0.00000000       2.10988729
In       2.98959348       2.11396182       2.10246272
P        4.48439021       2.11396182       4.22097579
In       0.00000000       0.00000000       4.22385253
P        1.49479674      -0.00000000       6.33872773
In       2.98959348       2.11396182       6.33617055
P        4.48439021       2.11396182       8.45276768
In       0.00000000       0.00000000       8.45406890
P        1.49479674      -0.00000000      10.56944066
In       2.98959348       2.11396182      10.56840476
P        4.48439021       2.11396182      12.68413937
In       0.00000000       0.00000000      12.68517527
P        1.49479674      -0.00000000      14.80081234
In       2.98959348       2.11396182      14.79951113
P        4.48439021       2.11396182      16.91485229
In       0.00000000       0.00000000      16.91740947
P        1.49479674      -0.00000000      19.03260423
In       2.98959348       2.11396182      19.02972750
P        4.48439021       2.11396182      21.14369274
In       0.00000000       0.00000000      21.15111730
P        1.49479674      -0.00000000      23.26937220
In       2.98959348       2.11396182      23.26222980
24
Lattice="5.979186953273539 0.0 0.0 0.0 4.227923640641853 0.0 0.0 0.47564140957220846 25.367541843851118" Properties=species:S:1:pos:R:3 energy=-102.6729085576596 pbc="T T T"
P        4.48439021       2.11396182      -0.01979546
In       0.00000000       0.00000000      -0.01067661
P        1.49479674      -0.00000000       2.10907951
In       2.98959348       2.11396182       2.09970163
P        4.48439021       2.11396182       4.21934100
In       0.00000000       0.00000000       4.22296709
P        1.49479674      -0.00000000       6.33804259
In       2.98959348       2.11396182       6.33480354
P        4.48439021       2.11396182       8.45204571
In       0.00000000       0.00000000       8.45369049
P        1.49479674      -0.00000000      10.56937304
In       2.98959348       2.11396182      10.56806517
P        4.48439021       2.11396182      12.68420699
In       0.00000000       0.00000000      12.68551485
P        1.49479674      -0.00000000      14.80153431
In       2.98959348       2.11396182      14.79988954
P        4.48439021       2.11396182      16.91553743
In       0.00000000       0.00000000      16.91877648
P        1.49479674      -0.00000000      19.03423902
In       2.98959348       2.11396182      19.03061293
P        4.48439021       2.11396182      21.14450051
In       0.00000000       0.00000000      21.15387840
P        1.49479674      -0.00000000      23.27337548
In       2.98959348       2.11396182      23.26425664
24
Lattice="5.979186953273539 0.0 0.0 0.0 4.227923640641853 0.0 0.0 0.5284904550802316 25.367541843851118" Properties=species:S:1:pos:R:3 energy=-102.64156743653419 pbc="T T T"
P        4.48439021       2.11396182      -0.02437847
In       0.00000000       0.00000000      -0.01297182
P        1.49479674      -0.00000000       2.10804030
In       2.98959348       2.11396182       2.09648005
P        4.48439021       2.11396182       4.21743042
In       0.00000000       0.00000000       4.22187527
P        1.49479674      -0.00000000       6.33721642
In       2.98959348       2.11396182       6.33321462
P        4.48439021       2.11396182       8.45120559
In       0.00000000       0.00000000       8.45323202
P        1.49479674      -0.00000000      10.56928553
In       2.98959348       2.11396182      10.56767524
P        4.48439021       2.11396182      12.68429449
In       0.00000000       0.00000000      12.68590478
P        1.49479674      -0.00000000      14.80237443
In       2.98959348       2.11396182      14.80034800
P        4.48439021       2.11396182      16.91636360
In       0.00000000       0.00000000      16.92036541
P        1.49479674      -0.00000000      19.03614961
In       2.98959348       2.11396182      19.03170475
P        4.48439021       2.11396182      21.14553972
In       0.00000000       0.00000000      21.15709998
P        1.49479674      -0.00000000      23.27795849
In       2.98959348       2.11396182      23.26655185
24
Lattice="5.979186953273539 0.0 0.0 0.0 4.227923640641853 0.0 0.0 0.5813395005882548 25.367541843851118" Properties=species:S:1:pos:R:3 energy=-102.60725190039834 pbc="T T T"
P        4.48439021       2.11396182      -0.02954757
In       0.00000000       0.00000000      -0.01560695
P        1.49479674      -0.00000000       2.10668583
In       2.98959348       2.11396182       2.09274095
P        4.48439021       2.11396182       4.21521297
In       0.00000000       0.00000000       4.22050928
P        1.49479674      -0.00000000       6.33623060
In       2.98959348       2.11396182       6.33138015
P        4.48439021       2.11396182       8.45021955
In       0.00000000       0.00000000       8.45263012
P        1.49479674      -0.00000000      10.56915208
In       2.98959348       2.11396182      10.56720812
P        4.48439021       2.11396182      12.68442794
In       0.00000000       0.00000000      12.68637191
P        1.49479674      -0.00000000      14.80336048
In       2.98959348       2.11396182      14.80094990
P        4.48439021       2.11396182      16.91734942
In       0.00000000       0.00000000      16.92219987
P        1.49479674      -0.00000000      19.03836705
In       2.98959348       2.11396182      19.03307074
P        4.48439021       2.11396182      21.14689420
In       0.00000000       0.00000000      21.16083907
P        1.49479674      -0.00000000      23.28312759
In       2.98959348       2.11396182      23.26918698
24
Lattice="5.979186953273539 0.0 0.0 0.0 4.227923640641853 0.0 0.0 0.6341885460962781 25.367541843851118" Properties=species:S:1:pos:R:3 energy=-102.57015118729079 pbc="T T T"
P        4.48439021       2.11396182      -0.03541931
In       0.00000000       0.00000000      -0.01851685
P        1.49479674      -0.00000000       2.10495567
In       2.98959348       2.11396182       2.08843490
P        4.48439021       2.11396182       4.21263404
In       0.00000000       0.00000000       4.21889758
P        1.49479674      -0.00000000       6.33503897
In       2.98959348       2.11396182       6.32931086
P        4.48439021       2.11396182       8.44910331
In       0.00000000       0.00000000       8.45195414
P        1.49479674      -0.00000000      10.56899199
In       2.98959348       2.11396182      10.56669895
P        4.48439021       2.11396182      12.68458804
In       0.00000000       0.00000000      12.68688107
P        1.49479674      -0.00000000      14.80447672
In       2.98959348       2.11396182      14.80162589
P        4.48439021       2.11396182      16.91854106
In       0.00000000       0.00000000      16.92426917
P        1.49479674      -0.00000000      19.04094598
In       2.98959348       2.11396182      19.03468244
P        4.48439021       2.11396182      21.14862435
In       0.00000000       0.00000000      21.16514512
P        1.49479674      -0.00000000      23.28899934
In       2.98959348       2.11396182      23.27209687
24
Lattice="5.979186953273539 0.0 0.0 0.0 4.227923640641853 0.0 0.0 0.6870375916043011 25.367541843851118" Properties=species:S:1:pos:R:3 energy=-102.53047308192349 pbc="T T T"
P        4.48439021       2.11396182      -0.04165024
In       0.00000000       0.00000000      -0.02228329
P        1.49479674      -0.00000000       2.10244839
In       2.98959348       2.11396182       2.08372778
P        4.48439021       2.11396182       4.20973234
In       0.00000000       0.00000000       4.21660874
P        1.49479674      -0.00000000       6.33346421
In       2.98959348       2.11396182       6.32690791
P        4.48439021       2.11396182       8.44786447
In       0.00000000       0.00000000       8.45093674
P        1.49479674      -0.00000000      10.56872119
In       2.98959348       2.11396182      10.56616379
P        4.48439021       2.11396182      12.68485883
In       0.00000000       0.00000000      12.68741624
P        1.49479674      -0.00000000      14.80571555
In       2.98959348       2.11396182      14.80264328
P        4.48439021       2.11396182      16.92011582
In       0.00000000       0.00000000      16.92667211
P        1.49479674      -0.00000000      19.04384768
In       2.98959348       2.11396182      19.03697128
P        4.48439021       2.11396182      21.15113163
In       0.00000000       0.00000000      21.16985225
P        1.49479674      -0.00000000      23.29523026
In       2.98959348       2.11396182      23.27586332
24
Lattice="5.979186953273539 0.0 0.0 0.0 4.227923640641853 0.0 0.0 0.7398866371123217 25.367541843851118" Properties=species:S:1:pos:R:3 energy=-102.48839931517129 pbc="T T T"
P        4.48439021       2.11396182      -0.04865591
In       0.00000000       0.00000000      -0.02588461
P        1.49479674      -0.00000000       2.09996802
In       2.98959348       2.11396182       2.07851334
P        4.48439021       2.11396182       4.20657744
In       0.00000000      -0.00000000       4.21439331
P        1.49479674      -0.00000000       6.33186946
In       2.98959348       2.11396182       6.32443143
P        4.48439021       2.11396182       8.44653049
In       0.00000000      -0.00000000       8.44999264
P        1.49479674      -0.00000000      10.56847317
In       2.98959348       2.11396182      10.56559293
P        4.48439021       2.11396182      12.68510685
In       0.00000000      -0.00000000      12.68798709
P        1.49479674      -0.00000000      14.80704953
In       2.98959348       2.11396182      14.80358738
P        4.48439021       2.11396182      16.92171057
In       0.00000000      -0.00000000      16.92914859
P        1.49479674      -0.00000000      19.04700259
In       2.98959348       2.11396182      19.03918672
P        4.48439021       2.11396182      21.15361201
In       0.00000000      -0.00000000      21.17506668
P        1.49479674      -0.00000000      23.30223593
In       2.98959348       2.11396182      23.27946463
24
Lattice="5.979186953273539 0.0 0.0 0.0 4.227923640641853 0.0 0.0 0.7927356826203474 25.367541843851118" Properties=species:S:1:pos:R:3 energy=-102.44406267573228 pbc="T T T"
P        4.48439021       2.11396182      -0.05618283
In       0.00000000       0.00000000      -0.02967410
P        1.49479674      -0.00000000       2.09727100
In       2.98959348       2.11396182       2.07281195
P        4.48439021       2.11396182       4.20312731
In       0.00000000       0.00000000       4.21197782
P        1.49479674      -0.00000000       6.33013859
In       2.98959348       2.11396182       6.32166336
P        4.48439021       2.11396182       8.44504427
In       0.00000000       0.00000000       8.44894915
P        1.49479674      -0.00000000      10.56820630
In       2.98959348       2.11396182      10.56494092
P        4.48439021       2.11396182      12.68537372
In       0.00000000       0.00000000      12.68863910
P        1.49479674      -0.00000000      14.80853576
In       2.98959348       2.11396182      14.80463088
P        4.48439021       2.11396182      16.92344143
In       0.00000000       0.00000000      16.93191667
P        1.49479674      -0.00000000      19.05045272
In       2.98959348       2.11396182      19.04160220
P        4.48439021       2.11396182      21.15630902
In       0.00000000       0.00000000      21.18076808
P        1.49479674      -0.00000000      23.30976285
In       2.98959348       2.11396182      23.28325412
24
Lattice="5.979186953273539 0.0 0.0 0.0 4.227923640641853 0.0 0.0 0.8455847281283706 25.367541843851118" Properties=species:S:1:pos:R:3 energy=-102.39753763885383 pbc="T T T"
P        4.48439021       2.11396182      -0.06406210
In       0.00000000       0.00000000      -0.03387304
P        1.49479674      -0.00000000       2.09419599
In       2.98959348       2.11396182       2.06682487
P        4.48439021       2.11396182       4.19944460
In       0.00000000       0.00000000       4.20912340
P        1.49479674      -0.00000000       6.32814652
In       2.98959348       2.11396182       6.31872220
P        4.48439021       2.11396182       8.44351871
In       0.00000000       0.00000000       8.44779383
P        1.49479674      -0.00000000      10.56788579
In       2.98959348       2.11396182      10.56435376
P        4.48439021       2.11396182      12.68569424
In       0.00000000       0.00000000      12.68922626
P        1.49479674      -0.00000000      14.81006131
In       2.98959348       2.11396182      14.80578620
P        4.48439021       2.11396182      16.92543351
In       0.00000000       0.00000000      16.93485782
P        1.49479674      -0.00000000      19.05413542
In       2.98959348       2.11396182      19.04445663
P        4.48439021       2.11396182      21.15938403
In       0.00000000       0.00000000      21.18675515
P        1.49479674      -0.00000000      23.31764213
In       2.98959348       2.11396182      23.28745306
24
Lattice="5.979186953273539 0.0 0.0 0.0 4.227923640641853 0.0 0.0 0.898433773636391 25.367541843851118" Properties=species:S:1:pos:R:3 energy=-102.34888550588666 pbc="T T T"
P        4.48439021       2.11396182      -0.07244513
In       0.00000000       0.00000000      -0.03826223
P        1.49479674      -0.00000000       2.09098769
In       2.98959348       2.11396182       2.06042147
P        4.48439021       2.11396182       4.19555492
In       0.00000000      -0.00000000       4.20627237
P        1.49479674      -0.00000000       6.32612617
In       2.98959348       2.11396182       6.31561918
P        4.48439021       2.11396182       8.44186398
In       0.00000000      -0.00000000       8.44656856
P        1.49479674      -0.00000000      10.56755738
In       2.98959348       2.11396182      10.56365208
P        4.48439021       2.11396182      12.68602265
In       0.00000000      -0.00000000      12.68992794
P        1.49479674      -0.00000000      14.81171605
In       2.98959348       2.11396182      14.80701146
P        4.48439021       2.11396182      16.92745386
In       0.00000000      -0.00000000      16.93796085
P        1.49479674      -0.00000000      19.05802510
In       2.98959348       2.11396182      19.04730766
P        4.48439021       2.11396182      21.16259233
In       0.00000000      -0.00000000      21.19315855
P        1.49479674      -0.00000000      23.32602516
In       2.98959348       2.11396182      23.29184225
24
Lattice="5.979186953273531 0.0 0.0 0.0 4.227923640641853 0.0 0.0 0.9512828191444169 25.367541843851118" Properties=species:S:1:pos:R:3 energy=-102.29816754328627 pbc="T T T"
P        4.48439021       2.11396182      -0.08123215
In       0.00000000       0.00000000      -0.04293010
P        1.49479674      -0.00000000       2.08751763
In       2.98959348       2.11396182       2.05366455
P        4.48439021       2.11396182       4.19144461
In       0.00000000       0.00000000       4.20321099
P        1.49479674      -0.00000000       6.32396208
In       2.98959348       2.11396182       6.31235030
P        4.48439021       2.11396182       8.44012025
In       0.00000000       0.00000000       8.44524910
P        1.49479674      -0.00000000      10.56719711
In       2.98959348       2.11396182      10.56291936
P        4.48439021       2.11396182      12.68638291
In       0.00000000       0.00000000      12.69066066
P        1.49479674      -0.00000000      14.81345978
In       2.98959348       2.11396182      14.80833092
P        4.48439021       2.11396182      16.92961794
In       0.00000000       0.00000000      16.94122972
P        1.49479674      -0.00000000      19.06213542
In       2.98959348       2.11396182      19.05036903
P        4.48439021       2.11396182      21.16606239
In       0.00000000       0.00000000      21.19991547
P        1.49479674      -0.00000000      23.33481217
In       2.98959348       2.11396182      23.29651012
24
Lattice="5.979186953273531 0.0 0.0 0.0 4.227923640641853 0.0 0.0 1.0041318646524402 25.367541843851118" Properties=species:S:1:pos:R:3 energy=-102.24547924443193 pbc="T T T"
P        4.48439021       2.11396182      -0.09036856
In       0.00000000       0.00000000      -0.04780408
P        1.49479674      -0.00000000       2.08380740
In       2.98959348       2.11396182       2.04657736
P        4.48439021       2.11396182       4.18712937
In       0.00000000       0.00000000       4.19996124
P        1.49479674      -0.00000000       6.32166653
In       2.98959348       2.11396182       6.30892968
P        4.48439021       2.11396182       8.43829529
In       0.00000000       0.00000000       8.44384247
P        1.49479674      -0.00000000      10.56680687
In       2.98959348       2.11396182      10.56215834
P        4.48439021       2.11396182      12.68677315
In       0.00000000       0.00000000      12.69142168
P        1.49479674      -0.00000000      14.81528473
In       2.98959348       2.11396182      14.80973755
P        4.48439021       2.11396182      16.93191350
In       0.00000000       0.00000000      16.94465035
P        1.49479674      -0.00000000      19.06645065
In       2.98959348       2.11396182      19.05361878
P        4.48439021       2.11396182      21.16977262
In       0.00000000       0.00000000      21.20700266
P        1.49479674      -0.00000000      23.34394858
In       2.98959348       2.11396182      23.30138411
24
Lattice="5.979186953273531 0.0 0.0 0.0 4.227923640641853 0.0 0.0 1.0569809101604632 25.367541843851118" Properties=species:S:1:pos:R:3 energy=-102.19097268487013 pbc="T T T"
P        4.48439021       2.11396182      -0.09975610
In       0.00000000       0.00000000      -0.05275962
P        1.49479674      -0.00000000       2.07993210
In       2.98959348       2.11396182       2.03922570
P        4.48439021       2.11396182       4.18265642
In       0.00000000       0.00000000       4.19658569