24
Lattice="5.97918695327354 0.0 0.0 0.0 5.97918695327354 0.0 0.0 0.0 17.93756085982062" Properties=species:S:1:pos:R:3 energy=-102.80814684313086 pbc="T T T"
P        4.48439021       1.49479674       1.49479674
In       2.98959348       0.00000000       2.98959348
P        1.49479674       1.49479674       4.48439021
P        4.48439021       4.48439021       4.48439021
In       2.98959348       2.98959348       0.00000000
P        1.49479674       4.48439021       1.49479674
In       0.00000000       0.00000000       0.00000000
In       0.00000000       2.98959348       2.98959348
P        4.48439021       1.49479674       7.47398369
In       2.98959348       0.00000000       8.96878043
P        1.49479674       1.49479674      10.46357717
P        4.48439021       4.48439021      10.46357717
In       2.98959348       2.98959348       5.97918695
P        1.49479674       4.48439021       7.47398369
In       0.00000000       0.00000000       5.97918695
In       0.00000000       2.98959348       8.96878043
P        4.48439021       1.49479674      13.45317064
In       2.98959348       0.00000000      14.94796738
P        1.49479674       1.49479674      16.44276412
P        4.48439021       4.48439021      16.44276412
In       2.98959348       2.98959348      11.95837391
P        1.49479674       4.48439021      13.45317064
In       0.00000000       0.00000000      11.95837391
In       0.00000000       2.98959348      14.94796738
24
Lattice="5.979186953273539 0.0 0.0 0.0 5.979186953273539 0.0 0.0 0.07473983691591923 17.93756085982062" Properties=species:S:1:pos:R:3 energy=-102.78675987408947 pbc="T T T"
P        4.48439021       1.49479674       1.49628319
In       2.98959348       0.00000000       2.99076076
P        1.49479674       1.49479674       4.48496466
P        4.48439021       4.48439021       4.48496466
In       2.98959348       2.98959348       0.00227572
P        1.49479674       4.48439021       1.49628319
In       0.00000000       0.00000000       0.00227572
In       0.00000000       2.98959348       2.99076076
P        4.48439021       1.49479674       7.47400364
In       2.98959348       0.00000000       8.96870704
P        1.49479674       1.49479674      10.46322262
P        4.48439021       4.48439021      10.46322262
In       2.98959348       2.98959348       5.97946467
P        1.49479674       4.48439021       7.47400364
In       0.00000000       0.00000000       5.97946467
In       0.00000000       2.98959348       8.96870704
P        4.48439021       1.49479674      13.45192458
In       2.98959348       0.00000000      14.94633470
P        1.49479674       1.49479674      16.44080305
P        4.48439021       4.48439021      16.44080305
In       2.98959348       2.98959348      11.95784010
P        1.49479674       4.48439021      13.45192458
In       0.00000000       0.00000000      11.95784010
In       0.00000000       2.98959348      14.94633470
24
Lattice="5.979186953273539 0.0 0.0 0.0 5.979186953273539 0.0 0.0 0.14947967383183847 17.93756085982062" Properties=species:S:1:pos:R:3 energy=-102.72386404919808 pbc="T T T"
P        4.48439021       1.49479674       1.50061917
In       2.98959348       0.00000000       2.99445453
P        1.49479674       1.49479674       4.48730682
P        4.48439021       4.48439021       4.48730682
In       2.98959348       2.98959348       0.00889554
P        1.49479674       4.48439021       1.50061917
In       0.00000000       0.00000000       0.00889554
In       0.00000000       2.98959348       2.99445453
P        4.48439021       1.49479674       7.47429349
In       2.98959348       0.00000000       8.96815523
P        1.49479674       1.49479674      10.46139887
P        4.48439021       4.48439021      10.46139887
In       2.98959348       2.98959348       5.98108977
P        1.49479674       4.48439021       7.47429349
In       0.00000000       0.00000000       5.98108977
In       0.00000000       2.98959348       8.96815523
P        4.48439021       1.49479674      13.44809008
In       2.98959348       0.00000000      14.94166869
P        1.49479674       1.49479674      16.43496355
P        4.48439021       4.48439021      16.43496355
In       2.98959348       2.98959348      11.95564899
P        1.49479674       4.48439021      13.44809008
In       0.00000000       0.00000000      11.95564899
In       0.00000000       2.98959348      14.94166869
24
Lattice="5.979186953273539 0.0 0.0 0.0 5.979186953273539 0.0 0.0 0.22421951074775776 17.93756085982062" Properties=species:S:1:pos:R:3 energy=-102.62322249341108 pbc="T T T"
P        4.48439021       1.49479674       1.50748891
In       2.98959348       0.00000000       3.00020465
P        1.49479674       1.49479674       4.49075917
P        4.48439021       4.48439021       4.49075917
In       2.98959348       2.98959348       0.01917389
P        1.49479674       4.48439021       1.50748891
In       0.00000000       0.00000000       0.01917389
In       0.00000000       2.98959348       3.00020465
P        4.48439021       1.49479674       7.47466735
In       2.98959348       0.00000000       8.96745251
P        1.49479674       1.49479674      10.45886336
P        4.48439021       4.48439021      10.45886336
In       2.98959348       2.98959348       5.98333248
P        1.49479674       4.48439021       7.47466735
In       0.00000000       0.00000000       5.98333248
In       0.00000000       2.98959348       8.96745251
P        4.48439021       1.49479674      13.44216321
In       2.98959348       0.00000000      14.93433912
P        1.49479674       1.49479674      16.42561962
P        4.48439021       4.48439021      16.42561962
In       2.98959348       2.98959348      11.95252043
P        1.49479674       4.48439021      13.44216321
In       0.00000000       0.00000000      11.95252043
In       0.00000000       2.98959348      14.93433912
24
Lattice="5.979186953273539 0.0 0.0 0.0 5.979186953273539 0.0 0.0 0.29895934766367693 17.93756085982062" Properties=species:S:1:pos:R:3 energy=-102.49083240331291 pbc="T T T"
P        4.48439021       1.49479674       1.51636767
In       2.98959348       0.00000000       3.00752843
P        1.49479674       1.49479674       4.49533470
P        4.48439021       4.48439021       4.49533470
In       2.98959348       2.98959348       0.03207212
P        1.49479674       4.48439021       1.51636767
In       0.00000000       0.00000000       0.03207212
In       0.00000000       2.98959348       3.00752843
P        4.48439021       1.49479674       7.47519293
In       2.98959348       0.00000000       8.96659351
P        1.49479674       1.49479674      10.45559185
P        4.48439021       4.48439021      10.45559185
In       2.98959348       2.98959348       5.98623514
P        1.49479674       4.48439021       7.47519293
In       0.00000000       0.00000000       5.98623514
In       0.00000000       2.98959348       8.96659351
P        4.48439021       1.49479674      13.43463950
In       2.98959348       0.00000000      14.92504414
P        1.49479674       1.49479674      16.41336042
P        4.48439021       4.48439021      16.41336042
In       2.98959348       2.98959348      11.94862431
P        1.49479674       4.48439021      13.43463950
In       0.00000000       0.00000000      11.94862431
In       0.00000000       2.98959348      14.92504414
24
Lattice="5.979186953273539 0.0 0.0 0.0 5.979186953273539 0.0 0.0 0.3736991845795969 17.93756085982062" Properties=species:S:1:pos:R:3 energy=-102.33404717383807 pbc="T T T"
P        4.48439021       1.49479674       1.52681317
In       2.98959348       0.00000000       3.01630435
P        1.49479674       1.49479674       4.50079248
P        4.48439021       4.48439021       4.50079248
In       2.98959348       2.98959348       0.04664852
P        1.49479674       4.48439021       1.52681317
In       0.00000000       0.00000000       0.04664852
In       0.00000000       2.98959348       3.01630435
P        4.48439021       1.49479674       7.47587123
In       2.98959348       0.00000000       8.96565169
P        1.49479674       1.49479674      10.45179579
P        4.48439021       4.48439021      10.45179579
In       2.98959348       2.98959348       5.98966892
P        1.49479674       4.48439021       7.47587123
In       0.00000000       0.00000000       5.98966892
In       0.00000000       2.98959348       8.96565169
P        4.48439021       1.49479674      13.42580907
In       2.98959348       0.00000000      14.91430033
P        1.49479674       1.49479674      16.39876806
P        4.48439021       4.48439021      16.39876806
In       2.98959348       2.98959348      11.94416113
P        1.49479674       4.48439021      13.42580907
In       0.00000000       0.00000000      11.94416113
In       0.00000000       2.98959348      14.91430033
24
Lattice="5.979186953273539 0.0 0.0 0.0 5.979186953273539 0.0 0.0 0.4484390214955155 17.93756085982062" Properties=species:S:1:pos:R:3 energy=-102.16018681673549 pbc="T T T"
P        4.48439021       1.49479674       1.53828864
In       2.98959348       0.00000000       3.02604849
P        1.49479674       1.49479674       4.50695830
P        4.48439021       4.48439021       4.50695830
In       2.98959348       2.98959348       0.06188533
P        1.49479674       4.48439021       1.53828864
In       0.00000000       0.00000000       0.06188533
In       0.00000000       2.98959348       3.02604849
P        4.48439021       1.49479674       7.47670383
In       2.98959348       0.00000000       8.96468929
P        1.49479674       1.49479674      10.44765047
P        4.48439021       4.48439021      10.44765047
In       2.98959348       2.98959348       5.99349574
P        1.49479674       4.48439021       7.47670383
In       0.00000000       0.00000000       5.99349574
In       0.00000000       2.98959348       8.96468929
P        4.48439021       1.49479674      13.41613592
In       2.98959348       0.00000000      14.90268562
P        1.49479674       1.49479674      16.38266897
P        4.48439021       4.48439021      16.38266897
In       2.98959348       2.98959348      11.93937413
P        1.49479674       4.48439021      13.41613592
In       0.00000000       0.00000000      11.93937413
In       0.00000000       2.98959348      14.90268562
24
Lattice="5.979186953273539 0.0 0.0 0.0 5.979186953273539 0.0 0.0 0.5231788584114346 17.93756085982062" Properties=species:S:1:pos:R:3 energy=-101.97557718777684 pbc="T T T"
P        4.48439021       1.49479674       1.55043093
In       2.98959348       0.00000000       3.03649940
P        1.49479674       1.49479674       4.51370285
P        4.48439021       4.48439021       4.51370285
In       2.98959348       2.98959348       0.07714984
P        1.49479674       4.48439021       1.55043093
In       0.00000000       0.00000000       0.07714984
In       0.00000000       2.98959348       3.03649940
P        4.48439021       1.49479674       7.47769252
In       2.98959348       0.00000000       8.96373390
P        1.49479674       1.49479674      10.44326837
P        4.48439021       4.48439021      10.44326837
In       2.98959348       2.98959348       5.99763199
P        1.49479674       4.48439021       7.47769252
In       0.00000000       0.00000000       5.99763199
In       0.00000000       2.98959348       8.96373390
P        4.48439021       1.49479674      13.40586276
In       2.98959348       0.00000000      14.89051707
P        1.49479674       1.49479674      16.36573501
P        4.48439021       4.48439021      16.36573501
In       2.98959348       2.98959348      11.93436010
P        1.49479674       4.48439021      13.40586276
In       0.00000000       0.00000000      11.93436010
In       0.00000000       2.98959348      14.89051707
24
Lattice="5.979186953273539 0.0 0.0 0.0 5.979186953273539 0.0 0.0 0.5979186953273539 17.93756085982062" Properties=species:S:1:pos:R:3 energy=-101.78557992438259 pbc="T T T"
P        4.48439021       1.49479674       1.56295918
In       2.98959348       0.00000000       3.04742582
P        1.49479674       1.49479674       4.52089118
P        4.48439021       4.48439021       4.52089118
In       2.98959348       2.98959348       0.09217341
P        1.49479674       4.48439021       1.56295918
In       0.00000000       0.00000000       0.09217341
In       0.00000000       2.98959348       3.04742582
P        4.48439021       1.49479674       7.47882626
In       2.98959348       0.00000000       8.96279658
P        1.49479674       1.49479674      10.43873402
P        4.48439021       4.48439021      10.43873402
In       2.98959348       2.98959348       6.00200653
P        1.49479674       4.48439021       7.47882626
In       0.00000000       0.00000000       6.00200653
In       0.00000000       2.98959348       8.96279658
P        4.48439021       1.49479674      13.39517107
In       2.98959348       0.00000000      14.87796662
P        1.49479674       1.49479674      16.34845870
P        4.48439021       4.48439021      16.34845870
In       2.98959348       2.98959348      11.92917535
P        1.49479674       4.48439021      13.39517107
In       0.00000000       0.00000000      11.92917535
In       0.00000000       2.98959348      14.87796662
24
Lattice="5.979186953273539 0.0 0.0 0.0 5.979186953273539 0.0 0.0 0.6726585322432731 17.93756085982062" Properties=species:S:1:pos:R:3 energy=-101.59488954528526 pbc="T T T"
P        4.48439021       1.49479674       1.57555477
In       2.98959348       0.00000000       3.05853167
P        1.49479674       1.49479674       4.52823162
P        4.48439021       4.48439021       4.52823162
In       2.98959348       2.98959348       0.10689642
P        1.49479674       4.48439021       1.57555477
In       0.00000000       0.00000000       0.10689642
In       0.00000000       2.98959348       3.05853167
P        4.48439021       1.49479674       7.47998496
In       2.98959348       0.00000000       8.96199144
P        1.49479674       1.49479674      10.43426240
P        4.48439021       4.48439021      10.43426240
In       2.98959348       2.98959348       6.00651869
P        1.49479674       4.48439021       7.47998496
In       0.00000000       0.00000000       6.00651869
In       0.00000000       2.98959348       8.96199144
P        4.48439021       1.49479674      13.38435479
In       2.98959348       0.00000000      14.86514285
P        1.49479674       1.49479674      16.33121276
P        4.48439021       4.48439021      16.33121276
In       2.98959348       2.98959348      11.92390235
P        1.49479674       4.48439021      13.38435479
In       0.00000000       0.00000000      11.92390235
In       0.00000000       2.98959348      14.86514285
24
Lattice="5.979186953273539 0.0 0.0 0.0 5.979186953273539 0.0 0.0 0.7473983691591939 17.93756085982062" Properties=species:S:1:pos:R:3 energy=-101.40741216583716 pbc="T T T"
P        4.48439021       1.49479674       1.58788430
In       2.98959348       0.00000000       3.06940501
P        1.49479674       1.49479674       4.53559305
P        4.48439021       4.48439021       4.53559305
In       2.98959348       2.98959348       0.12122406
P        1.49479674       4.48439021       1.58788430
In       0.00000000       0.00000000       0.12122406
In       0.00000000       2.98959348       3.06940501
P        4.48439021       1.49479674       7.48127382
In       2.98959348       0.00000000       8.96116532
P        1.49479674       1.49479674      10.42980477
P        4.48439021       4.48439021      10.42980477
In       2.98959348       2.98959348       6.01101566
P        1.49479674       4.48439021       7.48127382
In       0.00000000       0.00000000       6.01101566
In       0.00000000       2.98959348       8.96116532
P        4.48439021       1.49479674      13.37368885
In       2.98959348       0.00000000      14.85240364
P        1.49479674       1.49479674      16.31437333
P        4.48439021       4.48439021      16.31437333
In       2.98959348       2.98959348      11.91875290
P        1.49479674       4.48439021      13.37368885
In       0.00000000       0.00000000      11.91875290
In       0.00000000       2.98959348      14.85240364
24
Lattice="5.979186953273539 0.0 0.0 0.0 5.979186953273539 0.0 0.0 0.8221382060751117 17.93756085982062" Properties=species:S:1:pos:R:3 energy=-101.22592928196742 pbc="T T T"
P        4.48439021       1.49479674       1.59981675
In       2.98959348       0.00000000       3.07993445
P        1.49479674       1.49479674       4.54279886
P        4.48439021       4.48439021       4.54279886
In       2.98959348       2.98959348       0.13501521
P        1.49479674       4.48439021       1.59981675
In       0.00000000       0.00000000       0.13501521
In       0.00000000       2.98959348       3.07993445
P        4.48439021       1.49479674       7.48260563
In       2.98959348       0.00000000       8.96040131
P        1.49479674       1.49479674      10.42551735
P        4.48439021       4.48439021      10.42551735
In       2.98959348       2.98959348       6.01544248
P        1.49479674       4.48439021       7.48260563
In       0.00000000       0.00000000       6.01544248
In       0.00000000       2.98959348       8.96040131
P        4.48439021       1.49479674      13.36335666
In       2.98959348       0.00000000      14.83979210
P        1.49479674       1.49479674      16.29817241
P        4.48439021       4.48439021      16.29817241
In       2.98959348       2.98959348      11.91373151
P        1.49479674       4.48439021      13.36335666
In       0.00000000       0.00000000      11.91373151
In       0.00000000       2.98959348      14.83979210
24
Lattice="5.979186953273539 0.0 0.0 0.0 5.979186953273539 0.0 0.0 0.896878042991031 17.93756085982062" Properties=species:S:1:pos:R:3 energy=-101.05236654955777 pbc="T T T"
P        4.48439021       1.49479674       1.61143993
In       2.98959348       0.00000000       3.09019517
P        1.49479674       1.49479674       4.54987735
P        4.48439021       4.48439021       4.54987735
In       2.98959348       2.98959348       0.14816510
P        1.49479674       4.48439021       1.61143993
In       0.00000000       0.00000000       0.14816510
In       0.00000000       2.98959348       3.09019517
P        4.48439021       1.49479674       7.48401054
In       2.98959348       0.00000000       8.95968051
P        1.49479674       1.49479674      10.42139182
P        4.48439021       4.48439021      10.42139182
In       2.98959348       2.98959348       6.01982953
P        1.49479674       4.48439021       7.48401054
In       0.00000000       0.00000000       6.01982953
In       0.00000000       2.98959348       8.95968051
P        4.48439021       1.49479674      13.35328260
In       2.98959348       0.00000000      14.82728104
P        1.49479674       1.49479674      16.28271324
P        4.48439021       4.48439021      16.28271324
In       2.98959348       2.98959348      11.90871789
P        1.49479674       4.48439021      13.35328260
In       0.00000000       0.00000000      11.90871789
In       0.00000000       2.98959348      14.82728104
24
Lattice="5.979186953273539 0.0 0.0 0.0 5.979186953273539 0.0 0.0 0.97161787990695 17.93756085982062" Properties=species:S:1:pos:R:3 energy=-100.88832790122433 pbc="T T T"
P        4.48439021       1.49479674       1.62283156
In       2.98959348       0.00000000       3.10016957
P        1.49479674       1.49479674       4.55680172
P        4.48439021       4.48439021       4.55680172
In       2.98959348       2.98959348       0.16071135
P        1.49479674       4.48439021       1.62283156
In       0.00000000       0.00000000       0.16071135
In       0.00000000       2.98959348       3.10016957
P        4.48439021       1.49479674       7.48540485
In       2.98959348       0.00000000       8.95896865
P        1.49479674       1.49479674      10.41738687
P        4.48439021       4.48439021      10.41738687
In       2.98959348       2.98959348       6.02411529
P        1.49479674       4.48439021       7.48540485
In       0.00000000       0.00000000       6.02411529
In       0.00000000       2.98959348       8.95896865
P        4.48439021       1.49479674      13.34344419
In       2.98959348       0.00000000      14.81494146
P        1.49479674       1.49479674      16.26808624
P        4.48439021       4.48439021      16.26808624
In       2.98959348       2.98959348      11.90372298
P        1.49479674       4.48439021      13.34344419
In       0.00000000       0.00000000      11.90372298
In       0.00000000       2.98959348      14.81494146
24
Lattice="5.979186953273539 0.0 0.0 0.0 5.979186953273539 0.0 0.0 1.0463577168228693 17.93756085982062" Properties=species:S:1:pos:R:3 energy=-100.73503376940664 pbc="T T T"
P        4.48439021       1.49479674       1.63379780
In       2.98959348       0.00000000       3.10969008
P        1.49479674       1.49479674       4.56342771
P        4.48439021       4.48439021       4.56342771
In       2.98959348       2.98959348       0.17251419
P        1.49479674       4.48439021       1.63379780
In       0.00000000       0.00000000       0.17251419
In       0.00000000       2.98959348       3.10969008
P        4.48439021       1.49479674       7.48678117
In       2.98959348       0.00000000       8.95827537
P        1.49479674       1.49479674      10.41356550
P        4.48439021       4.48439021      10.41356550
In       2.98959348       2.98959348       6.02821193
P        1.49479674       4.48439021       7.48678117
In       0.00000000       0.00000000       6.02821193
In       0.00000000       2.98959348       8.95827537
P        4.48439021       1.49479674      13.33394434
In       2.98959348       0.00000000      14.80300575
P        1.49479674       1.49479674      16.25456825
P        4.48439021       4.48439021      16.25456825
In       2.98959348       2.98959348      11.89880263
P        1.49479674       4.48439021      13.33394434
In       0.00000000       0.00000000      11.89880263
In       0.00000000       2.98959348      14.80300575
24
Lattice="5.979186953273539 0.0 0.0 0.0 5.979186953273539 0.0 0.0 1.1210975537387884 17.93756085982062" Properties=species:S:1:pos:R:3 energy=-100.5926131665473 pbc="T T T"
P        4.48439021       1.49479674       1.64389302
In       2.98959348       0.00000000       3.11831120
P        1.49479674       1.49479674       4.56943136
P        4.48439021       4.48439021       4.56943136
In       2.98959348       2.98959348       0.18326697
P        1.49479674       4.48439021       1.64389302
In       0.00000000       0.00000000       0.18326697
In       0.00000000       2.98959348       3.11831120
P        4.48439021       1.49479674       7.48805031
In       2.98959348       0.00000000       8.95763718
P        1.49479674       1.49479674      10.41009088
P        4.48439021       4.48439021      10.41009088
In       2.98959348       2.98959348       6.03193228
P        1.49479674       4.48439021       7.48805031
In       0.00000000       0.00000000       6.03193228
In       0.00000000       2.98959348       8.95763718
P        4.48439021       1.49479674      13.32521901
In       2.98959348       0.00000000      14.79195011
P        1.49479674       1.49479674      16.24253254
P        4.48439021       4.48439021      16.24253254
In       2.98959348       2.98959348      11.89426987
P        1.49479674       4.48439021      13.32521901
In       0.00000000       0.00000000      11.89426987
In       0.00000000       2.98959348      14.79195011
24
Lattice="5.979186953273539 0.0 0.0 0.0 5.979186953273539 0.0 0.0 1.1958373906547077 17.93756085982062" Properties=species:S:1:pos:R:3 energy=-100.45997919222354 pbc="T T T"
P        4.48439021       1.49479674       1.65296208
In       2.98959348       0.00000000       3.12586405
P        1.49479674       1.49479674       4.57468606
P        4.48439021       4.48439021       4.57468606
In       2.98959348       2.98959348       0.19270108
P        1.49479674       4.48439021       1.65296208
In       0.00000000       0.00000000       0.19270108
In       0.00000000       2.98959348       3.12586405
P        4.48439021       1.49479674       7.48919029
In       2.98959348       0.00000000       8.95708629
P        1.49479674       1.49479674      10.40706715
P        4.48439021       4.48439021      10.40706715
In       2.98959348       2.98959348       6.03520237
P        1.49479674       4.48439021       7.48919029
In       0.00000000       0.00000000       6.03520237
In       0.00000000       2.98959348       8.95708629
P        4.48439021       1.49479674      13.31751750
In       2.98959348       0.00000000      14.78193202
P        1.49479674       1.49479674      16.23207188
P        4.48439021       4.48439021      16.23207188
In       2.98959348       2.98959348      11.89030397
P        1.49479674       4.48439021      13.31751750
In       0.00000000       0.00000000      11.89030397
In       0.00000000       2.98959348      14.78193202
24
Lattice="5.979186953273539 0.0 0.0 0.0 5.979186953273539 0.0 0.0 1.270577227570627 17.93756085982062" Properties=species:S:1:pos:R:3 energy=-100.33579920017839 pbc="T T T"
P        4.48439021       1.49479674       1.66111087
In       2.98959348       0.00000000       3.13247449
P        1.49479674       1.49479674       4.57927431
P        4.48439021       4.48439021       4.57927431
In       2.98959348       2.98959348       0.20073090
P        1.49479674       4.48439021       1.66111087
In       0.00000000       0.00000000       0.20073090
In       0.00000000       2.98959348       3.13247449
P        4.48439021       1.49479674       7.49022648
In       2.98959348       0.00000000       8.95662638
P        1.49479674       1.49479674      10.40448487
P        4.48439021       4.48439021      10.40448487
In       2.98959348       2.98959348       6.03807351
P        1.49479674       4.48439021       7.49022648
In       0.00000000       0.00000000       6.03807351
In       0.00000000       2.98959348       8.95662638
P        4.48439021       1.49479674      13.31079751
In       2.98959348       0.00000000      14.77283730
P        1.49479674       1.49479674      16.22306976
P        4.48439021       4.48439021      16.22306976
In       2.98959348       2.98959348      11.88687835
P        1.49479674       4.48439021      13.31079751
In       0.00000000       0.00000000      11.88687835
In       0.00000000       2.98959348      14.77283730
24
Lattice="5.979186953273539 0.0 0.0 0.0 5.979186953273539 0.0 0.0 1.3453170644865462 17.93756085982062" Properties=species:S:1:pos:R:3 energy=-100.21874550031443 pbc="T T T"
P        4.48439021       1.49479674       1.66827604
In       2.98959348       0.00000000       3.13817105
P        1.49479674       1.49479674       4.58321341
P        4.48439021       4.48439021       4.58321341
In       2.98959348       2.98959348       0.20731920
P        1.49479674       4.48439021       1.66827604
In       0.00000000       0.00000000       0.20731920
In       0.00000000       2.98959348       3.13817105
P        4.48439021       1.49479674       7.49115395
In       2.98959348       0.00000000       8.95625810
P        1.49479674       1.49479674      10.40233202
P        4.48439021       4.48439021      10.40233202
In       2.98959348       2.98959348       6.04055176
P        1.49479674       4.48439021       7.49115395
In       0.00000000       0.00000000       6.04055176
In       0.00000000       2.98959348       8.95625810
P        4.48439021       1.49479674      13.30503609
In       2.98959348       0.00000000      14.76475774
P        1.49479674       1.49479674      16.21553224
P        4.48439021       4.48439021      16.21553224
In       2.98959348       2.98959348      11.88398314
P        1.49479674       4.48439021      13.30503609
In       0.00000000       0.00000000      11.88398314
In       0.00000000       2.98959348      14.76475774
24
Lattice="5.979186953273539 0.0 0.0 0.0 5.979186953273539 0.0 0.0 1.4200569014024655 17.93756085982062" Properties=species:S:1:pos:R:3 energy=-100.10734036169157 pbc="T T T"
P        4.48439021       1.49479674       1.67439670
In       2.98959348       0.00000000       3.14294667
P        1.49479674       1.49479674       4.58649496
P        4.48439021       4.48439021       4.58649496
In       2.98959348       2.98959348       0.21252780
P        1.49479674       4.48439021       1.67439670
In       0.00000000       0.00000000       0.21252780
In       0.00000000       2.98959348       3.14294667
P        4.48439021       1.49479674       7.49194757
In       2.98959348       0.00000000       8.95596596
P        1.49479674       1.49479674      10.40056520
P        4.48439021       4.48439021      10.40056520
In       2.98959348       2.98959348       6.04262533
P        1.49479674       4.48439021       7.49194757
In       0.00000000       0.00000000       6.04262533
In       0.00000000       2.98959348       8.95596596
P        4.48439021       1.49479674      13.30015275
In       2.98959348       0.00000000      14.75781817
P        1.49479674       1.49479674      16.20956764
P        4.48439021       4.48439021      16.20956764
In       2.98959348       2.98959348      11.88157597
P        1.49479674       4.48439021      13.30015275
In       0.00000000       0.00000000      11.88157597
In       0.00000000       2.98959348      14.75781817
24
Lattice="5.979186953273539 0.0 0.0 0.0 5.979186953273539 0.0 0.0 1.494796738318388 17.93756085982062" Properties=species:S:1:pos:R:3 energy=-100.00005597922865 pbc="T T T"
P        4.48439021       1.49479674       1.67961992
In       2.98959348       0.00000000       3.14696316
P        1.49479674       1.49479674       4.58922188
P        4.48439021       4.48439021       4.58922188
In       2.98959348       2.98959348       0.21648613
P        1.49479674       4.48439021       1.67961992
In       0.00000000       0.00000000       0.21648613