 +-------------------------------------------------+
 |                                                 |
 |      CCC   AA    SSS  TTTTT  EEEEE  PPPP        |
 |     C     A  A  S       T    E      P   P       |
 |     C     AAAA   SS     T    EEE    PPPP        |
 |     C     A  A     S    T    E      P           |
 |      CCC  A  A  SSS     T    EEEEE  P           |
 |                                                 |
 +-------------------------------------------------+
 |                                                 |
 | Welcome to Academic Release CASTEP version 24.1 |
 | Ab Initio Total Energy Program                  |
 |                                                 |
 | Authors:                                        |
 | M. Segall, M. Probert, C. Pickard, P. Hasnip,   |
 | S. Clark, K. Refson, J. R. Yates,               |
 | A. Bartok-Partay, M. Payne                      |
 |                                                 |
 | Contributors:                                   |
 | P. Lindan, P. Haynes, J. White, V. Milman,      |
 | N. Govind, M. Gibson, P. Tulip, V. Cocula,      |
 | B. Montanari, D. Quigley, M. Glover,            |
 | L. Bernasconi, A. Perlov, M. Plummer,           |
 | E. McNellis, J. Meyer, J. Gale, D. Jochym       |
 | J. Aarons, B. Walker, R. Gillen, D. Jones       |
 | T. Green, I. J. Bush, C. J. Armstrong,          |
 | E. J. Higgins, E. L. Brown, M. S. McFly,        |
 | J. Wilkins, B-C. Shih, P. J. P. Byrne,          |
 | R. J. Maurer, J. C. Womack, J. Dziedzic,        |
 | L. LeBlanc, T. K. Stenczel, J. Kermode,         |
 | S. Sturniolo, B. Shi, B. Durham, M. Evans,      |
 | M. J. Smith, A. Tamerus, Z. Hawkhead,           |
 | V. Ravindran, T. Hollins, S. A. Joyce,          |
 | R. T. Strong, A. M. Reilly, S. J. Donaldson     |
 |                                                 |
 | Copyright (c) 2000 - 2023                       |
 |                                                 |
 |     Distributed under license from Cambridge    |
 |     Enterprise for academic use only.           |
 |                                                 |
 | Please cite                                     |
 |                                                 |
 |     "First principles methods using CASTEP"     |
 |                                                 |
 |         Zeitschrift fuer Kristallographie       |
 |           220(5-6) pp. 567-570 (2005)           |
 |                                                 |
 | S. J. Clark, M. D. Segall, C. J. Pickard,       |
 | P. J. Hasnip, M. J. Probert, K. Refson,         |
 | M. C. Payne                                     |
 |                                                 |
 |       in all publications arising from          |
 |              your use of CASTEP                 |
 |                                                 |
 +-------------------------------------------------+
 |                                                 |
 |              http://www.castep.org              |
 |                                                 |
 +-------------------------------------------------+



 Compiled for  GNU 11.2.0 on 04-04-2024 18:39:17
 from code version 6355fd106 Castep241_branch Thu Mar 7 17:56:19 2024 +0000
 Compiler: GNU Fortran 11.2.0; Optimisation: FAST
 Comms   : MPI VERSION : CRAY MPICH version 8.1.23.14 (ANL base 3.4a2)
 MATHLIBS: default (LAPACK version 3.10.1)
 FFT Lib : fftw3 version commercial-fftw-3.3.10-sse2-avx-avx2-avx2_128
 Fundamental constants values: CODATA 2018

 Run started: Fri, 17 Jan 2025 05:27:48 +0000

 Atomic calculation performed for P: 1s2 2s2 2p6 3s2 3p3

 Converged in 47 iterations to an ae energy of -9309.074 eV

   ============================================================                
   | Pseudopotential Report - Date of generation 17-01-2025   |                
   ------------------------------------------------------------                
   | Element: P Ionic charge:  5.00 Level of theory: RSCAN    |                
   | Atomic Solver: Koelling-Harmon                           |                
   |                                                          |                
   |               Reference Electronic Structure             |                
   |         Orbital         Occupation         Energy        |                
   |            3s              2.000           -0.535        |                
   |            3p              3.000           -0.209        |                
   |                                                          |                
   |                 Pseudopotential Definition               |                
   |        Beta     l      e      Rc     scheme   norm       |                
   |          1      0   -0.535   1.807     qc      0         |                
   |          2      0    0.250   1.807     qc      0         |                
   |          3      1   -0.209   1.807     qc      0         |                
   |          4      1    0.250   1.807     qc      0         |                
   |          5      2    0.000   1.807     qc      0         |                
   |          6      2    0.250   1.807     qc      0         |                
   |         loc     3    0.000   1.807     pn      0         |                
   |                                                          |                
   | Augmentation charge Rinner = 1.263                       |                
   | Partial core correction Rc = 1.263                       |                
   ------------------------------------------------------------                
   | "3|1.8|4|4|5|30:31:32"                                   |                
   ------------------------------------------------------------                
   |      Author: Chris J. Pickard, Cambridge University      |                
   ============================================================                
 Warning: otfg_output_psp cannot write out meta-GGA pseudopotentials presently.

 Atomic calculation performed for In:
 1s2 2s2 2p6 3s2 3p6 3d10 4s2 4p6 4d10 5s2 5p1

 Converged in 84 iterations to an ae energy of -160093.328 eV

   ============================================================                
   | Pseudopotential Report - Date of generation 17-01-2025   |                
   ------------------------------------------------------------                
   | Element: In Ionic charge: 13.00 Level of theory: RSCAN   |                
   | Atomic Solver: Koelling-Harmon                           |                
   |                                                          |                
   |               Reference Electronic Structure             |                
   |         Orbital         Occupation         Energy        |                
   |            4d             10.000           -0.711        |                
   |            5s              2.000           -0.313        |                
   |            5p              1.000           -0.095        |                
   |                                                          |                
   |                 Pseudopotential Definition               |                
   |        Beta     l      e      Rc     scheme   norm       |                
   |          1      0   -0.313   2.501     qc      0         |                
   |          2      0    0.250   2.501     qc      0         |                
   |          3      1   -0.095   2.501     qc      0         |                
   |          4      1    0.250   2.501     qc      0         |                
   |          5      2   -0.711   2.207     qc      0         |                
   |          6      2    0.250   2.207     qc      0         |                
   |         loc     3    0.000   2.501     pn      0         |                
   |                                                          |                
   | Augmentation charge Rinner = 1.504                       |                
   | Partial core correction Rc = 1.504                       |                
   ------------------------------------------------------------                
   | "3|2.5|2.5|1.5|7|8|9|50:51:42U2.2U2.2"                   |                
   ------------------------------------------------------------                
   |      Author: Chris J. Pickard, Cambridge University      |                
   ============================================================                
 Warning: otfg_output_psp cannot write out meta-GGA pseudopotentials presently.

 Pseudo atomic calculation performed for P 3s2 3p3

 Converged in 23 iterations to a total energy of -208.0292 eV

 Pseudo atomic calculation performed for In 4d10 5s2 5p1

 Converged in 42 iterations to a total energy of -1747.4501 eV
 Calculation parallelised over 82 processes.
 Data is distributed by k-point(82-way)
 Each process may use up to 16 threads.

 ************************************ Title ************************************
 

 ***************************** General Parameters ******************************
  
 output verbosity                               : normal  (1)
 write checkpoint data to                       : StackingFaultStructs_001_110_9.check
 type of calculation                            : geometry optimization
 stress calculation                             : off
 density difference calculation                 : off
 electron localisation func (ELF) calculation   : off
 Hirshfeld analysis                             : on
 polarisation (Berry phase) analysis            : off
 molecular orbital projected DOS                : off
 deltaSCF calculation                           : off
 unlimited duration calculation
 timing information                             : on
 memory usage estimate                          : on
 write extra output files                       : on
 write final potential to formatted file        : off
 write final density to formatted file          : off
 write BibTeX reference list                    : on
 write OTFG pseudopotential files               : on
 write electrostatic potential file             : on
 write bands file                               : on
 checkpoint writing                             : off
  
 output         length unit                     : A
 output           mass unit                     : amu
 output           time unit                     : ps
 output         charge unit                     : e
 output           spin unit                     : hbar/2
 output         energy unit                     : eV
 output          force unit                     : eV/A
 output       velocity unit                     : A/ps
 output       pressure unit                     : GPa
 output     inv_length unit                     : 1/A
 output      frequency unit                     : cm-1
 output force constant unit                     : eV/A**2
 output         volume unit                     : A**3
 output   IR intensity unit                     : (D/A)**2/amu
 output         dipole unit                     : D
 output         efield unit                     : eV/A/e
 output        entropy unit                     : J/mol/K
 output    efield chi2 unit                     : pm/V
  
 wavefunctions paging                           : none
 random number generator seed                   :   52748589
 data distribution                              : optimal for this architecture
 optimization strategy                          : balance speed and memory

 *********************** Exchange-Correlation Parameters ***********************
  
 using functional                               : RSCAN
 relativistic treatment                         : Koelling-Harmon
 DFT+D: Semi-empirical dispersion correction    : off

 ************************* Pseudopotential Parameters **************************
  
 pseudopotential representation                 : reciprocal space
 <beta|phi> representation                      : reciprocal space
 spin-orbit coupling                            : off

 **************************** Basis Set Parameters *****************************
  
 plane wave basis set cut-off                   :   900.0000   eV
 size of standard grid                          :     2.0000
 size of   fine   gmax                          :    30.7390   1/A
 finite basis set correction                    : none

 **************************** Electronic Parameters ****************************
  
 number of  electrons                           :  72.00    
 net charge of system                           :  0.000    
 treating system as non-spin-polarized
 number of bands                                :         43

 ********************* Electronic Minimization Parameters **********************
  
 Method: Treating system as metallic with density mixing treatment of electrons,
         and number of  SD  steps               :          1
         and number of  CG  steps               :          4
  
 total energy / atom convergence tol.           : 0.1000E-07   eV
 eigen-energy convergence tolerance             : 0.2222E-08   eV
 max force / atom convergence tol.              : ignored
 convergence tolerance window                   :          3   cycles
 max. number of SCF cycles                      :         50
 number of fixed-spin iterations                :         10
 smearing scheme                                : Gaussian
 smearing width                                 : 0.2000       eV
 Fermi energy convergence tolerance             : 0.2721E-13   eV
 periodic dipole correction                     : NONE

 ************************** Density Mixing Parameters **************************
  
 density-mixing scheme                          : Pulay
 max. length of mixing history                  :         15
 charge density mixing amplitude                : 0.5000    
 cut-off energy for mixing                      :  900.0       eV

 *********************** Population Analysis Parameters ************************
  
 Population analysis with cutoff                :  3.000       A
 Population analysis output                     : summary and pdos components

 ********************** Geometry Optimization Parameters ***********************
  
 optimization method                            : LBFGS
 max. no. of LBFGS updates                      : unbounded
 preconditioned LBFGS is activated
 preconditioner type                            : EXP
     stabilization constant                     :     0.1000
     parameter A                                :     3.0000
     nearest neighbor distance                  : automatic
     cut-off distance                           : automatic
     parameter mu                               : automatic
 variable cell method                           : fixed basis quality
 max. number of steps                           :         30
 estimated bulk modulus                         :  500.0       GPa
 estimated <frequency>                          :  1668.       cm-1
 geom line minimiser                            : on
 with line minimiser tolerance                  :     0.4000
 total energy convergence tolerance             : 0.2000E-04   eV/atom
        max ionic |force| tolerance             : 0.1000E-02   eV/A
 max ionic |displacement| tolerance             : 0.1000E-02   A
   max |stress component| tolerance             : 0.1000       GPa
 convergence tolerance window                   :          2   steps
 backup results every                           :          5   steps
 write geom trajectory file                     : on

 *******************************************************************************
  

                           -------------------------------
                                      Unit Cell
                           -------------------------------
        Real Lattice(A)                      Reciprocal Lattice(1/A)
     4.1728310     0.0000000     0.0000000        1.505736826   0.000000000   0.000000000
     0.0000000     4.1728310     0.0000000        0.000000000   1.505736826  -0.266179148
     0.0000000     2.0864150    11.8025470        0.000000000   0.000000000   0.532358423

                       Lattice parameters(A)       Cell Angles
                    a =      4.172831          alpha =   79.975013
                    b =      4.172831          beta  =   90.000000
                    c =     11.985543          gamma =   90.000000

                       Current cell volume =           205.512069       A**3
                                   density =             2.837629   AMU/A**3
                                           =             4.711994     g/cm^3

                           -------------------------------
                                     Cell Contents
                           -------------------------------
                         Total number of ions in cell =    8
                      Total number of species in cell =    2
                        Max number of any one species =    4

            xxxxxxxxxxxxxxxxxxxxxxxxxxxxxxxxxxxxxxxxxxxxxxxxxxxxxxxxxxxx
            x  Element    Atom        Fractional coordinates of atoms  x
            x            Number           u          v          w      x
            x----------------------------------------------------------x
            x  P            1         0.500000  -0.072738   0.145477   x 
            x  P            2         0.000000   0.310514   0.378972   x 
            x  P            3         0.500000  -0.305304   0.610609   x 
            x  P            4         0.000000   0.081360   0.837280   x 
            x  In           1         0.000000  -0.017416   0.034833   x 
            x  In           2         0.500000   0.367237   0.265525   x 
            x  In           3         0.000000  -0.248557   0.497114   x 
            x  In           4         0.500000   0.134905   0.730191   x 
            xxxxxxxxxxxxxxxxxxxxxxxxxxxxxxxxxxxxxxxxxxxxxxxxxxxxxxxxxxxx


                         No user defined ionic velocities

                           -------------------------------
                                   Details of Species
                           -------------------------------

                               Mass of species in AMU
                                    P   30.9737600
                                    In  114.8180000

                          Electric Quadrupole Moment (Barn)
                                    P    1.0000000 No Isotope Defined
                                    In    0.7700000 Isotope115

                          Files used for pseudopotentials:
                                    P 3|1.8|4|4|5|30:31:32
                                    In 3|2.5|2.5|1.5|7|8|9|50:51:42U2.2U2.2

                           -------------------------------
                              k-Points For BZ Sampling
                           -------------------------------
                       MP grid size for SCF calculation is  8 10  4
                            with an offset of   0.062  0.050  0.125
                       Number of kpoints used =           164

                           -------------------------------
                               Symmetry and Constraints
                           -------------------------------

                      Maximum deviation from symmetry =  0.00000         ANG

                      Number of symmetry operations   =           1
                      Number of ionic constraints     =          16
                      Point group of crystal =     1: C1, 1, 1
                      Space group of crystal =    38: Amm2, A 2 -2

             Set iprint > 1 for details on symmetry rotations/translations

                         Centre of mass is NOT constrained
             Set iprint > 1 for details of linear ionic constraints

                         Number of cell constraints= 6
                         Cell constraints are:  0 0 0 0 0 0

                         External pressure/stress (GPa)
                          0.00000   0.00000   0.00000
                                    0.00000   0.00000
                                              0.00000
 
+---------------- MEMORY AND SCRATCH DISK ESTIMATES PER PROCESS --------------+
|                                                     Memory          Disk    |
| Baseline code, static data and system overhead      368.0 MB         0.0 MB |
| BLAS internal memory storage                          0.0 MB         0.0 MB |
| Model and support data                             1555.7 MB         0.0 MB |
| Electronic energy minimisation requirements         112.8 MB         0.0 MB |
| Force calculation requirements                       35.2 MB         0.0 MB |
|                                               ----------------------------- |
| Approx. total storage required per process         2036.5 MB         0.0 MB |
|                                                                             |
| Requirements will fluctuate during execution and may exceed these estimates |
+-----------------------------------------------------------------------------+
Calculating approximate eigenstates for fixed initial Hamiltonian
Cut-off for approx. calculation is   89.988 eV
Improving approx. states at cut-off of  450.000 eV
Resetting cut-off to  900.000 eV
Calculating total energy with cut-off of  900.000 eV.
------------------------------------------------------------------------ <-- SCF
SCF loop      Energy           Fermi           Energy gain       Timer   <-- SCF
                               energy          per atom          (sec)   <-- SCF
------------------------------------------------------------------------ <-- SCF
Initial  -7.87403598E+003  0.00000000E+000                        36.85  <-- SCF
      1  -7.84962246E+003  2.86570047E+000  -3.05169002E+000      44.41  <-- SCF
      2  -7.84964531E+003  2.86529098E+000   2.85713462E-003      51.19  <-- SCF
      3  -7.85726323E+003  3.37982406E+000   9.52239948E-001      59.36  <-- SCF
      4  -7.85860119E+003  3.46314716E+000   1.67244652E-001      68.91  <-- SCF
      5  -7.85774686E+003  3.73578995E+000  -1.06791588E-001      77.16  <-- SCF
      6  -7.85800931E+003  3.81935531E+000   3.28070977E-002      85.89  <-- SCF
      7  -7.85789912E+003  3.87436495E+000  -1.37741883E-002      94.85  <-- SCF
      8  -7.85811367E+003  3.88656016E+000   2.68188579E-002     103.17  <-- SCF
      9  -7.85812773E+003  3.85744256E+000   1.75710989E-003     111.64  <-- SCF
     10  -7.85813436E+003  3.83912413E+000   8.29148986E-004     120.08  <-- SCF
     11  -7.85813874E+003  3.84354713E+000   5.46774843E-004     129.20  <-- SCF
     12  -7.85814021E+003  3.84104146E+000   1.84308857E-004     138.69  <-- SCF
     13  -7.85814043E+003  3.84420897E+000   2.70222246E-005     147.29  <-- SCF
     14  -7.85814045E+003  3.84388664E+000   2.87729621E-006     155.29  <-- SCF
     15  -7.85814046E+003  3.84348637E+000   8.97512266E-007     163.08  <-- SCF
     16  -7.85814046E+003  3.84342698E+000   5.46414541E-008     170.07  <-- SCF
     17  -7.85814046E+003  3.84344735E+000   9.61715579E-010     176.03  <-- SCF
     18  -7.85814046E+003  3.84343850E+000   2.11542625E-009     182.56  <-- SCF
------------------------------------------------------------------------ <-- SCF
 
Final energy, E             =  -7858.132079853     eV
Final free energy (E-TS)    =  -7858.140456630     eV
(energies not corrected for finite basis set)
 
NB est. 0K energy (E-0.5TS)      =  -7858.136268241     eV
 
 
+---------------- MEMORY AND SCRATCH DISK ESTIMATES PER PROCESS --------------+
|                                                     Memory          Disk    |
| Model and support data                              916.0 MB         0.0 MB |
| Electronic energy minimisation requirements         112.8 MB         0.0 MB |
| Geometry minimisation requirements                  133.5 MB         0.0 MB |
|                                               ----------------------------- |
| Approx. total storage required per process         1162.3 MB         0.0 MB |
|                                                                             |
| Requirements will fluctuate during execution and may exceed these estimates |
+-----------------------------------------------------------------------------+
 

 ******************************** Constrained Forces ********************************
 *                                                                                  *
 *                           Cartesian components (eV/A)                            *
 * -------------------------------------------------------------------------------- *
 *                         x                    y                    z              *
 *                                                                                  *
 * P               1     -0.00000(cons'd)      0.00000(cons'd)      0.14483         *
 * P               2      0.00000(cons'd)      0.00000(cons'd)     -0.08183         *
 * P               3     -0.00000(cons'd)      0.00000(cons'd)     -0.02486         *
 * P               4      0.00000(cons'd)     -0.00000(cons'd)      0.19554         *
 * In              1      0.00000(cons'd)      0.00000(cons'd)     -0.51286         *
 * In              2     -0.00000(cons'd)      0.00000(cons'd)      0.02789         *
 * In              3      0.00000(cons'd)     -0.00000(cons'd)      0.04263         *
 * In              4      0.00000(cons'd)      0.00000(cons'd)      0.20868         *
 *                                                                                  *
 ************************************************************************************
 EXP precond LBFGS => estimated nearest neighbor distance :  2.479       A
 EXP precond LBFGS => estimated cutoff distance :  4.959       A

 ************************************** Forces **************************************
 *                                                                                  *
 *                           Cartesian components (eV/A)                            *
 * -------------------------------------------------------------------------------- *
 *                         x                    y                    z              *
 *                                                                                  *
 * P               1      0.00001(cons'd)      0.00401(cons'd)      0.14483         *
 * P               2     -0.00001(cons'd)     -0.00175(cons'd)     -0.08183         *
 * P               3      0.00001(cons'd)     -0.00346(cons'd)     -0.02486         *
 * P               4     -0.00001(cons'd)      0.00415(cons'd)      0.19554         *
 * In              1     -0.00001(cons'd)     -0.00061(cons'd)     -0.51286         *
 * In              2      0.00001(cons'd)     -0.00083(cons'd)      0.02789         *
 * In              3     -0.00001(cons'd)     -0.00077(cons'd)      0.04263         *
 * In              4      0.00001(cons'd)     -0.00075(cons'd)      0.20868         *
 *                                                                                  *
 ************************************************************************************
 doing test perturbation to get energy scale for EXP preconditioner

                           -------------------------------
                                     Cell Contents
                           -------------------------------

            xxxxxxxxxxxxxxxxxxxxxxxxxxxxxxxxxxxxxxxxxxxxxxxxxxxxxxxxxxxxxxxxx
            x  Element         Atom        Fractional coordinates of atoms  x
            x                 Number           u          v          w      x
            x---------------------------------------------------------------x
            x  P                 1         0.505000   0.932475   0.145855   x
            x  P                 2         0.000000   0.315036   0.379928   x
            x  P                 3         0.505000   0.699374   0.612057   x
            x  P                 4         0.000000   0.085452   0.839096   x
            x  In                1         0.000000   0.987941   0.034924   x
            x  In                2         0.505000   0.371896   0.266207   x
            x  In                3         0.000000   0.756236   0.498334   x
            x  In                4         0.505000   0.139075   0.731849   x
            xxxxxxxxxxxxxxxxxxxxxxxxxxxxxxxxxxxxxxxxxxxxxxxxxxxxxxxxxxxxxxxxx


------------------------------------------------------------------------ <-- SCF
SCF loop      Energy           Fermi           Energy gain       Timer   <-- SCF
                               energy          per atom          (sec)   <-- SCF
------------------------------------------------------------------------ <-- SCF
Initial  -7.85760711E+003  0.00000000E+000                       194.72  <-- SCF
      1  -7.85807392E+003  3.83394929E+000   5.83518161E-002     202.01  <-- SCF
      2  -7.85813449E+003  3.83378341E+000   7.57064880E-003     211.68  <-- SCF
      3  -7.85813482E+003  3.83423347E+000   4.12723000E-005     220.37  <-- SCF
      4  -7.85813525E+003  3.83557543E+000   5.43123467E-005     228.63  <-- SCF
      5  -7.85813532E+003  3.83589096E+000   8.27941618E-006     237.54  <-- SCF
      6  -7.85813534E+003  3.83602928E+000   2.05548317E-006     246.05  <-- SCF
      7  -7.85813534E+003  3.83604512E+000   1.28220817E-007     253.41  <-- SCF
      8  -7.85813534E+003  3.83607442E+000   2.44195324E-008     259.87  <-- SCF
      9  -7.85813534E+003  3.83608125E+000   1.30220234E-009     266.02  <-- SCF
     10  -7.85813534E+003  3.83608006E+000   2.98916824E-010     272.01  <-- SCF
     11  -7.85813534E+003  3.83607784E+000   1.02474720E-010     277.78  <-- SCF
------------------------------------------------------------------------ <-- SCF
 
Final energy, E             =  -7858.128566186     eV
Final free energy (E-TS)    =  -7858.135338338     eV
(energies not corrected for finite basis set)
 
NB est. 0K energy (E-0.5TS)      =  -7858.131952262     eV
 

 ************************************** Forces **************************************
 *                                                                                  *
 *                           Cartesian components (eV/A)                            *
 * -------------------------------------------------------------------------------- *
 *                         x                    y                    z              *
 *                                                                                  *
 * P               1     -0.24750(cons'd)     -0.01440(cons'd)      0.17194         *
 * P               2      0.24664(cons'd)      0.01100(cons'd)     -0.07459         *
 * P               3     -0.24251(cons'd)     -0.01497(cons'd)     -0.01777         *
 * P               4      0.28941(cons'd)      0.00408(cons'd)     -0.08845         *
 * In              1      0.21575(cons'd)      0.00131(cons'd)     -0.22455         *
 * In              2     -0.21668(cons'd)      0.01336(cons'd)      0.02014         *
 * In              3      0.21562(cons'd)     -0.01429(cons'd)      0.03105         *
 * In              4     -0.26072(cons'd)      0.01391(cons'd)      0.18223         *
 *                                                                                  *
 ************************************************************************************
 EXP precond LBFGS => estimated parameter mu :  6.980       eV/A**2
 LBFGS: finished iteration     0 with enthalpy= -7.85814046E+003 eV
  
 +-----------+-----------------+-----------------+------------+-----+ <-- LBFGS
 | Parameter |      value      |    tolerance    |    units   | OK? | <-- LBFGS
 +-----------+-----------------+-----------------+------------+-----+ <-- LBFGS
 |  dE/ion   |   0.000000E+000 |   2.000000E-005 |         eV | No  | <-- LBFGS
 |  |F|max   |   3.183952E-001 |   1.000000E-003 |       eV/A | No  | <-- LBFGS
 |  |dR|max  |   9.681274E-016 |   1.000000E-003 |          A | No  | <-- LBFGS
 +-----------+-----------------+-----------------+------------+-----+ <-- LBFGS
  

================================================================================
 Starting LBFGS iteration          1 ...
================================================================================
  
 +------------+-------------+-------------+-----------------+ <-- min LBFGS
 |    Step    |   lambda    |   F.delta'  |    enthalpy     | <-- min LBFGS
 +------------+-------------+-------------+-----------------+ <-- min LBFGS
 |  previous  |    0.000000 |    0.212174 |    -7858.140457 | <-- min LBFGS
 +------------+-------------+-------------+-----------------+ <-- min LBFGS
  

--------------------------------------------------------------------------------
 LBFGS: starting iteration         1 with trial guess (lambda=  1.000000)
--------------------------------------------------------------------------------

                           -------------------------------
                                     Cell Contents
                           -------------------------------

            xxxxxxxxxxxxxxxxxxxxxxxxxxxxxxxxxxxxxxxxxxxxxxxxxxxxxxxxxxxxxxxxx
            x  Element         Atom        Fractional coordinates of atoms  x
            x                 Number           u          v          w      x
            x---------------------------------------------------------------x
            x  P                 1         0.500000  -0.072649   0.145299   x
            x  P                 2         0.000000   0.310669   0.378662   x
            x  P                 3         0.500000  -0.305584   0.611168   x
            x  P                 4         0.000000   0.081116   0.837768   x
            x  In                1         0.000000  -0.016355   0.032711   x
            x  In                2         0.500000   0.367313   0.265375   x
            x  In                3         0.000000  -0.248752   0.497503   x
            x  In                4         0.500000   0.134243   0.731514   x
            xxxxxxxxxxxxxxxxxxxxxxxxxxxxxxxxxxxxxxxxxxxxxxxxxxxxxxxxxxxxxxxxx


------------------------------------------------------------------------ <-- SCF
SCF loop      Energy           Fermi           Energy gain       Timer   <-- SCF
                               energy          per atom          (sec)   <-- SCF
------------------------------------------------------------------------ <-- SCF
Initial  -7.85752320E+003  0.00000000E+000                       284.62  <-- SCF
      1  -7.85808280E+003  3.83121869E+000   6.99503168E-002     291.76  <-- SCF
      2  -7.85814762E+003  3.83106281E+000   8.10241075E-003     302.61  <-- SCF
      3  -7.85814818E+003  3.83092363E+000   6.93209111E-005     312.11  <-- SCF
      4  -7.85814861E+003  3.82935466E+000   5.38101848E-005     321.03  <-- SCF
      5  -7.85814866E+003  3.82849320E+000   6.61255717E-006     331.79  <-- SCF
      6  -7.85814867E+003  3.82768003E+000   1.43589492E-006     340.45  <-- SCF
      7  -7.85814867E+003  3.82735074E+000  -4.95523275E-008     348.34  <-- SCF
      8  -7.85814867E+003  3.82704411E+000  -3.94432931E-008     355.99  <-- SCF
      9  -7.85814867E+003  3.82694516E+000   5.77338705E-010     362.74  <-- SCF
     10  -7.85814867E+003  3.82689102E+000   1.49709765E-009     369.15  <-- SCF
     11  -7.85814867E+003  3.82689281E+000   6.72659529E-010     375.78  <-- SCF
------------------------------------------------------------------------ <-- SCF
 
Final energy, E             =  -7858.143340637     eV
Final free energy (E-TS)    =  -7858.148670391     eV
(energies not corrected for finite basis set)
 
NB est. 0K energy (E-0.5TS)      =  -7858.146005514     eV
 

 ******************************** Constrained Forces ********************************
 *                                                                                  *
 *                           Cartesian components (eV/A)                            *
 * -------------------------------------------------------------------------------- *
 *                         x                    y                    z              *
 *                                                                                  *
 * P               1     -0.00000(cons'd)      0.00000(cons'd)      0.03612         *
 * P               2      0.00000(cons'd)      0.00000(cons'd)     -0.01420         *
 * P               3     -0.00000(cons'd)      0.00000(cons'd)      0.00999         *
 * P               4     -0.00000(cons'd)      0.00000(cons'd)     -0.16138         *
 * In              1      0.00000(cons'd)      0.00000(cons'd)      0.05312         *
 * In              2      0.00000(cons'd)     -0.00000(cons'd)     -0.00048         *
 * In              3      0.00000(cons'd)     -0.00000(cons'd)      0.00817         *
 * In              4      0.00000(cons'd)      0.00000(cons'd)      0.06864         *
 *                                                                                  *
 ************************************************************************************
  
 +------------+-------------+-------------+-----------------+ <-- min LBFGS
 |    Step    |   lambda    |   F.delta'  |    enthalpy     | <-- min LBFGS
 +------------+-------------+-------------+-----------------+ <-- min LBFGS
 |  previous  |    0.000000 |    0.212174 |    -7858.140457 | <-- min LBFGS
 | trial step |    1.000000 |   -0.013654 |    -7858.148670 | <-- min LBFGS
 +------------+-------------+-------------+-----------------+ <-- min LBFGS
  
 LBFGS: finished iteration     1 with enthalpy= -7.85814867E+003 eV
  
 +-----------+-----------------+-----------------+------------+-----+ <-- LBFGS
 | Parameter |      value      |    tolerance    |    units   | OK? | <-- LBFGS
 +-----------+-----------------+-----------------+------------+-----+ <-- LBFGS
 |  dE/ion   |   1.026720E-003 |   2.000000E-005 |         eV | No  | <-- LBFGS
 |  |F|max   |   1.613803E-001 |   1.000000E-003 |       eV/A | No  | <-- LBFGS
 |  |dR|max  |   2.504336E-002 |   1.000000E-003 |          A | No  | <-- LBFGS
 +-----------+-----------------+-----------------+------------+-----+ <-- LBFGS
  

================================================================================
 Starting LBFGS iteration          2 ...
================================================================================
  
 +------------+-------------+-------------+-----------------+ <-- min LBFGS
 |    Step    |   lambda    |   F.delta'  |    enthalpy     | <-- min LBFGS
 +------------+-------------+-------------+-----------------+ <-- min LBFGS
 |  previous  |    0.000000 |    0.063372 |    -7858.148670 | <-- min LBFGS
 +------------+-------------+-------------+-----------------+ <-- min LBFGS
  

--------------------------------------------------------------------------------
 LBFGS: starting iteration         2 with trial guess (lambda=  1.000000)
--------------------------------------------------------------------------------

                           -------------------------------
                                     Cell Contents
                           -------------------------------

            xxxxxxxxxxxxxxxxxxxxxxxxxxxxxxxxxxxxxxxxxxxxxxxxxxxxxxxxxxxxxxxxx
            x  Element         Atom        Fractional coordinates of atoms  x
            x                 Number           u          v          w      x
            x---------------------------------------------------------------x
            x  P                 1         0.500000  -0.072740   0.145480   x
            x  P                 2         0.000000   0.310669   0.378662   x
            x  P                 3         0.500000  -0.305643   0.611286   x
            x  P                 4        -0.000000   0.081398   0.837204   x
            x  In                1         0.000000  -0.016303   0.032605   x
            x  In                2         0.500000   0.367272   0.265456   x
            x  In                3         0.000000  -0.248802   0.497603   x
            x  In                4         0.500000   0.134148   0.731704   x
            xxxxxxxxxxxxxxxxxxxxxxxxxxxxxxxxxxxxxxxxxxxxxxxxxxxxxxxxxxxxxxxxx


------------------------------------------------------------------------ <-- SCF
SCF loop      Energy           Fermi           Energy gain       Timer   <-- SCF
                               energy          per atom          (sec)   <-- SCF
------------------------------------------------------------------------ <-- SCF
Initial  -7.85812733E+003  0.00000000E+000                       383.30  <-- SCF
      1  -7.85814927E+003  3.82706939E+000   2.74256363E-003     390.33  <-- SCF
      2  -7.85814945E+003  3.82706729E+000   2.22826723E-005     400.55  <-- SCF
      3  -7.85814941E+003  3.82659541E+000  -4.79021616E-006     409.22  <-- SCF
      4  -7.85814940E+003  3.82576450E+000  -1.26432981E-006     417.66  <-- SCF
      5  -7.85814940E+003  3.82526136E+000  -1.54216526E-007     425.33  <-- SCF
      6  -7.85814940E+003  3.82488938E+000  -8.27241677E-008     432.60  <-- SCF
      7  -7.85814940E+003  3.82478456E+000  -4.57114590E-009     439.27  <-- SCF
      8  -7.85814940E+003  3.82473521E+000   1.42691214E-010     445.84  <-- SCF
------------------------------------------------------------------------ <-- SCF
 
Final energy, E             =  -7858.143939495     eV
Final free energy (E-TS)    =  -7858.149400783     eV
(energies not corrected for finite basis set)
 
NB est. 0K energy (E-0.5TS)      =  -7858.146670139     eV
 

 ******************************** Constrained Forces ********************************
 *                                                                                  *
 *                           Cartesian components (eV/A)                            *
 * -------------------------------------------------------------------------------- *
 *                         x                    y                    z              *
 *                                                                                  *
 * P               1     -0.00000(cons'd)      0.00000(cons'd)      0.00240         *
 * P               2      0.00000(cons'd)      0.00000(cons'd)     -0.00465         *
 * P               3     -0.00000(cons'd)      0.00000(cons'd)      0.00189         *
 * P               4      0.00000(cons'd)      0.00000(cons'd)     -0.02311         *
 * In              1      0.00000(cons'd)      0.00000(cons'd)      0.00057         *
 * In              2      0.00000(cons'd)      0.00000(cons'd)      0.00223         *
 * In              3      0.00000(cons'd)     -0.00000(cons'd)      0.00772         *
 * In              4      0.00000(cons'd)      0.00000(cons'd)      0.01296         *
 *                                                                                  *
 ************************************************************************************
  
 +------------+-------------+-------------+-----------------+ <-- min LBFGS
 |    Step    |   lambda    |   F.delta'  |    enthalpy     | <-- min LBFGS
 +------------+-------------+-------------+-----------------+ <-- min LBFGS
 |  previous  |    0.000000 |    0.063372 |    -7858.148670 | <-- min LBFGS
 | trial step |    1.000000 |    0.010100 |    -7858.149401 | <-- min LBFGS
 +------------+-------------+-------------+-----------------+ <-- min LBFGS
  
 LBFGS: finished iteration     2 with enthalpy= -7.85814940E+003 eV
  
 +-----------+-----------------+-----------------+------------+-----+ <-- LBFGS
 | Parameter |      value      |    tolerance    |    units   | OK? | <-- LBFGS
 +-----------+-----------------+-----------------+------------+-----+ <-- LBFGS
 |  dE/ion   |   9.129900E-005 |   2.000000E-005 |         eV | No  | <-- LBFGS
 |  |F|max   |   2.310925E-002 |   1.000000E-003 |       eV/A | No  | <-- LBFGS
 |  |dR|max  |   6.658644E-003 |   1.000000E-003 |          A | No  | <-- LBFGS
 +-----------+-----------------+-----------------+------------+-----+ <-- LBFGS
  

================================================================================
 Starting LBFGS iteration          3 ...
================================================================================
  
 +------------+-------------+-------------+-----------------+ <-- min LBFGS
 |    Step    |   lambda    |   F.delta'  |    enthalpy     | <-- min LBFGS
 +------------+-------------+-------------+-----------------+ <-- min LBFGS
 |  previous  |    0.000000 |    0.009036 |    -7858.149401 | <-- min LBFGS
 +------------+-------------+-------------+-----------------+ <-- min LBFGS
  

--------------------------------------------------------------------------------
 LBFGS: starting iteration         3 with trial guess (lambda=  1.000000)
--------------------------------------------------------------------------------

                           -------------------------------
                                     Cell Contents
                           -------------------------------

            xxxxxxxxxxxxxxxxxxxxxxxxxxxxxxxxxxxxxxxxxxxxxxxxxxxxxxxxxxxxxxxxx
            x  Element         Atom        Fractional coordinates of atoms  x
            x                 Number           u          v          w      x
            x---------------------------------------------------------------x
            x  P                 1         0.500000  -0.072738   0.145477   x
            x  P                 2         0.000000   0.310667   0.378665   x
            x  P                 3         0.500000  -0.305671   0.611342   x
            x  P                 4        -0.000000   0.081461   0.837078   x
            x  In                1         0.000000  -0.016262   0.032524   x
            x  In                2         0.500000   0.367264   0.265472   x
            x  In                3         0.000000  -0.248838   0.497675   x
            x  In                4         0.500000   0.134117   0.731766   x
            xxxxxxxxxxxxxxxxxxxxxxxxxxxxxxxxxxxxxxxxxxxxxxxxxxxxxxxxxxxxxxxxx


------------------------------------------------------------------------ <-- SCF
SCF loop      Energy           Fermi           Energy gain       Timer   <-- SCF
                               energy          per atom          (sec)   <-- SCF
------------------------------------------------------------------------ <-- SCF
Initial  -7.85813986E+003  0.00000000E+000                       453.21  <-- SCF
      1  -7.85814939E+003  3.82436671E+000   1.19090229E-003     460.29  <-- SCF
      2  -7.85814943E+003  3.82436658E+000   4.80220474E-006     470.69  <-- SCF
      3  -7.85814943E+003  3.82431113E+000  -1.35372005E-007     478.53  <-- SCF
      4  -7.85814943E+003  3.82415399E+000  -3.14719200E-008     486.31  <-- SCF
      5  -7.85814943E+003  3.82404283E+000  -5.03073535E-009     492.65  <-- SCF
      6  -7.85814943E+003  3.82395809E+000  -3.21693281E-009     499.48  <-- SCF
------------------------------------------------------------------------ <-- SCF
 
Final energy, E             =  -7858.143993640     eV
Final free energy (E-TS)    =  -7858.149428313     eV
(energies not corrected for finite basis set)
 
NB est. 0K energy (E-0.5TS)      =  -7858.146710976     eV
 

 ******************************** Constrained Forces ********************************
 *                                                                                  *
 *                           Cartesian components (eV/A)                            *
 * -------------------------------------------------------------------------------- *
 *                         x                    y                    z              *
 *                                                                                  *
 * P               1     -0.00000(cons'd)      0.00000(cons'd)     -0.00298         *
 * P               2      0.00000(cons'd)      0.00000(cons'd)     -0.00031         *
 * P               3     -0.00000(cons'd)      0.00000(cons'd)      0.00005         *
 * P               4      0.00000(cons'd)      0.00000(cons'd)     -0.00045         *
 * In              1      0.00000(cons'd)      0.00000(cons'd)      0.00119         *
 * In              2      0.00000(cons'd)      0.00000(cons'd)      0.00058         *
 * In              3     -0.00000(cons'd)      0.00000(cons'd)      0.00250         *
 * In              4      0.00000(cons'd)      0.00000(cons'd)     -0.00058         *
 *                                                                                  *
 ************************************************************************************
  
 +------------+-------------+-------------+-----------------+ <-- min LBFGS
 |    Step    |   lambda    |   F.delta'  |    enthalpy     | <-- min LBFGS
 +------------+-------------+-------------+-----------------+ <-- min LBFGS
 |  previous  |    0.000000 |    0.009036 |    -7858.149401 | <-- min LBFGS
 | trial step |    1.000000 |    0.000253 |    -7858.149428 | <-- min LBFGS
 +------------+-------------+-------------+-----------------+ <-- min LBFGS
  
 LBFGS: finished iteration     3 with enthalpy= -7.85814943E+003 eV
  
 +-----------+-----------------+-----------------+------------+-----+ <-- LBFGS
 | Parameter |      value      |    tolerance    |    units   | OK? | <-- LBFGS
 +-----------+-----------------+-----------------+------------+-----+ <-- LBFGS
 |  dE/ion   |   3.441184E-006 |   2.000000E-005 |         eV | Yes | <-- LBFGS
 |  |F|max   |   2.976180E-003 |   1.000000E-003 |       eV/A | No  | <-- LBFGS
 |  |dR|max  |   1.493158E-003 |   1.000000E-003 |          A | No  | <-- LBFGS
 +-----------+-----------------+-----------------+------------+-----+ <-- LBFGS
  

================================================================================
 Starting LBFGS iteration          4 ...
================================================================================
  
 +------------+-------------+-------------+-----------------+ <-- min LBFGS
 |    Step    |   lambda    |   F.delta'  |    enthalpy     | <-- min LBFGS
 +------------+-------------+-------------+-----------------+ <-- min LBFGS
 |  previous  |    0.000000 |    0.001348 |    -7858.149428 | <-- min LBFGS
 +------------+-------------+-------------+-----------------+ <-- min LBFGS
  

--------------------------------------------------------------------------------
 LBFGS: starting iteration         4 with trial guess (lambda=  1.000000)
--------------------------------------------------------------------------------

                           -------------------------------
                                     Cell Contents
                           -------------------------------

            xxxxxxxxxxxxxxxxxxxxxxxxxxxxxxxxxxxxxxxxxxxxxxxxxxxxxxxxxxxxxxxxx
            x  Element         Atom        Fractional coordinates of atoms  x
            x                 Number           u          v          w      x
            x---------------------------------------------------------------x
            x  P                 1         0.500000  -0.072731   0.145461   x
            x  P                 2         0.000000   0.310666   0.378669   x
            x  P                 3         0.500000  -0.305674   0.611349   x
            x  P                 4        -0.000000   0.081464   0.837072   x
            x  In                1         0.000000  -0.016260   0.032521   x
            x  In                2         0.500000   0.367264   0.265472   x
            x  In                3        -0.000000  -0.248846   0.497692   x
            x  In                4         0.500000   0.134117   0.731766   x
            xxxxxxxxxxxxxxxxxxxxxxxxxxxxxxxxxxxxxxxxxxxxxxxxxxxxxxxxxxxxxxxxx


------------------------------------------------------------------------ <-- SCF
SCF loop      Energy           Fermi           Energy gain       Timer   <-- SCF
                               energy          per atom          (sec)   <-- SCF
------------------------------------------------------------------------ <-- SCF
Initial  -7.85814313E+003  0.00000000E+000                       506.82  <-- SCF
      1  -7.85814943E+003  3.82389605E+000   7.86944986E-004     514.11  <-- SCF
      2  -7.85814943E+003  3.82389605E+000   8.07069625E-008     521.85  <-- SCF
      3  -7.85814943E+003  3.82390959E+000   1.56322285E-009     527.94  <-- SCF
      4  -7.85814943E+003  3.82391784E+000   9.72156399E-010     534.55  <-- SCF
------------------------------------------------------------------------ <-- SCF
 
Final energy, E             =  -7858.143992177     eV
Final free energy (E-TS)    =  -7858.149429177     eV
(energies not corrected for finite basis set)
 
NB est. 0K energy (E-0.5TS)      =  -7858.146710677     eV
 

 ******************************** Constrained Forces ********************************
 *                                                                                  *
 *                           Cartesian components (eV/A)                            *
 * -------------------------------------------------------------------------------- *
 *                         x                    y                    z              *
 *                                                                                  *
 * P               1      0.00000(cons'd)     -0.00000(cons'd)     -0.00171         *
 * P               2      0.00000(cons'd)      0.00000(cons'd)     -0.00007         *
 * P               3      0.00000(cons'd)      0.00000(cons'd)      0.00033         *
 * P               4      0.00000(cons'd)      0.00000(cons'd)     -0.00019         *
 * In              1      0.00000(cons'd)      0.00000(cons'd)      0.00006         *
 * In              2      0.00000(cons'd)      0.00000(cons'd)      0.00049         *
 * In              3      0.00000(cons'd)      0.00000(cons'd)      0.00066         *
 * In              4      0.00000(cons'd)      0.00000(cons'd)      0.00042         *
 *                                                                                  *
 ************************************************************************************
  
 +------------+-------------+-------------+-----------------+ <-- min LBFGS
 |    Step    |   lambda    |   F.delta'  |    enthalpy     | <-- min LBFGS
 +------------+-------------+-------------+-----------------+ <-- min LBFGS
 |  previous  |    0.000000 |    0.001348 |    -7858.149428 | <-- min LBFGS
 | trial step |    1.000000 |    0.000626 |    -7858.149429 | <-- min LBFGS
 +------------+-------------+-------------+-----------------+ <-- min LBFGS
  

--------------------------------------------------------------------------------
 LBFGS: improving iteration         4 with line minimization (lambda=  1.866841)
--------------------------------------------------------------------------------

                           -------------------------------
                                     Cell Contents
                           -------------------------------

            xxxxxxxxxxxxxxxxxxxxxxxxxxxxxxxxxxxxxxxxxxxxxxxxxxxxxxxxxxxxxxxxx
            x  Element         Atom        Fractional coordinates of atoms  x
            x                 Number           u          v          w      x
            x---------------------------------------------------------------x
            x  P                 1         0.500000  -0.072724   0.145447   x
            x  P                 2         0.000000   0.310664   0.378671   x
            x  P                 3         0.500000  -0.305677   0.611354   x
            x  P                 4        -0.000000   0.081467   0.837067   x
            x  In                1         0.000000  -0.016259   0.032518   x
            x  In                2         0.500000   0.367264   0.265471   x
            x  In                3        -0.000000  -0.248853   0.497706   x
            x  In                4         0.500000   0.134117   0.731765   x
            xxxxxxxxxxxxxxxxxxxxxxxxxxxxxxxxxxxxxxxxxxxxxxxxxxxxxxxxxxxxxxxxx


------------------------------------------------------------------------ <-- SCF
SCF loop      Energy           Fermi           Energy gain       Timer   <-- SCF
                               energy          per atom          (sec)   <-- SCF
------------------------------------------------------------------------ <-- SCF
Initial  -7.85814374E+003  0.00000000E+000                       542.62  <-- SCF
      1  -7.85814943E+003  3.82387797E+000   7.11346249E-004     549.53  <-- SCF
      2  -7.85814943E+003  3.82387797E+000   6.02153055E-008     556.89  <-- SCF
      3  -7.85814943E+003  3.82389150E+000   1.68638586E-009     563.40  <-- SCF
      4  -7.85814943E+003  3.82390346E+000   9.54368334E-010     570.54  <-- SCF
------------------------------------------------------------------------ <-- SCF
 
Final energy, E             =  -7858.143990221     eV
Final free energy (E-TS)    =  -7858.149429397     eV
(energies not corrected for finite basis set)
 
NB est. 0K energy (E-0.5TS)      =  -7858.146709809     eV
 

 ******************************** Constrained Forces ********************************
 *                                                                                  *
 *                           Cartesian components (eV/A)                            *
 * -------------------------------------------------------------------------------- *
 *                         x                    y                    z              *
 *                                                                                  *
 * P               1     -0.00000(cons'd)      0.00000(cons'd)     -0.00011         *
 * P               2      0.00000(cons'd)      0.00000(cons'd)      0.00016         *
 * P               3     -0.00000(cons'd)      0.00000(cons'd)      0.00024         *
 * P               4      0.00000(cons'd)      0.00000(cons'd)      0.00042         *
 * In              1      0.00000(cons'd)      0.00000(cons'd)     -0.00085         *
 * In              2      0.00000(cons'd)      0.00000(cons'd)      0.00015         *
 * In              3      0.00000(cons'd)      0.00000(cons'd)     -0.00070         *
 * In              4      0.00000(cons'd)      0.00000(cons'd)      0.00069         *
 *                                                                                  *
 ************************************************************************************
  
 +------------+-------------+-------------+-----------------+ <-- min LBFGS
 |    Step    |   lambda    |   F.delta'  |    enthalpy     | <-- min LBFGS
 +------------+-------------+-------------+-----------------+ <-- min LBFGS
 |  previous  |    0.000000 |    0.001348 |    -7858.149428 | <-- min LBFGS
 | trial step |    1.000000 |    0.000626 |    -7858.149429 | <-- min LBFGS
 |  line step |    1.866841 |   -0.000124 |    -7858.149429 | <-- min LBFGS
 +------------+-------------+-------------+-----------------+ <-- min LBFGS
  
 LBFGS: finished iteration     4 with enthalpy= -7.85814943E+003 eV
  
 +-----------+-----------------+-----------------+------------+-----+ <-- LBFGS
 | Parameter |      value      |    tolerance    |    units   | OK? | <-- LBFGS
 +-----------+-----------------+-----------------+------------+-----+ <-- LBFGS
 |  dE/ion   |   1.354756E-007 |   2.000000E-005 |         eV | Yes | <-- LBFGS
 |  |F|max   |   8.488831E-004 |   1.000000E-003 |       eV/A | Yes | <-- LBFGS
 |  |dR|max  |   3.599817E-004 |   1.000000E-003 |          A | Yes | <-- LBFGS
 +-----------+-----------------+-----------------+------------+-----+ <-- LBFGS
  
 Hirshfeld supercell size:           4           4           2
Standard grid dimensions: 180 180 240
Fine grid dimensions:     180 180 240

 LBFGS: Geometry optimization completed successfully.

================================================================================
 LBFGS: Final Configuration:
================================================================================

                           -------------------------------
                                     Cell Contents
                           -------------------------------

            xxxxxxxxxxxxxxxxxxxxxxxxxxxxxxxxxxxxxxxxxxxxxxxxxxxxxxxxxxxxxxxxx
            x  Element         Atom        Fractional coordinates of atoms  x
            x                 Number           u          v          w      x
            x---------------------------------------------------------------x
            x  P                 1         0.500000  -0.072724   0.145447   x
            x  P                 2         0.000000   0.310664   0.378671   x
            x  P                 3         0.500000  -0.305677   0.611354   x
            x  P                 4        -0.000000   0.081467   0.837067   x
            x  In                1         0.000000  -0.016259   0.032518   x
            x  In                2         0.500000   0.367264   0.265471   x
            x  In                3        -0.000000  -0.248853   0.497706   x
            x  In                4         0.500000   0.134117   0.731765   x
            xxxxxxxxxxxxxxxxxxxxxxxxxxxxxxxxxxxxxxxxxxxxxxxxxxxxxxxxxxxxxxxxx


 LBFGS: Final Enthalpy     = -7.85814943E+003 eV
 LBFGS: Final <frequency>  =     422.41229 cm-1

 ******************* Unconstrained Forces *******************
 *                                                          *
 *               Cartesian components (eV/A)                *
 * -------------------------------------------------------- *
 *                         x            y            z      *
 *                                                          *
 * P               1      0.00001      0.00411     -0.00011 *
 * P               2     -0.00001     -0.00175      0.00016 *
 * P               3      0.00001     -0.00434      0.00024 *
 * P               4     -0.00001      0.00433      0.00042 *
 * In              1     -0.00000     -0.00048     -0.00085 *
 * In              2      0.00001     -0.00068      0.00015 *
 * In              3     -0.00001     -0.00062     -0.00070 *
 * In              4      0.00001     -0.00057      0.00069 *
 *                                                          *
 ************************************************************

 ******************************** Constrained Forces ********************************
 *                                                                                  *
 *                           Cartesian components (eV/A)                            *
 * -------------------------------------------------------------------------------- *
 *                         x                    y                    z              *
 *                                                                                  *
 * P               1     -0.00000(cons'd)     -0.00000(cons'd)     -0.00011         *
 * P               2      0.00000(cons'd)      0.00000(cons'd)      0.00016         *
 * P               3      0.00000(cons'd)      0.00000(cons'd)      0.00024         *
 * P               4      0.00000(cons'd)     -0.00000(cons'd)      0.00042         *
 * In              1      0.00000(cons'd)      0.00000(cons'd)     -0.00085         *
 * In              2      0.00000(cons'd)      0.00000(cons'd)      0.00015         *
 * In              3      0.00000(cons'd)      0.00000(cons'd)     -0.00070         *
 * In              4      0.00000(cons'd)      0.00000(cons'd)      0.00069         *
 *                                                                                  *
 ************************************************************************************

 Pseudo atomic calculation performed for P 3s2 3p3

 Converged in 23 iterations to a total energy of -208.0292 eV

 Pseudo atomic calculation performed for In 4d10 5s2 5p1

 Converged in 42 iterations to a total energy of -1747.4501 eV
Charge spilling parameter for spin component 1 = 0.21%

            Orbital Populations       
     Ion    Atom   Orbital             Charge
  -------------------------------------------
      P     1      S                    1.724
      P     1      Px                   1.282
      P     1      Py                   1.339
      P     1      Pz                   1.348
      P     2      S                    1.716
      P     2      Px                   1.290
      P     2      Py                   1.348
      P     2      Pz                   1.332
      P     3      S                    1.720
      P     3      Px                   1.284
      P     3      Py                   1.343
      P     3      Pz                   1.332
      P     4      S                    1.680
      P     4      Px                   1.289
      P     4      Py                   1.523
      P     4      Pz                   1.202
     In     1      Dzz                  1.993
     In     1      Dzy                  1.999
     In     1      Dzx                  1.996
     In     1      Dxx-yy               1.996
     In     1      Dxy                  1.999
     In     1      S                    1.511
     In     1      Px                   0.473
     In     1      Py                   0.491
     In     1      Pz                   0.522
     In     1      S                   -0.610
     In     2      Dzz                  1.999
     In     2      Dzy                  1.997
     In     2      Dzx                  1.996
     In     2      Dxx-yy               1.996
     In     2      Dxy                  1.999
     In     2      S                    1.419
     In     2      Px                   0.521
     In     2      Py                   0.478
     In     2      Pz                   0.454
     In     2      S                   -0.569
     In     3      Dzz                  1.999
     In     3      Dzy                  1.997
     In     3      Dzx                  1.996
     In     3      Dxx-yy               1.996
     In     3      Dxy                  1.999
     In     3      S                    1.420
     In     3      Px                   0.524
     In     3      Py                   0.480
     In     3      Pz                   0.462
     In     3      S                   -0.589
     In     4      Dzz                  1.999
     In     4      Dzy                  1.997
     In     4      Dzx                  1.995
     In     4      Dxx-yy               1.995
     In     4      Dxy                  1.999
     In     4      S                    1.472
     In     4      Px                   0.496
     In     4      Py                   0.501
     In     4      Pz                   0.471
     In     4      S                   -0.620
  -------------------------------------------
                           Total:      72.000
  -------------------------------------------

     Atomic Populations (Mulliken)
     -----------------------------
Species          Ion     s       p       d       f      Total   Charge (e)
==========================================================================
  P               1     1.724   3.969   0.000   0.000   5.693    -0.693
  P               2     1.716   3.970   0.000   0.000   5.687    -0.687
  P               3     1.720   3.960   0.000   0.000   5.680    -0.680
  P               4     1.680   4.014   0.000   0.000   5.694    -0.694
  In              1     0.901   1.485   9.983   0.000  12.369     0.631
  In              2     0.850   1.452   9.986   0.000  12.289     0.711
  In              3     0.831   1.466   9.986   0.000  12.283     0.717
  In              4     0.852   1.468   9.985   0.000  12.305     0.695
==========================================================================

                 Bond                   Population      Length (A)
======================================================================
               P 4 -- In 1                   0.92        2.30682
               P 4 -- In 4                   1.47        2.42853
               P 1 -- In 1                   1.16        2.47581
               P 2 -- In 2                   1.36        2.47753
               P 3 -- In 3                   1.36        2.48039
               P 2 -- In 3                   1.08        2.51533
               P 1 -- In 2                   1.12        2.52187
               P 3 -- In 4                   1.01        2.52444
======================================================================

 Hirshfeld supercell size:           4           4           2
Standard grid dimensions: 180 180 240
Fine grid dimensions:     180 180 240


     Hirshfeld Analysis
     ------------------
Species   Ion     Hirshfeld Charge (e)
======================================
  P        1                -0.23
  P        2                -0.24
  P        3                -0.23
  P        4                -0.28
  In       1                 0.26
  In       2                 0.24
  In       3                 0.24
  In       4                 0.25
======================================

 
 A BibTeX formatted list of references used in this run has been written to 
 StackingFaultStructs_001_110_9.bib
 
Initialisation time =     19.80 s
Calculation time    =    587.21 s
Finalisation time   =     14.26 s
Total time          =    621.27 s
Peak Memory Use     = 5460764 kB
 
Overall parallel efficiency rating: Good (77%)
 
Data was distributed by:-
k-point (82-way); efficiency rating: Good (78%)
