 +-------------------------------------------------+
 |                                                 |
 |      CCC   AA    SSS  TTTTT  EEEEE  PPPP        |
 |     C     A  A  S       T    E      P   P       |
 |     C     AAAA   SS     T    EEE    PPPP        |
 |     C     A  A     S    T    E      P           |
 |      CCC  A  A  SSS     T    EEEEE  P           |
 |                                                 |
 +-------------------------------------------------+
 |                                                 |
 | Welcome to Academic Release CASTEP version 24.1 |
 | Ab Initio Total Energy Program                  |
 |                                                 |
 | Authors:                                        |
 | M. Segall, M. Probert, C. Pickard, P. Hasnip,   |
 | S. Clark, K. Refson, J. R. Yates,               |
 | A. Bartok-Partay, M. Payne                      |
 |                                                 |
 | Contributors:                                   |
 | P. Lindan, P. Haynes, J. White, V. Milman,      |
 | N. Govind, M. Gibson, P. Tulip, V. Cocula,      |
 | B. Montanari, D. Quigley, M. Glover,            |
 | L. Bernasconi, A. Perlov, M. Plummer,           |
 | E. McNellis, J. Meyer, J. Gale, D. Jochym       |
 | J. Aarons, B. Walker, R. Gillen, D. Jones       |
 | T. Green, I. J. Bush, C. J. Armstrong,          |
 | E. J. Higgins, E. L. Brown, M. S. McFly,        |
 | J. Wilkins, B-C. Shih, P. J. P. Byrne,          |
 | R. J. Maurer, J. C. Womack, J. Dziedzic,        |
 | L. LeBlanc, T. K. Stenczel, J. Kermode,         |
 | S. Sturniolo, B. Shi, B. Durham, M. Evans,      |
 | M. J. Smith, A. Tamerus, Z. Hawkhead,           |
 | V. Ravindran, T. Hollins, S. A. Joyce,          |
 | R. T. Strong, A. M. Reilly, S. J. Donaldson     |
 |                                                 |
 | Copyright (c) 2000 - 2023                       |
 |                                                 |
 |     Distributed under license from Cambridge    |
 |     Enterprise for academic use only.           |
 |                                                 |
 | Please cite                                     |
 |                                                 |
 |     "First principles methods using CASTEP"     |
 |                                                 |
 |         Zeitschrift fuer Kristallographie       |
 |           220(5-6) pp. 567-570 (2005)           |
 |                                                 |
 | S. J. Clark, M. D. Segall, C. J. Pickard,       |
 | P. J. Hasnip, M. J. Probert, K. Refson,         |
 | M. C. Payne                                     |
 |                                                 |
 |       in all publications arising from          |
 |              your use of CASTEP                 |
 |                                                 |
 +-------------------------------------------------+
 |                                                 |
 |              http://www.castep.org              |
 |                                                 |
 +-------------------------------------------------+



 Compiled for  GNU 11.2.0 on 04-04-2024 18:39:17
 from code version 6355fd106 Castep241_branch Thu Mar 7 17:56:19 2024 +0000
 Compiler: GNU Fortran 11.2.0; Optimisation: FAST
 Comms   : MPI VERSION : CRAY MPICH version 8.1.23.14 (ANL base 3.4a2)
 MATHLIBS: default (LAPACK version 3.10.1)
 FFT Lib : fftw3 version commercial-fftw-3.3.10-sse2-avx-avx2-avx2_128
 Fundamental constants values: CODATA 2018

 Run started: Sun, 19 Jan 2025 01:30:39 +0000

 Atomic calculation performed for P: 1s2 2s2 2p6 3s2 3p3

 Converged in 47 iterations to an ae energy of -9309.074 eV

   ============================================================                
   | Pseudopotential Report - Date of generation 19-01-2025   |                
   ------------------------------------------------------------                
   | Element: P Ionic charge:  5.00 Level of theory: RSCAN    |                
   | Atomic Solver: Koelling-Harmon                           |                
   |                                                          |                
   |               Reference Electronic Structure             |                
   |         Orbital         Occupation         Energy        |                
   |            3s              2.000           -0.535        |                
   |            3p              3.000           -0.209        |                
   |                                                          |                
   |                 Pseudopotential Definition               |                
   |        Beta     l      e      Rc     scheme   norm       |                
   |          1      0   -0.535   1.807     qc      0         |                
   |          2      0    0.250   1.807     qc      0         |                
   |          3      1   -0.209   1.807     qc      0         |                
   |          4      1    0.250   1.807     qc      0         |                
   |          5      2    0.000   1.807     qc      0         |                
   |          6      2    0.250   1.807     qc      0         |                
   |         loc     3    0.000   1.807     pn      0         |                
   |                                                          |                
   | Augmentation charge Rinner = 1.263                       |                
   | Partial core correction Rc = 1.263                       |                
   ------------------------------------------------------------                
   | "3|1.8|4|4|5|30:31:32"                                   |                
   ------------------------------------------------------------                
   |      Author: Chris J. Pickard, Cambridge University      |                
   ============================================================                
 Warning: otfg_output_psp cannot write out meta-GGA pseudopotentials presently.

 Atomic calculation performed for In:
 1s2 2s2 2p6 3s2 3p6 3d10 4s2 4p6 4d10 5s2 5p1

 Converged in 84 iterations to an ae energy of -160093.328 eV

   ============================================================                
   | Pseudopotential Report - Date of generation 19-01-2025   |                
   ------------------------------------------------------------                
   | Element: In Ionic charge: 13.00 Level of theory: RSCAN   |                
   | Atomic Solver: Koelling-Harmon                           |                
   |                                                          |                
   |               Reference Electronic Structure             |                
   |         Orbital         Occupation         Energy        |                
   |            4d             10.000           -0.711        |                
   |            5s              2.000           -0.313        |                
   |            5p              1.000           -0.095        |                
   |                                                          |                
   |                 Pseudopotential Definition               |                
   |        Beta     l      e      Rc     scheme   norm       |                
   |          1      0   -0.313   2.501     qc      0         |                
   |          2      0    0.250   2.501     qc      0         |                
   |          3      1   -0.095   2.501     qc      0         |                
   |          4      1    0.250   2.501     qc      0         |                
   |          5      2   -0.711   2.207     qc      0         |                
   |          6      2    0.250   2.207     qc      0         |                
   |         loc     3    0.000   2.501     pn      0         |                
   |                                                          |                
   | Augmentation charge Rinner = 1.504                       |                
   | Partial core correction Rc = 1.504                       |                
   ------------------------------------------------------------                
   | "3|2.5|2.5|1.5|7|8|9|50:51:42U2.2U2.2"                   |                
   ------------------------------------------------------------                
   |      Author: Chris J. Pickard, Cambridge University      |                
   ============================================================                
 Warning: otfg_output_psp cannot write out meta-GGA pseudopotentials presently.

 Pseudo atomic calculation performed for P 3s2 3p3

 Converged in 23 iterations to a total energy of -208.0292 eV

 Pseudo atomic calculation performed for In 4d10 5s2 5p1

 Converged in 42 iterations to a total energy of -1747.4501 eV
 Calculation parallelised over 68 processes.
 Data is distributed by k-point(68-way)
 Each process may use up to 16 threads.

 ************************************ Title ************************************
 

 ***************************** General Parameters ******************************
  
 output verbosity                               : normal  (1)
 write checkpoint data to                       : StackingFaultStructs_001_110_3.check
 type of calculation                            : geometry optimization
 stress calculation                             : off
 density difference calculation                 : off
 electron localisation func (ELF) calculation   : off
 Hirshfeld analysis                             : on
 polarisation (Berry phase) analysis            : off
 molecular orbital projected DOS                : off
 deltaSCF calculation                           : off
 unlimited duration calculation
 timing information                             : on
 memory usage estimate                          : on
 write extra output files                       : on
 write final potential to formatted file        : off
 write final density to formatted file          : off
 write BibTeX reference list                    : on
 write OTFG pseudopotential files               : on
 write electrostatic potential file             : on
 write bands file                               : on
 checkpoint writing                             : off
  
 output         length unit                     : A
 output           mass unit                     : amu
 output           time unit                     : ps
 output         charge unit                     : e
 output           spin unit                     : hbar/2
 output         energy unit                     : eV
 output          force unit                     : eV/A
 output       velocity unit                     : A/ps
 output       pressure unit                     : GPa
 output     inv_length unit                     : 1/A
 output      frequency unit                     : cm-1
 output force constant unit                     : eV/A**2
 output         volume unit                     : A**3
 output   IR intensity unit                     : (D/A)**2/amu
 output         dipole unit                     : D
 output         efield unit                     : eV/A/e
 output        entropy unit                     : J/mol/K
 output    efield chi2 unit                     : pm/V
  
 wavefunctions paging                           : none
 random number generator seed                   :   13039809
 data distribution                              : optimal for this architecture
 optimization strategy                          : balance speed and memory

 *********************** Exchange-Correlation Parameters ***********************
  
 using functional                               : RSCAN
 relativistic treatment                         : Koelling-Harmon
 DFT+D: Semi-empirical dispersion correction    : off

 ************************* Pseudopotential Parameters **************************
  
 pseudopotential representation                 : reciprocal space
 <beta|phi> representation                      : reciprocal space
 spin-orbit coupling                            : off

 **************************** Basis Set Parameters *****************************
  
 plane wave basis set cut-off                   :   900.0000   eV
 size of standard grid                          :     2.0000
 size of   fine   gmax                          :    30.7390   1/A
 finite basis set correction                    : none

 **************************** Electronic Parameters ****************************
  
 number of  electrons                           :  216.0    
 net charge of system                           :  0.000    
 treating system as non-spin-polarized
 number of bands                                :        130

 ********************* Electronic Minimization Parameters **********************
  
 Method: Treating system as metallic with density mixing treatment of electrons,
         and number of  SD  steps               :          1
         and number of  CG  steps               :          4
  
 total energy / atom convergence tol.           : 0.1000E-07   eV
 eigen-energy convergence tolerance             : 0.2222E-08   eV
 max force / atom convergence tol.              : ignored
 convergence tolerance window                   :          3   cycles
 max. number of SCF cycles                      :         50
 number of fixed-spin iterations                :         10
 smearing scheme                                : Gaussian
 smearing width                                 : 0.2000       eV
 Fermi energy convergence tolerance             : 0.2721E-13   eV
 periodic dipole correction                     : NONE

 ************************** Density Mixing Parameters **************************
  
 density-mixing scheme                          : Pulay
 max. length of mixing history                  :         15
 charge density mixing amplitude                : 0.5000    
 cut-off energy for mixing                      :  900.0       eV

 *********************** Population Analysis Parameters ************************
  
 Population analysis with cutoff                :  3.000       A
 Population analysis output                     : summary and pdos components

 ********************** Geometry Optimization Parameters ***********************
  
 optimization method                            : LBFGS
 max. no. of LBFGS updates                      : unbounded
 preconditioned LBFGS is activated
 preconditioner type                            : EXP
     stabilization constant                     :     0.1000
     parameter A                                :     3.0000
     nearest neighbor distance                  : automatic
     cut-off distance                           : automatic
     parameter mu                               : automatic
 variable cell method                           : fixed basis quality
 max. number of steps                           :         30
 estimated bulk modulus                         :  500.0       GPa
 estimated <frequency>                          :  1668.       cm-1
 geom line minimiser                            : on
 with line minimiser tolerance                  :     0.4000
 total energy convergence tolerance             : 0.2000E-04   eV/atom
        max ionic |force| tolerance             : 0.1000E-02   eV/A
 max ionic |displacement| tolerance             : 0.1000E-02   A
   max |stress component| tolerance             : 0.1000       GPa
 convergence tolerance window                   :          2   steps
 backup results every                           :          5   steps
 write geom trajectory file                     : on

 *******************************************************************************
  

                           -------------------------------
                                      Unit Cell
                           -------------------------------
        Real Lattice(A)                      Reciprocal Lattice(1/A)
     4.1728310     0.0000000     0.0000000        1.505736826   0.000000000   0.000000000
     0.0000000     4.1728310     0.0000000        0.000000000   1.505736826  -0.066544774
     0.0000000     1.5648110    35.4076420        0.000000000   0.000000000   0.177452803

                       Lattice parameters(A)       Cell Angles
                    a =      4.172831          alpha =   87.469508
                    b =      4.172831          beta  =   90.000000
                    c =     35.442203          gamma =   90.000000

                       Current cell volume =           616.536223       A**3
                                   density =             2.837629   AMU/A**3
                                           =             4.711994     g/cm^3

                           -------------------------------
                                     Cell Contents
                           -------------------------------
                         Total number of ions in cell =   24
                      Total number of species in cell =    2
                        Max number of any one species =   12

            xxxxxxxxxxxxxxxxxxxxxxxxxxxxxxxxxxxxxxxxxxxxxxxxxxxxxxxxxxxx
            x  Element    Atom        Fractional coordinates of atoms  x
            x            Number           u          v          w      x
            x----------------------------------------------------------x
            x  P            1         0.500000  -0.141462   0.377231   x 
            x  P            2         0.000000   0.327951   0.458797   x 
            x  P            3         0.000000   0.389129   0.295655   x 
            x  P            4         0.500000  -0.202636   0.540363   x 
            x  P            5         0.000000   0.266778   0.621924   x 
            x  P            6         0.500000  -0.080267   0.214045   x 
            x  P            7         0.500000  -0.263798   0.703461   x 
            x  P            8         0.000000   0.205628   0.784991   x 
            x  P            9         0.000000   0.450315   0.132493   x 
            x  P           10         0.500000  -0.324964   0.866571   x 
            x  P           11         0.000000   0.145286   0.945903   x 
            x  P           12         0.500000  -0.018849   0.050265   x 
            x  In           1         0.500000   0.343240   0.418028   x 
            x  In           2         0.500000   0.220839   0.744430   x 
            x  In           3         0.000000  -0.248533   0.662754   x 
            x  In           4         0.500000   0.282064   0.581162   x 
            x  In           5         0.000000  -0.187346   0.499590   x 
            x  In           6         0.000000  -0.309811   0.826163   x 
            x  In           7         0.000000  -0.126179   0.336477   x 
            x  In           8         0.500000   0.159328   0.908460   x 
            x  In           9         0.000000  -0.065098   0.173594   x 
            x  In          10         0.500000   0.465405   0.092252   x 
            x  In          11         0.000000  -0.003907   0.010418   x 
            x  In          12         0.500000   0.404385   0.254973   x 
            xxxxxxxxxxxxxxxxxxxxxxxxxxxxxxxxxxxxxxxxxxxxxxxxxxxxxxxxxxxx


                         No user defined ionic velocities

                           -------------------------------
                                   Details of Species
                           -------------------------------

                               Mass of species in AMU
                                    P   30.9737600
                                    In  114.8180000

                          Electric Quadrupole Moment (Barn)
                                    P    1.0000000 No Isotope Defined
                                    In    0.7700000 Isotope115

                          Files used for pseudopotentials:
                                    P 3|1.8|4|4|5|30:31:32
                                    In 3|2.5|2.5|1.5|7|8|9|50:51:42U2.2U2.2

                           -------------------------------
                              k-Points For BZ Sampling
                           -------------------------------
                       MP grid size for SCF calculation is  8  8  2
                            with an offset of   0.062  0.062  0.250
                       Number of kpoints used =            68

                           -------------------------------
                               Symmetry and Constraints
                           -------------------------------

                      Maximum deviation from symmetry =  0.00000         ANG

                      Number of symmetry operations   =           1
                      Number of ionic constraints     =          48
                      Point group of crystal =     1: C1, 1, 1
                      Space group of crystal =     6: Pm, P -2y

             Set iprint > 1 for details on symmetry rotations/translations

                         Centre of mass is NOT constrained
             Set iprint > 1 for details of linear ionic constraints

                         Number of cell constraints= 6
                         Cell constraints are:  0 0 0 0 0 0

                         External pressure/stress (GPa)
                          0.00000   0.00000   0.00000
                                    0.00000   0.00000
                                              0.00000
 
+---------------- MEMORY AND SCRATCH DISK ESTIMATES PER PROCESS --------------+
|                                                     Memory          Disk    |
| Baseline code, static data and system overhead      386.0 MB         0.0 MB |
| BLAS internal memory storage                          0.0 MB         0.0 MB |
| Model and support data                             4597.5 MB         0.0 MB |
| Electronic energy minimisation requirements         524.7 MB         0.0 MB |
| Force calculation requirements                      105.7 MB         0.0 MB |
|                                               ----------------------------- |
| Approx. total storage required per process         5508.3 MB         0.0 MB |
|                                                                             |
| Requirements will fluctuate during execution and may exceed these estimates |
+-----------------------------------------------------------------------------+
Calculating approximate eigenstates for fixed initial Hamiltonian
Cut-off for approx. calculation is   89.988 eV
Improving approx. states at cut-off of  450.000 eV
Resetting cut-off to  900.000 eV
Calculating total energy with cut-off of  900.000 eV.
------------------------------------------------------------------------ <-- SCF
SCF loop      Energy           Fermi           Energy gain       Timer   <-- SCF
                               energy          per atom          (sec)   <-- SCF
------------------------------------------------------------------------ <-- SCF
Initial  -2.36393558E+004  0.00000000E+000                        78.38  <-- SCF
      1  -2.35512863E+004  2.83078016E+000  -3.66956261E+000     120.19  <-- SCF
      2  -2.35513536E+004  2.83014641E+000   2.80560450E-003     151.71  <-- SCF
      3  -2.35756385E+004  3.34669018E+000   1.01187096E+000     188.11  <-- SCF
      4  -2.35799180E+004  3.44688558E+000   1.78311096E-001     237.40  <-- SCF
      5  -2.35774018E+004  3.76685434E+000  -1.04841855E-001     273.84  <-- SCF
      6  -2.35778146E+004  3.82982785E+000   1.71991710E-002     311.31  <-- SCF
      7  -2.35777024E+004  3.89582577E+000  -4.67411449E-003     349.46  <-- SCF
      8  -2.35782626E+004  3.91798383E+000   2.33437777E-002     388.70  <-- SCF
      9  -2.35780784E+004  3.88695953E+000  -7.67767347E-003     425.52  <-- SCF
     10  -2.35782024E+004  3.87444785E+000   5.16611974E-003     463.91  <-- SCF
     11  -2.35782396E+004  3.87851884E+000   1.55143095E-003     501.48  <-- SCF
     12  -2.35782330E+004  3.86201681E+000  -2.73172537E-004     541.97  <-- SCF
     13  -2.35782394E+004  3.88547438E+000   2.65956374E-004     580.73  <-- SCF
     14  -2.35782393E+004  3.87314542E+000  -4.94020931E-006     619.47  <-- SCF
     15  -2.35782394E+004  3.87036162E+000   4.93930302E-006     658.63  <-- SCF
     16  -2.35782394E+004  3.87218961E+000  -1.26008381E-006     699.89  <-- SCF
     17  -2.35782394E+004  3.87291092E+000   2.10451095E-006     740.15  <-- SCF
     18  -2.35782394E+004  3.87249637E+000   5.14059599E-008     773.48  <-- SCF
     19  -2.35782394E+004  3.87236398E+000   2.94751195E-007     807.51  <-- SCF
     20  -2.35782394E+004  3.87230389E+000  -8.42187519E-009     836.41  <-- SCF
     21  -2.35782394E+004  3.87223070E+000   1.16228245E-009     867.36  <-- SCF
------------------------------------------------------------------------ <-- SCF
 
Final energy, E             =  -23578.22660211     eV
Final free energy (E-TS)    =  -23578.23944614     eV
(energies not corrected for finite basis set)
 
NB est. 0K energy (E-0.5TS)      =  -23578.23302412     eV
 
 
+---------------- MEMORY AND SCRATCH DISK ESTIMATES PER PROCESS --------------+
|                                                     Memory          Disk    |
| Model and support data                             2667.5 MB         0.0 MB |
| Electronic energy minimisation requirements         524.7 MB         0.0 MB |
| Geometry minimisation requirements                  612.2 MB         0.0 MB |
|                                               ----------------------------- |
| Approx. total storage required per process         3804.5 MB         0.0 MB |
|                                                                             |
| Requirements will fluctuate during execution and may exceed these estimates |
+-----------------------------------------------------------------------------+
 

 ******************************** Constrained Forces ********************************
 *                                                                                  *
 *                           Cartesian components (eV/A)                            *
 * -------------------------------------------------------------------------------- *
 *                         x                    y                    z              *
 *                                                                                  *
 * P               1      0.00000(cons'd)     -0.00000(cons'd)     -0.10026         *
 * P               2      0.00000(cons'd)      0.00000(cons'd)     -0.08993         *
 * P               3      0.00000(cons'd)      0.00000(cons'd)     -0.08041         *
 * P               4      0.00000(cons'd)     -0.00000(cons'd)     -0.09408         *
 * P               5      0.00000(cons'd)      0.00000(cons'd)     -0.08907         *
 * P               6     -0.00000(cons'd)      0.00000(cons'd)     -0.02456         *
 * P               7     -0.00000(cons'd)      0.00000(cons'd)     -0.04558         *
 * P               8      0.00000(cons'd)      0.00000(cons'd)      0.00771         *
 * P               9      0.00000(cons'd)      0.00000(cons'd)      0.01662         *
 * P              10     -0.00000(cons'd)      0.00000(cons'd)      0.08276         *
 * P              11      0.00000(cons'd)     -0.00000(cons'd)      0.17567         *
 * P              12     -0.00000(cons'd)      0.00000(cons'd)      0.16936         *
 * In              1      0.00000(cons'd)      0.00000(cons'd)      0.09815         *
 * In              2      0.00000(cons'd)      0.00000(cons'd)      0.02500         *
 * In              3      0.00000(cons'd)      0.00000(cons'd)      0.07830         *
 * In              4      0.00000(cons'd)      0.00000(cons'd)      0.09342         *
 * In              5      0.00000(cons'd)      0.00000(cons'd)      0.09737         *
 * In              6      0.00000(cons'd)      0.00000(cons'd)     -0.04094         *
 * In              7      0.00000(cons'd)     -0.00000(cons'd)      0.09486         *
 * In              8      0.00000(cons'd)      0.00000(cons'd)     -0.16826         *
 * In              9      0.00000(cons'd)      0.00000(cons'd)      0.00147         *
 * In             10      0.00000(cons'd)      0.00000(cons'd)     -0.12544         *
 * In             11      0.00000(cons'd)      0.00000(cons'd)     -0.15059         *
 * In             12      0.00000(cons'd)      0.00000(cons'd)      0.06843         *
 *                                                                                  *
 ************************************************************************************
 EXP precond LBFGS => estimated nearest neighbor distance :  2.537       A
 EXP precond LBFGS => estimated cutoff distance :  5.074       A

 ************************************** Forces **************************************
 *                                                                                  *
 *                           Cartesian components (eV/A)                            *
 * -------------------------------------------------------------------------------- *
 *                         x                    y                    z              *
 *                                                                                  *
 * P               1      0.00000(cons'd)      0.00396(cons'd)     -0.10026         *
 * P               2     -0.00000(cons'd)      0.00520(cons'd)     -0.08993         *
 * P               3     -0.00000(cons'd)      0.00163(cons'd)     -0.08041         *
 * P               4      0.00000(cons'd)      0.00298(cons'd)     -0.09408         *
 * P               5     -0.00000(cons'd)     -0.00007(cons'd)     -0.08907         *
 * P               6      0.00000(cons'd)     -0.00471(cons'd)     -0.02456         *
 * P               7      0.00000(cons'd)     -0.00495(cons'd)     -0.04558         *
 * P               8     -0.00000(cons'd)     -0.01040(cons'd)      0.00771         *
 * P               9     -0.00000(cons'd)     -0.02291(cons'd)      0.01662         *
 * P              10      0.00000(cons'd)     -0.04969(cons'd)      0.08276         *
 * P              11     -0.00001(cons'd)      0.39739(cons'd)      0.17567         *
 * P              12      0.00000(cons'd)     -0.14168(cons'd)      0.16936         *
 * In              1      0.00000(cons'd)      0.00064(cons'd)      0.09815         *
 * In              2      0.00000(cons'd)     -0.00128(cons'd)      0.02500         *
 * In              3     -0.00000(cons'd)      0.00042(cons'd)      0.07830         *
 * In              4      0.00000(cons'd)      0.00074(cons'd)      0.09342         *
 * In              5     -0.00000(cons'd)      0.00069(cons'd)      0.09737         *
 * In              6     -0.00000(cons'd)     -0.01250(cons'd)     -0.04094         *
 * In              7     -0.00000(cons'd)      0.00073(cons'd)      0.09486         *
 * In              8      0.00001(cons'd)     -0.06943(cons'd)     -0.16826         *
 * In              9     -0.00000(cons'd)      0.00619(cons'd)      0.00147         *
 * In             10      0.00000(cons'd)      0.03692(cons'd)     -0.12544         *
 * In             11     -0.00000(cons'd)     -0.14133(cons'd)     -0.15059         *
 * In             12      0.00000(cons'd)      0.00147(cons'd)      0.06843         *
 *                                                                                  *
 ************************************************************************************
 doing test perturbation to get energy scale for EXP preconditioner

                           -------------------------------
                                     Cell Contents
                           -------------------------------

            xxxxxxxxxxxxxxxxxxxxxxxxxxxxxxxxxxxxxxxxxxxxxxxxxxxxxxxxxxxxxxxxx
            x  Element         Atom        Fractional coordinates of atoms  x
            x                 Number           u          v          w      x
            x---------------------------------------------------------------x
            x  P                 1         0.505116   0.863962   0.377512   x
            x  P                 2         0.000000   0.332941   0.459134   x
            x  P                 3         0.000000   0.394162   0.295877   x
            x  P                 4         0.505116   0.802746   0.540755   x
            x  P                 5         0.000000   0.271729   0.622366   x
            x  P                 6         0.505116   0.925201   0.214208   x
            x  P                 7         0.505116   0.741548   0.703950   x
            x  P                 8         0.000000   0.210545   0.785524   x
            x  P                 9         0.000000   0.455393   0.132594   x
            x  P                10         0.505116   0.680350   0.867144   x
            x  P                11         0.000000   0.150175   0.946510   x
            x  P                12         0.505116   0.986665   0.050304   x
            x  In                1         0.505116   0.348240   0.418337   x
            x  In                2         0.505116   0.225763   0.744942   x
            x  In                3         0.000000   0.756821   0.663220   x
            x  In                4         0.505116   0.287024   0.581579   x
            x  In                5         0.000000   0.818046   0.499955   x
            x  In                6         0.000000   0.695510   0.826716   x
            x  In                7         0.000000   0.879255   0.336729   x
            x  In                8         0.505116   0.164222   0.909051   x
            x  In                9         0.000000   0.940381   0.173726   x
            x  In               10         0.505116   0.470495   0.092323   x
            x  In               11         0.000000   1.001619   0.010426   x
            x  In               12         0.505116   0.409429   0.255165   x
            xxxxxxxxxxxxxxxxxxxxxxxxxxxxxxxxxxxxxxxxxxxxxxxxxxxxxxxxxxxxxxxxx


------------------------------------------------------------------------ <-- SCF
SCF loop      Energy           Fermi           Energy gain       Timer   <-- SCF
                               energy          per atom          (sec)   <-- SCF
------------------------------------------------------------------------ <-- SCF
Initial  -2.35765468E+004  0.00000000E+000                       949.83  <-- SCF
      1  -2.35780180E+004  3.85776595E+000   6.12989901E-002     988.36  <-- SCF
      2  -2.35782099E+004  3.85755276E+000   7.99668003E-003    1033.94  <-- SCF
      3  -2.35782120E+004  3.85881644E+000   8.82486014E-005    1071.01  <-- SCF
      4  -2.35782137E+004  3.86054288E+000   6.73384361E-005    1109.00  <-- SCF
      5  -2.35782138E+004  3.86072522E+000   5.76327118E-006    1148.76  <-- SCF
      6  -2.35782138E+004  3.86095592E+000   1.83838681E-006    1187.66  <-- SCF
      7  -2.35782138E+004  3.86111003E+000   7.87084477E-008    1220.63  <-- SCF
      8  -2.35782138E+004  3.86128838E+000   1.88476145E-009    1251.36  <-- SCF
      9  -2.35782138E+004  3.86143867E+000  -2.23612729E-008    1281.09  <-- SCF
     10  -2.35782138E+004  3.86172214E+000  -3.39402717E-008    1311.15  <-- SCF
     11  -2.35782138E+004  3.86189503E+000  -1.09747203E-008    1340.87  <-- SCF
     12  -2.35782138E+004  3.86203992E+000  -4.95513608E-009    1368.81  <-- SCF
     13  -2.35782138E+004  3.86207527E+000  -1.08404075E-009    1396.68  <-- SCF
------------------------------------------------------------------------ <-- SCF
 
Final energy, E             =  -23578.20273258     eV
Final free energy (E-TS)    =  -23578.21383613     eV
(energies not corrected for finite basis set)
 
NB est. 0K energy (E-0.5TS)      =  -23578.20828436     eV
 

 ************************************** Forces **************************************
 *                                                                                  *
 *                           Cartesian components (eV/A)                            *
 * -------------------------------------------------------------------------------- *
 *                         x                    y                    z              *
 *                                                                                  *
 * P               1     -0.19220(cons'd)     -0.01218(cons'd)     -0.09287         *
 * P               2      0.19289(cons'd)      0.01468(cons'd)     -0.08535         *
 * P               3      0.19437(cons'd)      0.02008(cons'd)     -0.07796         *
 * P               4     -0.19250(cons'd)     -0.01956(cons'd)     -0.09248         *
 * P               5      0.19314(cons'd)      0.01001(cons'd)     -0.07724         *
 * P               6     -0.19511(cons'd)     -0.01448(cons'd)     -0.01343         *
 * P               7     -0.19071(cons'd)     -0.01896(cons'd)     -0.04022         *
 * P               8      0.19675(cons'd)      0.00872(cons'd)      0.01340         *
 * P               9      0.20246(cons'd)     -0.00390(cons'd)      0.02243         *
 * P              10     -0.19483(cons'd)     -0.05575(cons'd)      0.09915         *
 * P              11      0.25432(cons'd)      0.45796(cons'd)     -0.09217         *
 * P              12     -0.19262(cons'd)     -0.15991(cons'd)      0.19207         *
 * In              1     -0.16509(cons'd)      0.01295(cons'd)      0.09155         *
 * In              2     -0.16868(cons'd)      0.01053(cons'd)      0.01827         *
 * In              3      0.16365(cons'd)     -0.01373(cons'd)      0.07173         *
 * In              4     -0.16524(cons'd)      0.01278(cons'd)      0.08691         *
 * In              5      0.16246(cons'd)     -0.01331(cons'd)      0.09074         *
 * In              6      0.16826(cons'd)     -0.02574(cons'd)     -0.04755         *
 * In              7      0.16278(cons'd)     -0.01303(cons'd)      0.08831         *
 * In              8     -0.22550(cons'd)     -0.05667(cons'd)     -0.18986         *
 * In              9      0.16814(cons'd)     -0.00724(cons'd)     -0.00725         *
 * In             10     -0.17251(cons'd)      0.04827(cons'd)     -0.13182         *
 * In             11      0.16239(cons'd)     -0.19514(cons'd)      0.11189         *
 * In             12     -0.16661(cons'd)      0.01359(cons'd)      0.06175         *
 *                                                                                  *
 ************************************************************************************
 EXP precond LBFGS => estimated parameter mu :  5.136       eV/A**2
 LBFGS: finished iteration     0 with enthalpy= -2.35782394E+004 eV
  
 +-----------+-----------------+-----------------+------------+-----+ <-- LBFGS
 | Parameter |      value      |    tolerance    |    units   | OK? | <-- LBFGS
 +-----------+-----------------+-----------------+------------+-----+ <-- LBFGS
 |  dE/ion   |   0.000000E+000 |   2.000000E-005 |         eV | No  | <-- LBFGS
 |  |F|max   |   5.318831E-001 |   1.000000E-003 |       eV/A | No  | <-- LBFGS
 |  |dR|max  |   7.534734E-015 |   1.000000E-003 |          A | No  | <-- LBFGS
 +-----------+-----------------+-----------------+------------+-----+ <-- LBFGS
  

================================================================================
 Starting LBFGS iteration          1 ...
================================================================================
  
 +------------+-------------+-------------+-----------------+ <-- min LBFGS
 |    Step    |   lambda    |   F.delta'  |    enthalpy     | <-- min LBFGS
 +------------+-------------+-------------+-----------------+ <-- min LBFGS
 |  previous  |    0.000000 |    0.546382 |   -23578.239446 | <-- min LBFGS
 +------------+-------------+-------------+-----------------+ <-- min LBFGS
  

--------------------------------------------------------------------------------
 LBFGS: starting iteration         1 with trial guess (lambda=  1.000000)
--------------------------------------------------------------------------------

                           -------------------------------
                                     Cell Contents
                           -------------------------------

            xxxxxxxxxxxxxxxxxxxxxxxxxxxxxxxxxxxxxxxxxxxxxxxxxxxxxxxxxxxxxxxxx
            x  Element         Atom        Fractional coordinates of atoms  x
            x                 Number           u          v          w      x
            x---------------------------------------------------------------x
            x  P                 1         0.500000  -0.141426   0.377135   x
            x  P                 2         0.000000   0.327975   0.458733   x
            x  P                 3         0.000000   0.389160   0.295572   x
            x  P                 4         0.500000  -0.202609   0.540291   x
            x  P                 5         0.000000   0.266806   0.621851   x
            x  P                 6         0.500000  -0.080249   0.213997   x
            x  P                 7         0.500000  -0.263789   0.703437   x
            x  P                 8         0.000000   0.205625   0.784999   x
            x  P                 9         0.000000   0.450344   0.132415   x
            x  P                10         0.500000  -0.324986   0.866629   x
            x  P                11         0.000000   0.145224   0.946069   x
            x  P                12         0.500000  -0.018924   0.050464   x
            x  In                1         0.500000   0.343178   0.418193   x
            x  In                2         0.500000   0.220819   0.744483   x
            x  In                3         0.000000  -0.248586   0.662897   x
            x  In                4         0.500000   0.282004   0.581324   x
            x  In                5         0.000000  -0.187411   0.499763   x
            x  In                6         0.000000  -0.309784   0.826091   x
            x  In                7         0.000000  -0.126234   0.336625   x
            x  In                8         0.500000   0.159432   0.908180   x
            x  In                9         0.000000  -0.065078   0.173542   x
            x  In               10         0.500000   0.465499   0.092002   x
            x  In               11         0.000000  -0.003839   0.010236   x
            x  In               12         0.500000   0.404349   0.255070   x
            xxxxxxxxxxxxxxxxxxxxxxxxxxxxxxxxxxxxxxxxxxxxxxxxxxxxxxxxxxxxxxxxx


------------------------------------------------------------------------ <-- SCF
SCF loop      Energy           Fermi           Energy gain       Timer   <-- SCF
                               energy          per atom          (sec)   <-- SCF
------------------------------------------------------------------------ <-- SCF
Initial  -2.35763967E+004  0.00000000E+000                      1442.10  <-- SCF
      1  -2.35780462E+004  3.87530641E+000   6.87318838E-002    1481.24  <-- SCF
      2  -2.35782413E+004  3.87511664E+000   8.12808298E-003    1528.52  <-- SCF
      3  -2.35782434E+004  3.87455669E+000   8.72428797E-005    1566.82  <-- SCF
      4  -2.35782449E+004  3.87344218E+000   6.18140516E-005    1605.96  <-- SCF
      5  -2.35782450E+004  3.87344951E+000   3.21500848E-006    1650.03  <-- SCF
      6  -2.35782449E+004  3.87351346E+000  -1.14395146E-006    1691.41  <-- SCF
      7  -2.35782449E+004  3.87365845E+000  -2.64740268E-006    1727.97  <-- SCF
      8  -2.35782448E+004  3.87411671E+000  -4.79492994E-006    1769.40  <-- SCF
      9  -2.35782447E+004  3.87456245E+000  -1.67361145E-006    1807.88  <-- SCF
     10  -2.35782447E+004  3.87487468E+000  -1.72285139E-007    1844.94  <-- SCF
     11  -2.35782447E+004  3.87498086E+000  -1.71541392E-008    1877.21  <-- SCF
     12  -2.35782447E+004  3.87505797E+000  -1.05208668E-008    1908.26  <-- SCF
     13  -2.35782447E+004  3.87511570E+000  -3.32417679E-009    1937.62  <-- SCF
     14  -2.35782447E+004  3.87515768E+000  -2.12296684E-010    1966.91  <-- SCF
------------------------------------------------------------------------ <-- SCF
 
Final energy, E             =  -23578.23341748     eV
Final free energy (E-TS)    =  -23578.24471643     eV
(energies not corrected for finite basis set)
 
NB est. 0K energy (E-0.5TS)      =  -23578.23906696     eV
 

 ******************************** Constrained Forces ********************************
 *                                                                                  *
 *                           Cartesian components (eV/A)                            *
 * -------------------------------------------------------------------------------- *
 *                         x                    y                    z              *
 *                                                                                  *
 * P               1      0.00000(cons'd)     -0.00000(cons'd)     -0.00952         *
 * P               2      0.00000(cons'd)     -0.00000(cons'd)     -0.00816         *
 * P               3      0.00000(cons'd)      0.00000(cons'd)     -0.00581         *
 * P               4      0.00000(cons'd)     -0.00000(cons'd)     -0.00736         *
 * P               5      0.00000(cons'd)      0.00000(cons'd)     -0.00800         *
 * P               6     -0.00000(cons'd)      0.00000(cons'd)     -0.00278         *
 * P               7     -0.00000(cons'd)      0.00000(cons'd)     -0.00341         *
 * P               8      0.00000(cons'd)      0.00000(cons'd)     -0.00054         *
 * P               9      0.00000(cons'd)      0.00000(cons'd)     -0.00907         *
 * P              10      0.00000(cons'd)      0.00000(cons'd)      0.00150         *
 * P              11      0.00000(cons'd)      0.00000(cons'd)     -0.05749         *
 * P              12     -0.00000(cons'd)      0.00000(cons'd)      0.02056         *
 * In              1      0.00000(cons'd)      0.00000(cons'd)      0.01046         *
 * In              2      0.00000(cons'd)     -0.00000(cons'd)      0.00508         *
 * In              3      0.00000(cons'd)      0.00000(cons'd)      0.00873         *
 * In              4      0.00000(cons'd)     -0.00000(cons'd)      0.00942         *
 * In              5      0.00000(cons'd)      0.00000(cons'd)      0.01083         *
 * In              6      0.00000(cons'd)      0.00000(cons'd)     -0.00228         *
 * In              7      0.00000(cons'd)      0.00000(cons'd)      0.00920         *
 * In              8      0.00000(cons'd)      0.00000(cons'd)     -0.01361         *
 * In              9      0.00000(cons'd)      0.00000(cons'd)     -0.00297         *
 * In             10      0.00000(cons'd)      0.00000(cons'd)     -0.00558         *
 * In             11      0.00000(cons'd)      0.00000(cons'd)      0.05265         *
 * In             12      0.00000(cons'd)      0.00000(cons'd)      0.00814         *
 *                                                                                  *
 ************************************************************************************
  
 +------------+-------------+-------------+-----------------+ <-- min LBFGS
 |    Step    |   lambda    |   F.delta'  |    enthalpy     | <-- min LBFGS
 +------------+-------------+-------------+-----------------+ <-- min LBFGS
 |  previous  |    0.000000 |    0.546382 |   -23578.239446 | <-- min LBFGS
 | trial step |    1.000000 |    0.006130 |   -23578.244716 | <-- min LBFGS
 +------------+-------------+-------------+-----------------+ <-- min LBFGS
  
 LBFGS: finished iteration     1 with enthalpy= -2.35782447E+004 eV
  
 +-----------+-----------------+-----------------+------------+-----+ <-- LBFGS
 | Parameter |      value      |    tolerance    |    units   | OK? | <-- LBFGS
 +-----------+-----------------+-----------------+------------+-----+ <-- LBFGS
 |  dE/ion   |   2.195954E-004 |   2.000000E-005 |         eV | No  | <-- LBFGS
 |  |F|max   |   5.749243E-002 |   1.000000E-003 |       eV/A | No  | <-- LBFGS
 |  |dR|max  |   9.892153E-003 |   1.000000E-003 |          A | No  | <-- LBFGS
 +-----------+-----------------+-----------------+------------+-----+ <-- LBFGS
  

================================================================================
 Starting LBFGS iteration          2 ...
================================================================================
  
 +------------+-------------+-------------+-----------------+ <-- min LBFGS
 |    Step    |   lambda    |   F.delta'  |    enthalpy     | <-- min LBFGS
 +------------+-------------+-------------+-----------------+ <-- min LBFGS
 |  previous  |    0.000000 |    0.075306 |   -23578.244716 | <-- min LBFGS
 +------------+-------------+-------------+-----------------+ <-- min LBFGS
  

--------------------------------------------------------------------------------
 LBFGS: starting iteration         2 with trial guess (lambda=  1.000000)
--------------------------------------------------------------------------------

                           -------------------------------
                                     Cell Contents
                           -------------------------------

            xxxxxxxxxxxxxxxxxxxxxxxxxxxxxxxxxxxxxxxxxxxxxxxxxxxxxxxxxxxxxxxxx
            x  Element         Atom        Fractional coordinates of atoms  x
            x                 Number           u          v          w      x
            x---------------------------------------------------------------x
            x  P                 1         0.500000  -0.141429   0.377144   x
            x  P                 2         0.000000   0.327969   0.458749   x
            x  P                 3         0.000000   0.389156   0.295583   x
            x  P                 4         0.500000  -0.202614   0.540304   x
            x  P                 5         0.000000   0.266805   0.621852   x
            x  P                 6         0.500000  -0.080250   0.214001   x
            x  P                 7         0.500000  -0.263786   0.703429   x
            x  P                 8         0.000000   0.205639   0.784963   x
            x  P                 9         0.000000   0.450348   0.132406   x
            x  P                10         0.500000  -0.324958   0.866556   x
            x  P                11         0.000000   0.145269   0.945949   x
            x  P                12         0.500000  -0.018955   0.050546   x
            x  In                1         0.500000   0.343159   0.418243   x
            x  In                2         0.500000   0.220822   0.744475   x
            x  In                3         0.000000  -0.248596   0.662923   x
            x  In                4         0.500000   0.281988   0.581365   x
            x  In                5         0.000000  -0.187430   0.499814   x
            x  In                6         0.000000  -0.309760   0.826027   x
            x  In                7         0.000000  -0.126251   0.336669   x
            x  In                8         0.500000   0.159480   0.908054   x
            x  In                9         0.000000  -0.065077   0.173538   x
            x  In               10         0.500000   0.465497   0.092007   x
            x  In               11         0.000000  -0.003861   0.010296   x
            x  In               12         0.500000   0.404336   0.255104   x
            xxxxxxxxxxxxxxxxxxxxxxxxxxxxxxxxxxxxxxxxxxxxxxxxxxxxxxxxxxxxxxxxx


------------------------------------------------------------------------ <-- SCF
SCF loop      Energy           Fermi           Energy gain       Timer   <-- SCF
                               energy          per atom          (sec)   <-- SCF
------------------------------------------------------------------------ <-- SCF
Initial  -2.35782207E+004  0.00000000E+000                      2015.10  <-- SCF
      1  -2.35782441E+004  3.87941890E+000   9.77379424E-004    2055.04  <-- SCF
      2  -2.35782449E+004  3.87941733E+000   3.23813978E-005    2099.86  <-- SCF
      3  -2.35782449E+004  3.87898762E+000  -4.56918664E-008    2137.53  <-- SCF
      4  -2.35782449E+004  3.87851599E+000   1.14451501E-007    2173.60  <-- SCF
      5  -2.35782449E+004  3.87847318E+000   2.14049710E-009    2202.63  <-- SCF
      6  -2.35782449E+004  3.87844001E+000  -1.76505293E-008    2231.99  <-- SCF
      7  -2.35782449E+004  3.87842046E+000  -2.24029072E-008    2261.90  <-- SCF
      8  -2.35782449E+004  3.87839456E+000  -3.91131182E-008    2292.24  <-- SCF
      9  -2.35782449E+004  3.87840942E+000  -1.41360976E-008    2323.14  <-- SCF
     10  -2.35782449E+004  3.87842750E+000  -9.42509625E-010    2350.86  <-- SCF
     11  -2.35782449E+004  3.87843934E+000  -1.58674692E-010    2379.00  <-- SCF
------------------------------------------------------------------------ <-- SCF
 
Final energy, E             =  -23578.23318473     eV
Final free energy (E-TS)    =  -23578.24491837     eV
(energies not corrected for finite basis set)
 
NB est. 0K energy (E-0.5TS)      =  -23578.23905155     eV
 

 ******************************** Constrained Forces ********************************
 *                                                                                  *
 *                           Cartesian components (eV/A)                            *
 * -------------------------------------------------------------------------------- *
 *                         x                    y                    z              *
 *                                                                                  *
 * P               1      0.00000(cons'd)     -0.00000(cons'd)      0.00361         *
 * P               2      0.00000(cons'd)     -0.00000(cons'd)      0.00362         *
 * P               3      0.00000(cons'd)      0.00000(cons'd)      0.00298         *
 * P               4     -0.00000(cons'd)     -0.00000(cons'd)      0.00350         *
 * P               5      0.00000(cons'd)      0.00000(cons'd)      0.00296         *
 * P               6      0.00000(cons'd)      0.00000(cons'd)     -0.00057         *
 * P               7      0.00000(cons'd)      0.00000(cons'd)      0.00104         *
 * P               8      0.00000(cons'd)      0.00000(cons'd)     -0.00193         *
 * P               9      0.00000(cons'd)      0.00000(cons'd)     -0.00493         *
 * P              10     -0.00000(cons'd)      0.00000(cons'd)     -0.00882         *
 * P              11      0.00000(cons'd)     -0.00000(cons'd)      0.01999         *
 * P              12     -0.00000(cons'd)      0.00000(cons'd)     -0.00235         *
 * In              1      0.00000(cons'd)      0.00000(cons'd)     -0.00262         *
 * In              2      0.00000(cons'd)      0.00000(cons'd)      0.00034         *
 * In              3      0.00000(cons'd)      0.00000(cons'd)     -0.00185         *
 * In              4      0.00000(cons'd)      0.00000(cons'd)     -0.00244         *
 * In              5      0.00000(cons'd)      0.00000(cons'd)     -0.00222         *
 * In              6      0.00000(cons'd)      0.00000(cons'd)      0.00214         *
 * In              7      0.00000(cons'd)      0.00000(cons'd)     -0.00264         *
 * In              8     -0.00000(cons'd)      0.00000(cons'd)      0.00405         *
 * In              9      0.00000(cons'd)      0.00000(cons'd)      0.00026         *
 * In             10      0.00000(cons'd)      0.00000(cons'd)      0.00765         *
 * In             11      0.00000(cons'd)      0.00000(cons'd)     -0.02050         *
 * In             12      0.00000(cons'd)      0.00000(cons'd)     -0.00127         *
 *                                                                                  *
 ************************************************************************************
  
 +------------+-------------+-------------+-----------------+ <-- min LBFGS
 |    Step    |   lambda    |   F.delta'  |    enthalpy     | <-- min LBFGS
 +------------+-------------+-------------+-----------------+ <-- min LBFGS
 |  previous  |    0.000000 |    0.075306 |   -23578.244716 | <-- min LBFGS
 | trial step |    1.000000 |   -0.019606 |   -23578.244918 | <-- min LBFGS
 +------------+-------------+-------------+-----------------+ <-- min LBFGS
  
 LBFGS: finished iteration     2 with enthalpy= -2.35782449E+004 eV
  
 +-----------+-----------------+-----------------+------------+-----+ <-- LBFGS
 | Parameter |      value      |    tolerance    |    units   | OK? | <-- LBFGS
 +-----------+-----------------+-----------------+------------+-----+ <-- LBFGS
 |  dE/ion   |   8.414068E-006 |   2.000000E-005 |         eV | Yes | <-- LBFGS
 |  |F|max   |   2.050428E-002 |   1.000000E-003 |       eV/A | No  | <-- LBFGS
 |  |dR|max  |   4.476802E-003 |   1.000000E-003 |          A | No  | <-- LBFGS
 +-----------+-----------------+-----------------+------------+-----+ <-- LBFGS
  

================================================================================
 Starting LBFGS iteration          3 ...
================================================================================
  
 +------------+-------------+-------------+-----------------+ <-- min LBFGS
 |    Step    |   lambda    |   F.delta'  |    enthalpy     | <-- min LBFGS
 +------------+-------------+-------------+-----------------+ <-- min LBFGS
 |  previous  |    0.000000 |    0.030123 |   -23578.244918 | <-- min LBFGS
 +------------+-------------+-------------+-----------------+ <-- min LBFGS
  

--------------------------------------------------------------------------------
 LBFGS: starting iteration         3 with trial guess (lambda=  1.000000)
--------------------------------------------------------------------------------

                           -------------------------------
                                     Cell Contents
                           -------------------------------

            xxxxxxxxxxxxxxxxxxxxxxxxxxxxxxxxxxxxxxxxxxxxxxxxxxxxxxxxxxxxxxxxx
            x  Element         Atom        Fractional coordinates of atoms  x
            x                 Number           u          v          w      x
            x---------------------------------------------------------------x
            x  P                 1         0.500000  -0.141433   0.377156   x
            x  P                 2         0.000000   0.327964   0.458763   x
            x  P                 3         0.000000   0.389154   0.295589   x
            x  P                 4         0.500000  -0.202619   0.540318   x
            x  P                 5         0.000000   0.266802   0.621862   x
            x  P                 6         0.500000  -0.080248   0.213996   x
            x  P                 7         0.500000  -0.263787   0.703433   x
            x  P                 8         0.000000   0.205641   0.784958   x
            x  P                 9         0.000000   0.450353   0.132391   x
            x  P                10         0.500000  -0.324953   0.866541   x
            x  P                11         0.000000   0.145264   0.945963   x
            x  P                12         0.500000  -0.018948   0.050529   x
            x  In                1         0.500000   0.343157   0.418248   x
            x  In                2         0.500000   0.220822   0.744474   x
            x  In                3         0.000000  -0.248597   0.662925   x
            x  In                4         0.500000   0.281986   0.581370   x
            x  In                5         0.000000  -0.187433   0.499821   x
            x  In                6         0.000000  -0.309759   0.826024   x
            x  In                7         0.000000  -0.126251   0.336671   x
            x  In                8         0.500000   0.159477   0.908062   x
            x  In                9         0.000000  -0.065074   0.173530   x
            x  In               10         0.500000   0.465497   0.092008   x
            x  In               11         0.000000  -0.003851   0.010269   x
            x  In               12         0.500000   0.404337   0.255101   x
            xxxxxxxxxxxxxxxxxxxxxxxxxxxxxxxxxxxxxxxxxxxxxxxxxxxxxxxxxxxxxxxxx


------------------------------------------------------------------------ <-- SCF
SCF loop      Energy           Fermi           Energy gain       Timer   <-- SCF
                               energy          per atom          (sec)   <-- SCF
------------------------------------------------------------------------ <-- SCF
Initial  -2.35782341E+004  0.00000000E+000                      2425.32  <-- SCF
      1  -2.35782449E+004  3.87775166E+000   4.49860145E-004    2467.31  <-- SCF
      2  -2.35782449E+004  3.87775163E+000   9.13095900E-007    2510.53  <-- SCF
      3  -2.35782449E+004  3.87785654E+000  -1.08005777E-008    2538.94  <-- SCF
      4  -2.35782449E+004  3.87795459E+000  -2.24348742E-009    2568.87  <-- SCF
      5  -2.35782449E+004  3.87796155E+000  -5.31192856E-010    2595.59  <-- SCF
------------------------------------------------------------------------ <-- SCF
 
Final energy, E             =  -23578.23333753     eV
Final free energy (E-TS)    =  -23578.24494306     eV
(energies not corrected for finite basis set)
 
NB est. 0K energy (E-0.5TS)      =  -23578.23914030     eV
 

 ******************************** Constrained Forces ********************************
 *                                                                                  *
 *                           Cartesian components (eV/A)                            *
 * -------------------------------------------------------------------------------- *
 *                         x                    y                    z              *
 *                                                                                  *
 * P               1     -0.00000(cons'd)      0.00000(cons'd)      0.00106         *
 * P               2      0.00000(cons'd)      0.00000(cons'd)      0.00136         *
 * P               3      0.00000(cons'd)     -0.00000(cons'd)      0.00055         *
 * P               4      0.00000(cons'd)      0.00000(cons'd)      0.00103         *
 * P               5      0.00000(cons'd)      0.00000(cons'd)      0.00094         *
 * P               6     -0.00000(cons'd)      0.00000(cons'd)     -0.00062         *
 * P               7     -0.00000(cons'd)      0.00000(cons'd)      0.00020         *
 * P               8      0.00000(cons'd)      0.00000(cons'd)     -0.00071         *
 * P               9      0.00000(cons'd)      0.00000(cons'd)     -0.00113         *
 * P              10     -0.00000(cons'd)      0.00000(cons'd)     -0.00224         *
 * P              11      0.00000(cons'd)     -0.00000(cons'd)      0.00063         *
 * P              12     -0.00000(cons'd)      0.00000(cons'd)     -0.00072         *
 * In              1      0.00000(cons'd)      0.00000(cons'd)     -0.00045         *
 * In              2      0.00000(cons'd)      0.00000(cons'd)      0.00034         *
 * In              3      0.00000(cons'd)      0.00000(cons'd)     -0.00020         *
 * In              4      0.00000(cons'd)      0.00000(cons'd)     -0.00038         *
 * In              5      0.00000(cons'd)      0.00000(cons'd)     -0.00045         *
 * In              6      0.00000(cons'd)      0.00000(cons'd)     -0.00004         *
 * In              7      0.00000(cons'd)      0.00000(cons'd)     -0.00023         *
 * In              8     -0.00000(cons'd)      0.00000(cons'd)     -0.00002         *
 * In              9      0.00000(cons'd)      0.00000(cons'd)      0.00035         *
 * In             10      0.00000(cons'd)      0.00000(cons'd)      0.00065         *
 * In             11      0.00000(cons'd)      0.00000(cons'd)     -0.00013         *
 * In             12      0.00000(cons'd)      0.00000(cons'd)      0.00019         *
 *                                                                                  *
 ************************************************************************************
  
 +------------+-------------+-------------+-----------------+ <-- min LBFGS
 |    Step    |   lambda    |   F.delta'  |    enthalpy     | <-- min LBFGS
 +------------+-------------+-------------+-----------------+ <-- min LBFGS
 |  previous  |    0.000000 |    0.030123 |   -23578.244918 | <-- min LBFGS
 | trial step |    1.000000 |    0.003085 |   -23578.244943 | <-- min LBFGS
 +------------+-------------+-------------+-----------------+ <-- min LBFGS
  
 LBFGS: finished iteration     3 with enthalpy= -2.35782449E+004 eV
  
 +-----------+-----------------+-----------------+------------+-----+ <-- LBFGS
 | Parameter |      value      |    tolerance    |    units   | OK? | <-- LBFGS
 +-----------+-----------------+-----------------+------------+-----+ <-- LBFGS
 |  dE/ion   |   1.028771E-006 |   2.000000E-005 |         eV | Yes | <-- LBFGS
 |  |F|max   |   2.239456E-003 |   1.000000E-003 |       eV/A | No  | <-- LBFGS
 |  |dR|max  |   9.454864E-004 |   1.000000E-003 |          A | Yes | <-- LBFGS
 +-----------+-----------------+-----------------+------------+-----+ <-- LBFGS
  

================================================================================
 Starting LBFGS iteration          4 ...
================================================================================
  
 +------------+-------------+-------------+-----------------+ <-- min LBFGS
 |    Step    |   lambda    |   F.delta'  |    enthalpy     | <-- min LBFGS
 +------------+-------------+-------------+-----------------+ <-- min LBFGS
 |  previous  |    0.000000 |    0.002611 |   -23578.244943 | <-- min LBFGS
 +------------+-------------+-------------+-----------------+ <-- min LBFGS
  

--------------------------------------------------------------------------------
 LBFGS: starting iteration         4 with trial guess (lambda=  1.000000)
--------------------------------------------------------------------------------

                           -------------------------------
                                     Cell Contents
                           -------------------------------

            xxxxxxxxxxxxxxxxxxxxxxxxxxxxxxxxxxxxxxxxxxxxxxxxxxxxxxxxxxxxxxxxx
            x  Element         Atom        Fractional coordinates of atoms  x
            x                 Number           u          v          w      x
            x---------------------------------------------------------------x
            x  P                 1         0.500000  -0.141437   0.377166   x
            x  P                 2         0.000000   0.327959   0.458775   x
            x  P                 3         0.000000   0.389152   0.295595   x
            x  P                 4         0.500000  -0.202623   0.540329   x
            x  P                 5         0.000000   0.266799   0.621869   x
            x  P                 6         0.500000  -0.080248   0.213994   x
            x  P                 7         0.500000  -0.263787   0.703433   x
            x  P                 8         0.000000   0.205644   0.784950   x
            x  P                 9         0.000000   0.450356   0.132385   x
            x  P                10         0.500000  -0.324947   0.866525   x
            x  P                11         0.000000   0.145266   0.945956   x
            x  P                12         0.500000  -0.018945   0.050521   x
            x  In                1         0.500000   0.343154   0.418257   x
            x  In                2         0.500000   0.220823   0.744471   x
            x  In                3         0.000000  -0.248598   0.662927   x
            x  In                4         0.500000   0.281984   0.581377   x
            x  In                5         0.000000  -0.187437   0.499831   x
            x  In                6         0.000000  -0.309755   0.826014   x
            x  In                7         0.000000  -0.126254   0.336677   x
            x  In                8         0.500000   0.159481   0.908051   x
            x  In                9         0.000000  -0.065073   0.173527   x
            x  In               10         0.500000   0.465498   0.092004   x
            x  In               11         0.000000  -0.003848   0.010261   x
            x  In               12         0.500000   0.404336   0.255103   x
            xxxxxxxxxxxxxxxxxxxxxxxxxxxxxxxxxxxxxxxxxxxxxxxxxxxxxxxxxxxxxxxxx


------------------------------------------------------------------------ <-- SCF
SCF loop      Energy           Fermi           Energy gain       Timer   <-- SCF
                               energy          per atom          (sec)   <-- SCF
------------------------------------------------------------------------ <-- SCF
Initial  -2.35782328E+004  0.00000000E+000                      2642.43  <-- SCF
      1  -2.35782449E+004  3.87801139E+000   5.06070474E-004    2682.65  <-- SCF
      2  -2.35782449E+004  3.87801138E+000   5.91117494E-007    2728.24  <-- SCF
      3  -2.35782449E+004  3.87802753E+000   4.53814775E-009    2756.44  <-- SCF
      4  -2.35782449E+004  3.87803041E+000   2.92562103E-009    2784.97  <-- SCF
------------------------------------------------------------------------ <-- SCF
 
Final energy, E             =  -23578.23334478     eV
Final free energy (E-TS)    =  -23578.24494465     eV
(energies not corrected for finite basis set)
 
NB est. 0K energy (E-0.5TS)      =  -23578.23914472     eV
 

 ******************************** Constrained Forces ********************************
 *                                                                                  *
 *                           Cartesian components (eV/A)                            *
 * -------------------------------------------------------------------------------- *
 *                         x                    y                    z              *
 *                                                                                  *
 * P               1     -0.00000(cons'd)      0.00000(cons'd)      0.00066         *
 * P               2      0.00000(cons'd)     -0.00000(cons'd)      0.00088         *
 * P               3      0.00000(cons'd)      0.00000(cons'd)      0.00023         *
 * P               4      0.00000(cons'd)     -0.00000(cons'd)      0.00056         *
 * P               5      0.00000(cons'd)      0.00000(cons'd)      0.00052         *
 * P               6     -0.00000(cons'd)      0.00000(cons'd)     -0.00006         *
 * P               7      0.00000(cons'd)      0.00000(cons'd)      0.00002         *
 * P               8      0.00000(cons'd)      0.00000(cons'd)     -0.00045         *
 * P               9      0.00000(cons'd)      0.00000(cons'd)      0.00003         *
 * P              10     -0.00000(cons'd)      0.00000(cons'd)     -0.00091         *
 * P              11      0.00000(cons'd)     -0.00000(cons'd)     -0.00144         *
 * P              12     -0.00000(cons'd)      0.00000(cons'd)     -0.00067         *
 * In              1      0.00000(cons'd)      0.00000(cons'd)     -0.00034         *
 * In              2      0.00000(cons'd)     -0.00000(cons'd)     -0.00009         *
 * In              3      0.00000(cons'd)      0.00000(cons'd)     -0.00008         *
 * In              4      0.00000(cons'd)      0.00000(cons'd)     -0.00026         *
 * In              5      0.00000(cons'd)      0.00000(cons'd)     -0.00028         *
 * In              6      0.00000(cons'd)      0.00000(cons'd)      0.00041         *
 * In              7      0.00000(cons'd)     -0.00000(cons'd)     -0.00035         *
 * In              8     -0.00000(cons'd)      0.00000(cons'd)      0.00128         *
 * In              9      0.00000(cons'd)      0.00000(cons'd)     -0.00032         *
 * In             10      0.00000(cons'd)      0.00000(cons'd)      0.00014         *
 * In             11      0.00000(cons'd)      0.00000(cons'd)      0.00096         *
 * In             12      0.00000(cons'd)      0.00000(cons'd)     -0.00045         *
 *                                                                                  *
 ************************************************************************************
  
 +------------+-------------+-------------+-----------------+ <-- min LBFGS
 |    Step    |   lambda    |   F.delta'  |    enthalpy     | <-- min LBFGS
 +------------+-------------+-------------+-----------------+ <-- min LBFGS
 |  previous  |    0.000000 |    0.002611 |   -23578.244943 | <-- min LBFGS
 | trial step |    1.000000 |    0.000799 |   -23578.244945 | <-- min LBFGS
 +------------+-------------+-------------+-----------------+ <-- min LBFGS
  

--------------------------------------------------------------------------------
 LBFGS: improving iteration         4 with line minimization (lambda=  1.440944)
--------------------------------------------------------------------------------

                           -------------------------------
                                     Cell Contents
                           -------------------------------

            xxxxxxxxxxxxxxxxxxxxxxxxxxxxxxxxxxxxxxxxxxxxxxxxxxxxxxxxxxxxxxxxx
            x  Element         Atom        Fractional coordinates of atoms  x
            x                 Number           u          v          w      x
            x---------------------------------------------------------------x
            x  P                 1         0.500000  -0.141439   0.377171   x
            x  P                 2         0.000000   0.327957   0.458781   x
            x  P                 3         0.000000   0.389151   0.295597   x
            x  P                 4         0.500000  -0.202625   0.540333   x
            x  P                 5         0.000000   0.266798   0.621873   x
            x  P                 6         0.500000  -0.080247   0.213993   x
            x  P                 7         0.500000  -0.263787   0.703433   x
            x  P                 8         0.000000   0.205645   0.784946   x
            x  P                 9         0.000000   0.450357   0.132381   x
            x  P                10         0.500000  -0.324944   0.866518   x
            x  P                11         0.000000   0.145268   0.945953   x
            x  P                12         0.500000  -0.018944   0.050518   x
            x  In                1         0.500000   0.343152   0.418261   x
            x  In                2         0.500000   0.220824   0.744470   x
            x  In                3         0.000000  -0.248598   0.662929   x
            x  In                4         0.500000   0.281982   0.581380   x
            x  In                5         0.000000  -0.187438   0.499835   x
            x  In                6         0.000000  -0.309753   0.826009   x
            x  In                7         0.000000  -0.126255   0.336681   x
            x  In                8         0.500000   0.159483   0.908047   x
            x  In                9         0.000000  -0.065072   0.173526   x
            x  In               10         0.500000   0.465499   0.092002   x
            x  In               11         0.000000  -0.003846   0.010257   x
            x  In               12         0.500000   0.404336   0.255104   x
            xxxxxxxxxxxxxxxxxxxxxxxxxxxxxxxxxxxxxxxxxxxxxxxxxxxxxxxxxxxxxxxxx


------------------------------------------------------------------------ <-- SCF
SCF loop      Energy           Fermi           Energy gain       Timer   <-- SCF
                               energy          per atom          (sec)   <-- SCF
------------------------------------------------------------------------ <-- SCF
Initial  -2.35782334E+004  0.00000000E+000                      2832.66  <-- SCF
      1  -2.35782449E+004  3.87804451E+000   4.81718014E-004    2873.29  <-- SCF
      2  -2.35782449E+004  3.87804450E+000   1.14094580E-007    2910.45  <-- SCF
      3  -2.35782449E+004  3.87805221E+000   1.97666645E-009    2936.88  <-- SCF
      4  -2.35782449E+004  3.87805355E+000  -3.18767273E-010    2965.76  <-- SCF
------------------------------------------------------------------------ <-- SCF
 
Final energy, E             =  -23578.23334543     eV
Final free energy (E-TS)    =  -23578.24494467     eV
(energies not corrected for finite basis set)
 
NB est. 0K energy (E-0.5TS)      =  -23578.23914505     eV
 

 ******************************** Constrained Forces ********************************
 *                                                                                  *
 *                           Cartesian components (eV/A)                            *
 * -------------------------------------------------------------------------------- *
 *                         x                    y                    z              *
 *                                                                                  *
 * P               1     -0.00000(cons'd)      0.00000(cons'd)     -0.00018         *
 * P               2      0.00000(cons'd)     -0.00000(cons'd)     -0.00015         *
 * P               3      0.00000(cons'd)     -0.00000(cons'd)     -0.00026         *
 * P               4      0.00000(cons'd)     -0.00000(cons'd)     -0.00034         *
 * P               5      0.00000(cons'd)      0.00000(cons'd)     -0.00013         *
 * P               6      0.00000(cons'd)      0.00000(cons'd)      0.00032         *
 * P               7     -0.00000(cons'd)      0.00000(cons'd)     -0.00004         *
 * P               8      0.00000(cons'd)      0.00000(cons'd)      0.00024         *
 * P               9      0.00000(cons'd)      0.00000(cons'd)      0.00096         *
 * P              10      0.00000(cons'd)      0.00000(cons'd)      0.00066         *
 * P              11      0.00000(cons'd)     -0.00000(cons'd)     -0.00163         *
 * P              12     -0.00000(cons'd)      0.00000(cons'd)     -0.00015         *
 * In              1      0.00000(cons'd)      0.00000(cons'd)      0.00043         *
 * In              2      0.00000(cons'd)      0.00000(cons'd)     -0.00030         *
 * In              3      0.00000(cons'd)      0.00000(cons'd)      0.00005         *
 * In              4      0.00000(cons'd)     -0.00000(cons'd)      0.00034         *
 * In              5      0.00000(cons'd)     -0.00000(cons'd)      0.00047         *
 * In              6      0.00000(cons'd)      0.00000(cons'd)     -0.00031         *
 * In              7      0.00000(cons'd)      0.00000(cons'd)      0.00017         *
 * In              8      0.00000(cons'd)      0.00000(cons'd)      0.00069         *
 * In              9      0.00000(cons'd)      0.00000(cons'd)     -0.00048         *
 * In             10      0.00000(cons'd)      0.00000(cons'd)     -0.00054         *
 * In             11      0.00000(cons'd)      0.00000(cons'd)      0.00078         *
 * In             12      0.00000(cons'd)      0.00000(cons'd)     -0.00058         *
 *                                                                                  *
 ************************************************************************************
  
 +------------+-------------+-------------+-----------------+ <-- min LBFGS
 |    Step    |   lambda    |   F.delta'  |    enthalpy     | <-- min LBFGS
 +------------+-------------+-------------+-----------------+ <-- min LBFGS
 |  previous  |    0.000000 |    0.002611 |   -23578.244943 | <-- min LBFGS
 | trial step |    1.000000 |    0.000799 |   -23578.244945 | <-- min LBFGS
 |  line step |    1.440944 |   -0.000368 |   -23578.244945 | <-- min LBFGS
 +------------+-------------+-------------+-----------------+ <-- min LBFGS
  
 LBFGS: finished iteration     4 with enthalpy= -2.35782449E+004 eV
  
 +-----------+-----------------+-----------------+------------+-----+ <-- LBFGS
 | Parameter |      value      |    tolerance    |    units   | OK? | <-- LBFGS
 +-----------+-----------------+-----------------+------------+-----+ <-- LBFGS
 |  dE/ion   |   6.710219E-008 |   2.000000E-005 |         eV | Yes | <-- LBFGS
[...]
            x  P                 7         0.500000  -0.263787   0.703433   x
            x  P                 8         0.000000   0.205645   0.784947   x
            x  P                 9         0.000000   0.450357   0.132382   x
            x  P                10         0.500000  -0.324945   0.866520   x
            x  P                11         0.000000   0.145268   0.945951   x
            x  P                12         0.500000  -0.018944   0.050517   x
            x  In                1         0.500000   0.343152   0.418262   x
            x  In                2         0.500000   0.220824   0.744470   x
            x  In                3         0.000000  -0.248598   0.662929   x
            x  In                4         0.500000   0.281982   0.581382   x
            x  In                5         0.000000  -0.187439   0.499837   x
            x  In                6         0.000000  -0.309754   0.826010   x
            x  In                7         0.000000  -0.126255   0.336680   x
            x  In                8         0.500000   0.159482   0.908048   x
            x  In                9         0.000000  -0.065072   0.173525   x
            x  In               10         0.500000   0.465500   0.092001   x
            x  In               11         0.000000  -0.003846   0.010256   x
            x  In               12         0.500000   0.404337   0.255102   x
            xxxxxxxxxxxxxxxxxxxxxxxxxxxxxxxxxxxxxxxxxxxxxxxxxxxxxxxxxxxxxxxxx


 LBFGS: Final Enthalpy     = -2.35782449E+004 eV
 LBFGS: Final <frequency>  =     266.72612 cm-1

 ******************* Unconstrained Forces *******************
 *                                                          *
 *               Cartesian components (eV/A)                *
 * -------------------------------------------------------- *
 *                         x            y            z      *
 *                                                          *
 * P               1      0.00000      0.00394     -0.00033 *
 * P               2     -0.00000      0.00522     -0.00035 *
 * P               3     -0.00000      0.00160     -0.00028 *
 * P               4      0.00000      0.00289     -0.00037 *
 * P               5     -0.00000     -0.00008     -0.00018 *
 * P               6      0.00000     -0.00501      0.00009 *
 * P               7      0.00000     -0.00498      0.00002 *
 * P               8     -0.00000     -0.01046      0.00035 *
 * P               9     -0.00000     -0.02309      0.00049 *
 * P              10      0.00000     -0.05048      0.00078 *
 * P              11     -0.00001      0.42167     -0.00015 *
 * P              12      0.00000     -0.14065      0.00014 *
 * In              1      0.00000      0.00065      0.00016 *
 * In              2      0.00000     -0.00132     -0.00023 *
 * In              3     -0.00000      0.00042      0.00008 *
 * In              4      0.00000      0.00075      0.00008 *
 * In              5     -0.00000      0.00071      0.00025 *
 * In              6     -0.00000     -0.01272     -0.00082 *
 * In              7     -0.00000      0.00077      0.00071 *
 * In              8      0.00001     -0.07138     -0.00093 *
 * In              9     -0.00000      0.00631     -0.00009 *
 * In             10      0.00000      0.03653      0.00006 *
 * In             11     -0.00000     -0.16284     -0.00001 *
 * In             12      0.00000      0.00154      0.00054 *
 *                                                          *
 ************************************************************

 ******************************** Constrained Forces ********************************
 *                                                                                  *
 *                           Cartesian components (eV/A)                            *
 * -------------------------------------------------------------------------------- *
 *                         x                    y                    z              *
 *                                                                                  *
 * P               1      0.00000(cons'd)     -0.00000(cons'd)     -0.00033         *
 * P               2      0.00000(cons'd)     -0.00000(cons'd)     -0.00035         *
 * P               3      0.00000(cons'd)     -0.00000(cons'd)     -0.00028         *
 * P               4     -0.00000(cons'd)      0.00000(cons'd)     -0.00037         *
 * P               5      0.00000(cons'd)      0.00000(cons'd)     -0.00018         *
 * P               6      0.00000(cons'd)      0.00000(cons'd)      0.00009         *
 * P               7     -0.00000(cons'd)      0.00000(cons'd)      0.00002         *
 * P               8      0.00000(cons'd)      0.00000(cons'd)      0.00035         *
 * P               9      0.00000(cons'd)      0.00000(cons'd)      0.00049         *
 * P              10      0.00000(cons'd)      0.00000(cons'd)      0.00078         *
 * P              11      0.00000(cons'd)     -0.00000(cons'd)     -0.00015         *
 * P              12     -0.00000(cons'd)      0.00000(cons'd)      0.00014         *
 * In              1      0.00000(cons'd)      0.00000(cons'd)      0.00016         *
 * In              2      0.00000(cons'd)      0.00000(cons'd)     -0.00023         *
 * In              3      0.00000(cons'd)      0.00000(cons'd)      0.00008         *
 * In              4      0.00000(cons'd)      0.00000(cons'd)      0.00008         *
 * In              5      0.00000(cons'd)      0.00000(cons'd)      0.00025         *
 * In              6      0.00000(cons'd)      0.00000(cons'd)     -0.00082         *
 * In              7      0.00000(cons'd)      0.00000(cons'd)      0.00071         *
 * In              8      0.00000(cons'd)      0.00000(cons'd)     -0.00093         *
 * In              9      0.00000(cons'd)      0.00000(cons'd)     -0.00009         *
 * In             10      0.00000(cons'd)      0.00000(cons'd)      0.00006         *
 * In             11      0.00000(cons'd)      0.00000(cons'd)     -0.00001         *
 * In             12      0.00000(cons'd)      0.00000(cons'd)      0.00054         *
 *                                                                                  *
 ************************************************************************************

 Pseudo atomic calculation performed for P 3s2 3p3

 Converged in 23 iterations to a total energy of -208.0292 eV

 Pseudo atomic calculation performed for In 4d10 5s2 5p1

 Converged in 42 iterations to a total energy of -1747.4501 eV
Charge spilling parameter for spin component 1 = 0.18%

            Orbital Populations       
     Ion    Atom   Orbital             Charge
  -------------------------------------------
      P     1      S                    1.729
      P     1      Px                   1.306
      P     1      Py                   1.324
      P     1      Pz                   1.320
      P     2      S                    1.729
      P     2      Px                   1.306
      P     2      Py                   1.324
      P     2      Pz                   1.320
      P     3      S                    1.729
      P     3      Px                   1.306
      P     3      Py                   1.325
      P     3      Pz                   1.320
      P     4      S                    1.729
      P     4      Px                   1.306
      P     4      Py                   1.324
      P     4      Pz                   1.320
      P     5      S                    1.729
      P     5      Px                   1.306
      P     5      Py                   1.324
      P     5      Pz                   1.320
      P     6      S                    1.729
      P     6      Px                   1.305
      P     6      Py                   1.324
      P     6      Pz                   1.319
      P     7      S                    1.729
      P     7      Px                   1.306
      P     7      Py                   1.324
      P     7      Pz                   1.320
      P     8      S                    1.728
      P     8      Px                   1.306
      P     8      Py                   1.323
      P     8      Pz                   1.320
      P     9      S                    1.730
      P     9      Px                   1.304
      P     9      Py                   1.325
      P     9      Pz                   1.319
      P    10      S                    1.733
      P    10      Px                   1.301
      P    10      Py                   1.317
      P    10      Pz                   1.319
      P    11      S                    1.706
      P    11      Px                   1.301
      P    11      Py                   1.474
      P    11      Pz                   1.188
      P    12      S                    1.737
      P    12      Px                   1.293
      P    12      Py                   1.319
      P    12      Pz                   1.330
     In     1      Dzz                  1.999
     In     1      Dzy                  1.997
     In     1      Dzx                  1.997
     In     1      Dxx-yy               1.997
     In     1      Dxy                  1.999
     In     1      S                    1.422
     In     1      Px                   0.494
     In     1      Py                   0.480
     In     1      Pz                   0.478
     In     1      S                   -0.546
     In     2      Dzz                  1.999
     In     2      Dzy                  1.997
     In     2      Dzx                  1.997
     In     2      Dxx-yy               1.997
     In     2      Dxy                  1.999
     In     2      S                    1.416
     In     2      Px                   0.492
     In     2      Py                   0.478
     In     2      Pz                   0.476
     In     2      S                   -0.539
     In     3      Dzz                  1.999
     In     3      Dzy                  1.997
     In     3      Dzx                  1.997
     In     3      Dxx-yy               1.997
     In     3      Dxy                  1.999
     In     3      S                    1.416
     In     3      Px                   0.493
     In     3      Py                   0.480
     In     3      Pz                   0.477
     In     3      S                   -0.542
     In     4      Dzz                  1.999
     In     4      Dzy                  1.997
     In     4      Dzx                  1.997
     In     4      Dxx-yy               1.997
     In     4      Dxy                  1.999
     In     4      S                    1.421
     In     4      Px                   0.494
     In     4      Py                   0.480
     In     4      Pz                   0.478
     In     4      S                   -0.548
     In     5      Dzz                  1.999
     In     5      Dzy                  1.997
     In     5      Dzx                  1.997
     In     5      Dxx-yy               1.997
     In     5      Dxy                  1.999
     In     5      S                    1.422
     In     5      Px                   0.494
     In     5      Py                   0.480
     In     5      Pz                   0.478
     In     5      S                   -0.545
     In     6      Dzz                  1.999
     In     6      Dzy                  1.997
     In     6      Dzx                  1.997
     In     6      Dxx-yy               1.997
     In     6      Dxy                  1.999
     In     6      S                    1.409
     In     6      Px                   0.495
     In     6      Py                   0.483
     In     6      Pz                   0.474
     In     6      S                   -0.543
     In     7      Dzz                  1.999
     In     7      Dzy                  1.997
     In     7      Dzx                  1.997
     In     7      Dxx-yy               1.997
     In     7      Dxy                  1.999
     In     7      S                    1.423
     In     7      Px                   0.494
     In     7      Py                   0.480
     In     7      Pz                   0.478
     In     7      S                   -0.547
     In     8      Dzz                  1.999
     In     8      Dzy                  1.997
     In     8      Dzx                  1.996
     In     8      Dxx-yy               1.996
     In     8      Dxy                  1.999
     In     8      S                    1.466
     In     8      Px                   0.470
     In     8      Py                   0.497
     In     8      Pz                   0.479
     In     8      S                   -0.563
     In     9      Dzz                  1.999
     In     9      Dzy                  1.997
     In     9      Dzx                  1.997
     In     9      Dxx-yy               1.997
     In     9      Dxy                  1.999
     In     9      S                    1.420
     In     9      Px                   0.492
     In     9      Py                   0.477
     In     9      Pz                   0.475
     In     9      S                   -0.548
     In    10      Dzz                  1.999
     In    10      Dzy                  1.997
     In    10      Dzx                  1.997
     In    10      Dxx-yy               1.997
     In    10      Dxy                  1.999
     In    10      S                    1.410
     In    10      Px                   0.493
     In    10      Py                   0.478
     In    10      Pz                   0.466
     In    10      S                   -0.510
     In    11      Dzz                  1.994
     In    11      Dzy                  1.998
     In    11      Dzx                  1.997
     In    11      Dxx-yy               1.997
     In    11      Dxy                  1.999
     In    11      S                    1.507
     In    11      Px                   0.452
     In    11      Py                   0.486
     In    11      Pz                   0.525
     In    11      S                   -0.555
     In    12      Dzz                  1.999
     In    12      Dzy                  1.997
     In    12      Dzx                  1.997
     In    12      Dxx-yy               1.997
     In    12      Dxy                  1.999
     In    12      S                    1.414
     In    12      Px                   0.494
     In    12      Py                   0.479
     In    12      Pz                   0.477
     In    12      S                   -0.545
  -------------------------------------------
                           Total:     216.000
  -------------------------------------------

     Atomic Populations (Mulliken)
     -----------------------------
Species          Ion     s       p       d       f      Total   Charge (e)
==========================================================================
  P               1     1.729   3.950   0.000   0.000   5.679    -0.679
  P               2     1.729   3.951   0.000   0.000   5.680    -0.680
  P               3     1.729   3.950   0.000   0.000   5.679    -0.679
  P               4     1.729   3.951   0.000   0.000   5.680    -0.680
  P               5     1.729   3.951   0.000   0.000   5.679    -0.679
  P               6     1.729   3.949   0.000   0.000   5.678    -0.678
  P               7     1.729   3.950   0.000   0.000   5.679    -0.679
  P               8     1.728   3.949   0.000   0.000   5.677    -0.677
  P               9     1.730   3.948   0.000   0.000   5.678    -0.678
  P              10     1.733   3.938   0.000   0.000   5.671    -0.671
  P              11     1.706   3.964   0.000   0.000   5.669    -0.669
  P              12     1.737   3.942   0.000   0.000   5.680    -0.680
  In              1     0.876   1.451   9.988   0.000  12.316     0.684
  In              2     0.877   1.446   9.988   0.000  12.312     0.688
  In              3     0.874   1.451   9.988   0.000  12.314     0.686
  In              4     0.873   1.452   9.988   0.000  12.314     0.686
  In              5     0.877   1.452   9.988   0.000  12.317     0.683
  In              6     0.867   1.453   9.988   0.000  12.307     0.693
  In              7     0.876   1.451   9.988   0.000  12.316     0.684
  In              8     0.903   1.446   9.987   0.000  12.336     0.664
  In              9     0.872   1.444   9.988   0.000  12.305     0.695
  In             10     0.900   1.437   9.989   0.000  12.326     0.674
  In             11     0.952   1.464   9.985   0.000  12.401     0.599
  In             12     0.869   1.450   9.988   0.000  12.308     0.692
==========================================================================

                 Bond                   Population      Length (A)
======================================================================
              P 11 -- In 11                  0.93        2.33588
              P 11 -- In 8                   1.36        2.48078
              P 12 -- In 11                  1.10        2.52690
              P 9  -- In 10                  1.23        2.52933
              P 6  -- In 9                   1.22        2.53105
              P 8  -- In 2                   1.22        2.53124
              P 1  -- In 7                   1.20        2.53152
              P 5  -- In 4                   1.20        2.53153
              P 3  -- In 12                  1.20        2.53157
              P 4  -- In 5                   1.20        2.53165
              P 7  -- In 3                   1.18        2.53178
              P 10 -- In 6                   1.24        2.53191
              P 2  -- In 1                   1.20        2.53209
              P 7  -- In 2                   1.16        2.54252
              P 4  -- In 4                   1.15        2.54273
              P 2  -- In 5                   1.14        2.54288
              P 5  -- In 3                   1.15        2.54290
              P 8  -- In 6                   1.16        2.54304
              P 3  -- In 7                   1.13        2.54348
              P 1  -- In 1                   1.14        2.54362
              P 6  -- In 12                  1.12        2.54399
              P 9  -- In 9                   1.11        2.54466
              P 12 -- In 10                  1.13        2.55160
              P 10 -- In 8                   1.08        2.55249
======================================================================

 Hirshfeld supercell size:           4           4           1
Standard grid dimensions: 180 180 360
Fine grid dimensions:     180 180 360


     Hirshfeld Analysis
     ------------------
Species   Ion     Hirshfeld Charge (e)
======================================
  P        1                -0.24
  P        2                -0.24
  P        3                -0.24
  P        4                -0.24
  P        5                -0.24
  P        6                -0.24
  P        7                -0.24
  P        8                -0.24
  P        9                -0.24
  P       10                -0.23
  P       11                -0.27
  P       12                -0.23
  In       1                 0.24
  In       2                 0.24
  In       3                 0.24
  In       4                 0.24
  In       5                 0.24
  In       6                 0.24
  In       7                 0.24
  In       8                 0.25
  In       9                 0.24
  In      10                 0.24
  In      11                 0.26
  In      12                 0.24
======================================

 
 A BibTeX formatted list of references used in this run has been written to 
 StackingFaultStructs_001_110_3.bib
 
Initialisation time =     22.90 s
Calculation time    =   3259.49 s
Finalisation time   =     62.75 s
Total time          =   3345.13 s
Peak Memory Use     = 9994804 kB
 
Overall parallel efficiency rating: Good (79%)
 
Data was distributed by:-
k-point (68-way); efficiency rating: Very good (80%)
