 +-------------------------------------------------+
 |                                                 |
 |      CCC   AA    SSS  TTTTT  EEEEE  PPPP        |
 |     C     A  A  S       T    E      P   P       |
 |     C     AAAA   SS     T    EEE    PPPP        |
 |     C     A  A     S    T    E      P           |
 |      CCC  A  A  SSS     T    EEEEE  P           |
 |                                                 |
 +-------------------------------------------------+
 |                                                 |
 | Welcome to Academic Release CASTEP version 22.11|
 | Ab Initio Total Energy Program                  |
 |                                                 |
 | Authors:                                        |
 | M. Segall, M. Probert, C. Pickard, P. Hasnip,   |
 | S. Clark, K. Refson, J. R. Yates, M. Payne      |
 |                                                 |
 | Contributors:                                   |
 | P. Lindan, P. Haynes, J. White, V. Milman,      |
 | N. Govind, M. Gibson, P. Tulip, V. Cocula,      |
 | B. Montanari, D. Quigley, M. Glover,            |
 | L. Bernasconi, A. Perlov, M. Plummer,           |
 | E. McNellis, J. Meyer, J. Gale, D. Jochym       |
 | J. Aarons, B. Walker, R. Gillen, D. Jones       |
 | T. Green, I. J. Bush, C. J. Armstrong,          |
 | E. J. Higgins, E. L. Brown, M. S. McFly,        |
 | J. Wilkins, B-C. Shih, P. J. P. Byrne,          |
 | R. J. Maurer, J. C. Womack, J. Dziedzic,        |
 | A. Bartok-Partay, L. LeBlanc, T. K. Stenczel,   |
 | J. Kermode, S. Sturniolo, B. Shi, B. Durham     |
 | M. Evans, M. J. Smith                           |
 |                                                 |
 | Copyright (c) 2000 - 2021                       |
 |                                                 |
 |     Distributed under license from Cambridge    |
 |     Enterprise for academic use only.           |
 |                                                 |
 | Please cite                                     |
 |                                                 |
 |     "First principles methods using CASTEP"     |
 |                                                 |
 |         Zeitschrift fuer Kristallographie       |
 |           220(5-6) pp. 567-570 (2005)           |
 |                                                 |
 | S. J. Clark, M. D. Segall, C. J. Pickard,       |
 | P. J. Hasnip, M. J. Probert, K. Refson,         |
 | M. C. Payne                                     |
 |                                                 |
 |       in all publications arising from          |
 |              your use of CASTEP                 |
 |                                                 |
 +-------------------------------------------------+
 |                                                 |
 |              http://www.castep.org              |
 |                                                 |
 +-------------------------------------------------+



 Compiled for linux_x86_64_gfortran10-XT on Thu, 16 Mar 2023 13:12:36 +0000
 from code version Version unavailable
 Compiler: GNU Fortran 11.2.0; Optimisation: fast
 MATHLIBS: LibSci (LAPACK version 3.10.1)
 FFT Lib : fftw3 version commercial-fftw-3.3.10-sse2-avx-avx2-avx2_128
 Fundamental constants values: CODATA 2014

 Run started: Sun, 16 Jul 2023 23:39:35 +0100

 Atomic calculation performed for P: 1s2 2s2 2p6 3s2 3p3

 Converged in 47 iterations to an ae energy of -9309.074 eV

   ============================================================                
   | Pseudopotential Report - Date of generation 16-07-2023   |                
   ------------------------------------------------------------                
   | Element: P Ionic charge:  5.00 Level of theory: RSCAN    |                
   | Atomic Solver: Koelling-Harmon                           |                
   |                                                          |                
   |               Reference Electronic Structure             |                
   |         Orbital         Occupation         Energy        |                
   |            3s              2.000           -0.535        |                
   |            3p              3.000           -0.209        |                
   |                                                          |                
   |                 Pseudopotential Definition               |                
   |        Beta     l      e      Rc     scheme   norm       |                
   |          1      0   -0.535   1.807     qc      0         |                
   |          2      0    0.250   1.807     qc      0         |                
   |          3      1   -0.209   1.807     qc      0         |                
   |          4      1    0.250   1.807     qc      0         |                
   |          5      2    0.000   1.807     qc      0         |                
   |          6      2    0.250   1.807     qc      0         |                
   |         loc     3    0.000   1.807     pn      0         |                
   |                                                          |                
   | Augmentation charge Rinner = 1.263                       |                
   | Partial core correction Rc = 1.263                       |                
   ------------------------------------------------------------                
   | "3|1.8|4|4|5|30:31:32"                                   |                
   ------------------------------------------------------------                
   |      Author: Chris J. Pickard, Cambridge University      |                
   ============================================================                
 Warning: otfg_output_psp cannot write out meta-GGA pseudopotentials presently.

 Atomic calculation performed for In:
 1s2 2s2 2p6 3s2 3p6 3d10 4s2 4p6 4d10 5s2 5p1

 Converged in 84 iterations to an ae energy of -160093.327 eV

   ============================================================                
   | Pseudopotential Report - Date of generation 16-07-2023   |                
   ------------------------------------------------------------                
   | Element: In Ionic charge: 13.00 Level of theory: RSCAN   |                
   | Atomic Solver: Koelling-Harmon                           |                
   |                                                          |                
   |               Reference Electronic Structure             |                
   |         Orbital         Occupation         Energy        |                
   |            4d             10.000           -0.711        |                
   |            5s              2.000           -0.313        |                
   |            5p              1.000           -0.095        |                
   |                                                          |                
   |                 Pseudopotential Definition               |                
   |        Beta     l      e      Rc     scheme   norm       |                
   |          1      0   -0.313   2.501     qc      0         |                
   |          2      0    0.250   2.501     qc      0         |                
   |          3      1   -0.095   2.501     qc      0         |                
   |          4      1    0.250   2.501     qc      0         |                
   |          5      2   -0.711   2.207     qc      0         |                
   |          6      2    0.250   2.207     qc      0         |                
   |         loc     3    0.000   2.501     pn      0         |                
   |                                                          |                
   | Augmentation charge Rinner = 1.504                       |                
   | Partial core correction Rc = 1.504                       |                
   ------------------------------------------------------------                
   | "3|2.5|2.5|1.5|7|8|9|50:51:42U2.2U2.2"                   |                
   ------------------------------------------------------------                
   |      Author: Chris J. Pickard, Cambridge University      |                
   ============================================================                
 Warning: otfg_output_psp cannot write out meta-GGA pseudopotentials presently.

 Pseudo atomic calculation performed for P 3s2 3p3

 Converged in 23 iterations to a total energy of -208.0300 eV

 Pseudo atomic calculation performed for In 4d10 5s2 5p1

 Converged in 42 iterations to a total energy of -1747.4733 eV
 Calculation parallelised over 384 processes.
 Data is distributed by k-point(384-way)

 ************************************ Title ************************************
 

 ***************************** General Parameters ******************************
  
 output verbosity                               : normal  (1)
 write checkpoint data to                       : WZ_Bulk.check
 type of calculation                            : geometry optimization
 stress calculation                             : off
 density difference calculation                 : off
 electron localisation func (ELF) calculation   : off
 Hirshfeld analysis                             : off
 polarisation (Berry phase) analysis            : off
 molecular orbital projected DOS                : off
 deltaSCF calculation                           : off
 unlimited duration calculation
 timing information                             : on
 memory usage estimate                          : on
 write extra output files                       : on
 write final potential to formatted file        : off
 write final density to formatted file          : off
 write BibTeX reference list                    : on
 write OTFG pseudopotential files               : on
 write electrostatic potential file             : on
 write bands file                               : on
 checkpoint writing                             : off
  
 output         length unit                     : A
 output           mass unit                     : amu
 output           time unit                     : ps
 output         charge unit                     : e
 output           spin unit                     : hbar/2
 output         energy unit                     : eV
 output          force unit                     : eV/A
 output       velocity unit                     : A/ps
 output       pressure unit                     : GPa
 output     inv_length unit                     : 1/A
 output      frequency unit                     : cm-1
 output force constant unit                     : eV/A**2
 output         volume unit                     : A**3
 output   IR intensity unit                     : (D/A)**2/amu
 output         dipole unit                     : D
 output         efield unit                     : eV/A/e
 output        entropy unit                     : J/mol/K
 output    efield chi2 unit                     : pm/V
  
 wavefunctions paging                           : none
 random number generator seed                   : randomised (233935193)
 data distribution                              : optimal for this architecture
 optimization strategy                          : balance speed and memory

 *********************** Exchange-Correlation Parameters ***********************
  
 using functional                               : RSCAN
 relativistic treatment                         : Koelling-Harmon
 DFT+D: Semi-empirical dispersion correction    : off

 ************************* Pseudopotential Parameters **************************
  
 pseudopotential representation                 : reciprocal space
 <beta|phi> representation                      : reciprocal space
 spin-orbit coupling                            : off

 **************************** Basis Set Parameters *****************************
  
 plane wave basis set cut-off                   :  1200.0000   eV
 size of standard grid                          :     2.0000
 size of   fine   gmax                          :    35.4943   1/A
 finite basis set correction                    : automatic
 number of sample energies                      :          3
           sample  spacing                      :     5.0000   eV

 **************************** Electronic Parameters ****************************
  
 number of  electrons                           :  36.00    
 net charge of system                           :  0.000    
 treating system as non-spin-polarized
 number of bands                                :         22

 ********************* Electronic Minimization Parameters **********************
  
 Method: Treating system as metallic with density mixing treatment of electrons,
         and number of  SD  steps               :          1
         and number of  CG  steps               :          4
  
 total energy / atom convergence tol.           : 0.1000E-07   eV
 eigen-energy convergence tolerance             : 0.2222E-08   eV
 max force / atom convergence tol.              : ignored
 convergence tolerance window                   :          3   cycles
 max. number of SCF cycles                      :         50
 number of fixed-spin iterations                :         10
 smearing scheme                                : Gaussian
 smearing width                                 : 0.2000       eV
 Fermi energy convergence tolerance             : 0.2721E-13   eV
 periodic dipole correction                     : NONE

 ************************** Density Mixing Parameters **************************
  
 density-mixing scheme                          : Pulay
 max. length of mixing history                  :         15
 charge density mixing amplitude                : 0.5000    
 cut-off energy for mixing                      :  1200.       eV

 *********************** Population Analysis Parameters ************************
  
 Population analysis with cutoff                :  3.000       A
 Population analysis output                     : summary and pdos components

 ********************** Geometry Optimization Parameters ***********************
  
 optimization method                            : LBFGS
 max. no. of LBFGS updates                      : unbounded
 variable cell method                           : fixed basis quality
 max. number of steps                           :         20
 estimated bulk modulus                         :  500.0       GPa
 estimated <frequency>                          :  1668.       cm-1
 geom line minimiser                            : on
 with line minimiser tolerance                  :     0.4000
 total energy convergence tolerance             : 0.2000E-04   eV/atom
        max ionic |force| tolerance             : 0.1000E-02   eV/A
 max ionic |displacement| tolerance             : 0.1000E-02   A
   max |stress component| tolerance             : 0.1000E-03   GPa
 convergence tolerance window                   :          2   steps
 backup results every                           :          5   steps
 write geom trajectory file                     : on

 *******************************************************************************
  

                           -------------------------------
                                      Unit Cell
                           -------------------------------
        Real Lattice(A)                      Reciprocal Lattice(1/A)
     4.1646220    -0.0000430     0.0000000        1.508695832  -0.871025263   0.000000000
     2.0822740     3.6066900     0.0000000        0.000017987   1.742081480   0.000000000
     0.0000000     0.0000000     6.8392100        0.000000000   0.000000000   0.918700450

                       Lattice parameters(A)       Cell Angles
                    a =      4.164622          alpha =   90.000000
                    b =      4.164622          beta  =   90.000000
                    c =      6.839210          gamma =   60.001181

                       Current cell volume =           102.728970       A**3
                                   density =             2.838377   AMU/A**3
                                           =             4.713235     g/cm^3

                           -------------------------------
                                     Cell Contents
                           -------------------------------
                         Total number of ions in cell =    4
                      Total number of species in cell =    2
                        Max number of any one species =    2

            xxxxxxxxxxxxxxxxxxxxxxxxxxxxxxxxxxxxxxxxxxxxxxxxxxxxxxxxxxxx
            x  Element    Atom        Fractional coordinates of atoms  x
            x            Number           u          v          w      x
            x----------------------------------------------------------x
            x  P            1         0.333329   0.333331  -0.000013   x 
            x  P            2         0.666669   0.666671   0.499987   x 
            x  In           1         0.333331   0.333333   0.374443   x 
            x  In           2         0.666667   0.666669   0.874443   x 
            xxxxxxxxxxxxxxxxxxxxxxxxxxxxxxxxxxxxxxxxxxxxxxxxxxxxxxxxxxxx


                         No user defined ionic velocities

                           -------------------------------
                                   Details of Species
                           -------------------------------

                               Mass of species in AMU
                                    P   30.9737600
                                    In  114.8180000

                          Electric Quadrupole Moment (Barn)
                                    P    1.0000000 No Isotope Defined
                                    In    0.7700000 Isotope115

                          Files used for pseudopotentials:
                                    P 3|1.8|4|4|5|30:31:32
                                    In 3|2.5|2.5|1.5|7|8|9|50:51:42U2.2U2.2

                           -------------------------------
                              k-Points For BZ Sampling
                           -------------------------------
                       MP grid size for SCF calculation is 12 12  8
                            with an offset of   0.050  0.050  0.083
                       Number of kpoints used =          1152

                           -------------------------------
                               Symmetry and Constraints
                           -------------------------------

                      Maximum deviation from symmetry =  0.00000         ANG

                      Number of symmetry operations   =           1
                      Number of ionic constraints     =           3
                      Point group of crystal =     1: C1, 1, 1
                      Space group of crystal =   186: P6_3mc, P 6c -2c

             Set iprint > 1 for details on symmetry rotations/translations

                         Centre of mass is constrained
             Set iprint > 1 for details of linear ionic constraints

                         Number of cell constraints= 0
                         Cell constraints are:  1 2 3 4 5 6

                         External pressure/stress (GPa)
                          0.00000   0.00000   0.00000
                                    0.00000   0.00000
                                              0.00000
 
+---------------- MEMORY AND SCRATCH DISK ESTIMATES PER PROCESS --------------+
|                                                     Memory          Disk    |
| Baseline code, static data and system overhead      899.0 MB         0.0 MB |
| BLAS internal memory storage                          0.0 MB         0.0 MB |
| Model and support data                             1209.1 MB         0.0 MB |
| Electronic energy minimisation requirements          67.6 MB         0.0 MB |
| Force calculation requirements                       26.7 MB         0.0 MB |
|                                               ----------------------------- |
| Approx. total storage required per process         2175.6 MB         0.0 MB |
|                                                                             |
| Requirements will fluctuate during execution and may exceed these estimates |
+-----------------------------------------------------------------------------+
Calculating finite basis set correction with  3 cut-off energies.
Calculating total energy with cut-off of 1190.000 eV.
Calculating approximate eigenstates for fixed initial Hamiltonian
Cut-off for approx. calculation is   89.988 eV
Improving approx. states at cut-off of  595.006 eV
Resetting cut-off to 1190.011 eV
------------------------------------------------------------------------ <-- SCF
SCF loop      Energy           Fermi           Energy gain       Timer   <-- SCF
                               energy          per atom          (sec)   <-- SCF
------------------------------------------------------------------------ <-- SCF
Initial  -3.93998824E+003  0.00000000E+000                        58.16  <-- SCF
      1  -3.92536669E+003  2.65058030E+000  -3.65538751E+000      72.11  <-- SCF
      2  -3.92537595E+003  2.64992409E+000   2.31411357E-003      84.19  <-- SCF
      3  -3.92952512E+003  2.96382700E+000   1.03729303E+000     102.20  <-- SCF
      4  -3.93025763E+003  3.04299486E+000   1.83128662E-001     121.33  <-- SCF
      5  -3.92989297E+003  3.40339562E+000  -9.11650515E-002     139.16  <-- SCF
      6  -3.92985737E+003  3.45513819E+000  -8.90146067E-003     157.00  <-- SCF
      7  -3.92984065E+003  3.50028385E+000  -4.18052485E-003     175.43  <-- SCF
      8  -3.92994556E+003  3.55658988E+000   2.62276819E-002     193.27  <-- SCF
      9  -3.92994943E+003  3.50029346E+000   9.69336973E-004     211.13  <-- SCF
     10  -3.92994931E+003  3.51318540E+000  -3.08603237E-005     229.71  <-- SCF
     11  -3.92994927E+003  3.51457068E+000  -9.96904269E-006     248.22  <-- SCF
     12  -3.92994931E+003  3.51211069E+000   1.04446006E-005     266.18  <-- SCF
     13  -3.92994932E+003  3.51199501E+000   1.21436448E-006     282.58  <-- SCF
     14  -3.92994932E+003  3.51192515E+000   1.48611545E-008     297.06  <-- SCF
     15  -3.92994932E+003  3.51197265E+000  -1.48781691E-009     310.79  <-- SCF
     16  -3.92994932E+003  3.51198950E+000  -2.23124200E-010     324.55  <-- SCF
------------------------------------------------------------------------ <-- SCF
 
Final energy, E             =  -3929.949317602     eV
Final free energy (E-TS)    =  -3929.949317798     eV
(energies not corrected for finite basis set)
 
NB est. 0K energy (E-0.5TS)      =  -3929.949317700     eV
 
Calculating total energy with cut-off of 1195.000 eV.
------------------------------------------------------------------------ <-- SCF
SCF loop      Energy           Fermi           Energy gain       Timer   <-- SCF
                               energy          per atom          (sec)   <-- SCF
------------------------------------------------------------------------ <-- SCF
Initial  -3.92994932E+003  0.00000000E+000                       340.39  <-- SCF
      1  -3.92994935E+003  3.51201437E+000   7.13548175E-006     353.23  <-- SCF
      2  -3.92994935E+003  3.51201437E+000   3.67362201E-011     366.94  <-- SCF
      3  -3.92994935E+003  3.51200667E+000   1.82849702E-009     380.62  <-- SCF
      4  -3.92994935E+003  3.51200094E+000   7.39171418E-010     394.30  <-- SCF
------------------------------------------------------------------------ <-- SCF
 
Final energy, E             =  -3929.949345959     eV
Final free energy (E-TS)    =  -3929.949346155     eV
(energies not corrected for finite basis set)
 
NB est. 0K energy (E-0.5TS)      =  -3929.949346057     eV
 
Calculating total energy with cut-off of 1200.000 eV.
------------------------------------------------------------------------ <-- SCF
SCF loop      Energy           Fermi           Energy gain       Timer   <-- SCF
                               energy          per atom          (sec)   <-- SCF
------------------------------------------------------------------------ <-- SCF
Initial  -3.92994935E+003  0.00000000E+000                       410.14  <-- SCF
      1  -3.92994937E+003  3.51200175E+000   6.64420615E-006     422.97  <-- SCF
      2  -3.92994937E+003  3.51200175E+000   1.81747615E-011     436.58  <-- SCF
      3  -3.92994937E+003  3.51200169E+000   1.79543442E-009     450.17  <-- SCF
      4  -3.92994937E+003  3.51200182E+000   7.34144356E-010     463.78  <-- SCF
------------------------------------------------------------------------ <-- SCF
 
Final energy, E             =  -3929.949372351     eV
Final free energy (E-TS)    =  -3929.949372547     eV
(energies not corrected for finite basis set)
 
NB est. 0K energy (E-0.5TS)      =  -3929.949372449     eV
 
 For future reference: finite basis dEtot/dlog(Ecut) =      -0.006549eV
 Total energy corrected for finite basis set =   -3929.949373 eV
 
+---------------- MEMORY AND SCRATCH DISK ESTIMATES PER PROCESS --------------+
|                                                     Memory          Disk    |
| Model and support data                              726.9 MB         0.0 MB |
| Electronic energy minimisation requirements          67.6 MB         0.0 MB |
| Geometry minimisation requirements                   81.3 MB         0.0 MB |
|                                               ----------------------------- |
| Approx. total storage required per process          875.7 MB         0.0 MB |
|                                                                             |
| Requirements will fluctuate during execution and may exceed these estimates |
+-----------------------------------------------------------------------------+
 

 ************************************** Forces **************************************
 *                                                                                  *
 *                           Cartesian components (eV/A)                            *
 * -------------------------------------------------------------------------------- *
 *                         x                    y                    z              *
 *                                                                                  *
 * P               1      0.00006              0.00003             -0.00334         *
 * P               2     -0.00005             -0.00003             -0.00334         *
 * In              1      0.00006              0.00003              0.00334         *
 * In              2     -0.00007             -0.00003              0.00334         *
 *                                                                                  *
 ************************************************************************************

 ***************** Stress Tensor *****************
 *                                               *
 *          Cartesian components (GPa)           *
 * --------------------------------------------- *
 *             x             y             z     *
 *                                               *
 *  x      0.004335     -0.000454      0.000013  *
 *  y     -0.000454      0.004891      0.000008  *
 *  z      0.000013      0.000008     -0.015135  *
 *                                               *
 *  Pressure:    0.0020                          *
 *                                               *
 *************************************************
 LBFGS: finished iteration     0 with enthalpy= -3.92994937E+003 eV
  
 +-----------+-----------------+-----------------+------------+-----+ <-- LBFGS
 | Parameter |      value      |    tolerance    |    units   | OK? | <-- LBFGS
 +-----------+-----------------+-----------------+------------+-----+ <-- LBFGS
 |  dE/ion   |   0.000000E+000 |   2.000000E-005 |         eV | No  | <-- LBFGS
 |  |F|max   |   3.339453E-003 |   1.000000E-003 |       eV/A | No  | <-- LBFGS
 |  |dR|max  |   0.000000E+000 |   1.000000E-003 |          A | No  | <-- LBFGS
 |   Smax    |   1.513546E-002 |   1.000000E-004 |        GPa | No  | <-- LBFGS
 +-----------+-----------------+-----------------+------------+-----+ <-- LBFGS
  

================================================================================
 Starting LBFGS iteration          1 ...
================================================================================
  
 +------------+-------------+-------------+-----------------+ <-- min LBFGS
 |    Step    |   lambda    |   F.delta'  |    enthalpy     | <-- min LBFGS
 +------------+-------------+-------------+-----------------+ <-- min LBFGS
 |  previous  |    0.000000 |    0.000584 |    -3929.949373 | <-- min LBFGS
 +------------+-------------+-------------+-----------------+ <-- min LBFGS
  

--------------------------------------------------------------------------------
 LBFGS: starting iteration         1 with trial guess (lambda=  1.000000)
--------------------------------------------------------------------------------

                           -------------------------------
                                      Unit Cell
                           -------------------------------
        Real Lattice(A)              Reciprocal Lattice(1/A)
     4.1646100    -0.0000417    -0.0000000        1.508700456  -0.871028559   0.000000009
     2.0822691     3.6066789    -0.0000000        0.000017460   1.742087160   0.000000009
    -0.0000001    -0.0000000     6.8392790        0.000000008   0.000000005   0.918691180

                       Lattice parameters(A)       Cell Angles
                    a =      4.164610          alpha =   90.000001
                    b =      4.164610          beta  =   90.000001
                    c =      6.839279          gamma =   60.001145

                Current cell volume =           102.729374 A**3
                            density =             2.838366 amu/A**3
                                    =             4.713217 g/cm^3

                           -------------------------------
                                     Cell Contents
                           -------------------------------

            xxxxxxxxxxxxxxxxxxxxxxxxxxxxxxxxxxxxxxxxxxxxxxxxxxxxxxxxxxxxxxxxx
            x  Element         Atom        Fractional coordinates of atoms  x
            x                 Number           u          v          w      x
            x---------------------------------------------------------------x
            x  P                 1         0.333329   0.333331  -0.000014   x
            x  P                 2         0.666669   0.666671   0.499986   x
            x  In                1         0.333331   0.333333   0.374444   x
            x  In                2         0.666667   0.666669   0.874444   x
            xxxxxxxxxxxxxxxxxxxxxxxxxxxxxxxxxxxxxxxxxxxxxxxxxxxxxxxxxxxxxxxxx


------------------------------------------------------------------------ <-- SCF
SCF loop      Energy           Fermi           Energy gain       Timer   <-- SCF
                               energy          per atom          (sec)   <-- SCF
------------------------------------------------------------------------ <-- SCF
Initial  -3.92994937E+003  0.00000000E+000                       596.39  <-- SCF
      1  -3.92994937E+003  3.51190875E+000   1.09376295E-007     609.22  <-- SCF
      2  -3.92994937E+003  3.51190875E+000   5.42342617E-010     622.82  <-- SCF
      3  -3.92994937E+003  3.51192909E+000  -7.30084037E-009     636.48  <-- SCF
      4  -3.92994937E+003  3.51194120E+000  -1.50773181E-009     650.09  <-- SCF
------------------------------------------------------------------------ <-- SCF
 
Final energy, E             =  -3929.949372509     eV
Final free energy (E-TS)    =  -3929.949372705     eV
(energies not corrected for finite basis set)
 
NB est. 0K energy (E-0.5TS)      =  -3929.949372607     eV
 

 ************************************** Forces **************************************
 *                                                                                  *
 *                           Cartesian components (eV/A)                            *
 * -------------------------------------------------------------------------------- *
 *                         x                    y                    z              *
 *                                                                                  *
 * P               1      0.00006              0.00003             -0.00300         *
 * P               2     -0.00006             -0.00003             -0.00300         *
 * In              1      0.00006              0.00003              0.00300         *
 * In              2     -0.00006             -0.00003              0.00300         *
 *                                                                                  *
 ************************************************************************************

 ***************** Stress Tensor *****************
 *                                               *
 *          Cartesian components (GPa)           *
 * --------------------------------------------- *
 *             x             y             z     *
 *                                               *
 *  x      0.003557     -0.000407      0.000012  *
 *  y     -0.000407      0.004055      0.000007  *
 *  z      0.000012      0.000007     -0.012828  *
 *                                               *
 *  Pressure:    0.0017                          *
 *                                               *
 *************************************************
  
 +------------+-------------+-------------+-----------------+ <-- min LBFGS
 |    Step    |   lambda    |   F.delta'  |    enthalpy     | <-- min LBFGS
 +------------+-------------+-------------+-----------------+ <-- min LBFGS
 |  previous  |    0.000000 |    0.000584 |    -3929.949373 | <-- min LBFGS
 | trial step |    1.000000 |    0.000504 |    -3929.949373 | <-- min LBFGS
 +------------+-------------+-------------+-----------------+ <-- min LBFGS
  

--------------------------------------------------------------------------------
 LBFGS: improving iteration         1 with line minimization (lambda=  7.268112)
--------------------------------------------------------------------------------

                           -------------------------------
                                      Unit Cell
                           -------------------------------
        Real Lattice(A)              Reciprocal Lattice(1/A)
     4.1645345    -0.0000338    -0.0000003        1.508729438  -0.871049221   0.000000064
     2.0822382     3.6066091    -0.0000003        0.000014157   1.742122762   0.000000067
    -0.0000004    -0.0000003     6.8397116        0.000000060   0.000000035   0.918633080

                       Lattice parameters(A)       Cell Angles
                    a =      4.164535          alpha =   90.000008
                    b =      4.164534          beta  =   90.000007
                    c =      6.839712          gamma =   60.000925

                Current cell volume =           102.731911 A**3
                            density =             2.838295 amu/A**3
                                    =             4.713100 g/cm^3

                           -------------------------------
                                     Cell Contents
                           -------------------------------

            xxxxxxxxxxxxxxxxxxxxxxxxxxxxxxxxxxxxxxxxxxxxxxxxxxxxxxxxxxxxxxxxx
            x  Element         Atom        Fractional coordinates of atoms  x
            x                 Number           u          v          w      x
            x---------------------------------------------------------------x
            x  P                 1         0.333329   0.333331  -0.000018   x
            x  P                 2         0.666669   0.666671   0.499982   x
            x  In                1         0.333331   0.333333   0.374448   x
            x  In                2         0.666667   0.666669   0.874448   x
            xxxxxxxxxxxxxxxxxxxxxxxxxxxxxxxxxxxxxxxxxxxxxxxxxxxxxxxxxxxxxxxxx


------------------------------------------------------------------------ <-- SCF
SCF loop      Energy           Fermi           Energy gain       Timer   <-- SCF
                               energy          per atom          (sec)   <-- SCF
------------------------------------------------------------------------ <-- SCF
Initial  -3.92994937E+003  0.00000000E+000                       782.67  <-- SCF
      1  -3.92994937E+003  3.51137120E+000   2.13142427E-006     796.05  <-- SCF
      2  -3.92994937E+003  3.51137120E+000   2.00177597E-008     812.61  <-- SCF
      3  -3.92994937E+003  3.51149562E+000  -2.75285765E-007     830.98  <-- SCF
      4  -3.92994937E+003  3.51157292E+000  -6.18945370E-008     845.51  <-- SCF
      5  -3.92994937E+003  3.51161764E+000  -8.32887448E-009     859.22  <-- SCF
      6  -3.92994937E+003  3.51161664E+000   7.69140439E-010     872.88  <-- SCF
------------------------------------------------------------------------ <-- SCF
 
Final energy, E             =  -3929.949373098     eV
Final free energy (E-TS)    =  -3929.949373295     eV
(energies not corrected for finite basis set)
 
NB est. 0K energy (E-0.5TS)      =  -3929.949373196     eV
 

 ************************************** Forces **************************************
 *                                                                                  *
 *                           Cartesian components (eV/A)                            *
 * -------------------------------------------------------------------------------- *
 *                         x                    y                    z              *
 *                                                                                  *
 * P               1      0.00008              0.00004             -0.00182         *
 * P               2     -0.00008             -0.00004             -0.00182         *
 * In              1      0.00008              0.00004              0.00182         *
 * In              2     -0.00008             -0.00004              0.00182         *
 *                                                                                  *
 ************************************************************************************

 ***************** Stress Tensor *****************
 *                                               *
 *          Cartesian components (GPa)           *
 * --------------------------------------------- *
 *             x             y             z     *
 *                                               *
 *  x      0.001359     -0.000236      0.000009  *
 *  y     -0.000236      0.001643      0.000005  *
 *  z      0.000009      0.000005     -0.002117  *
 *                                               *
 *  Pressure:   -0.0003                          *
 *                                               *
 *************************************************
  
 +------------+-------------+-------------+-----------------+ <-- min LBFGS
 |    Step    |   lambda    |   F.delta'  |    enthalpy     | <-- min LBFGS
 +------------+-------------+-------------+-----------------+ <-- min LBFGS
 |  previous  |    0.000000 |    0.000584 |    -3929.949373 | <-- min LBFGS
 | trial step |    1.000000 |    0.000504 |    -3929.949373 | <-- min LBFGS
 |  line step |    7.268112 |    0.000174 |    -3929.949373 | <-- min LBFGS
 +------------+-------------+-------------+-----------------+ <-- min LBFGS
  

--------------------------------------------------------------------------------
 LBFGS: improving iteration         1 with quad minimization (lambda= 10.568316)
--------------------------------------------------------------------------------

                           -------------------------------
                                      Unit Cell
                           -------------------------------
        Real Lattice(A)              Reciprocal Lattice(1/A)
     4.1644948    -0.0000297    -0.0000004        1.508744697  -0.871060100   0.000000094
     2.0822219     3.6065724    -0.0000004        0.000012417   1.742141508   0.000000098
    -0.0000006    -0.0000004     6.8399393        0.000000087   0.000000051   0.918602493

                       Lattice parameters(A)       Cell Angles
                    a =      4.164495          alpha =   90.000011
                    b =      4.164494          beta  =   90.000011
                    c =      6.839939          gamma =   60.000809

                Current cell volume =           102.733247 A**3
                            density =             2.838259 amu/A**3
                                    =             4.713039 g/cm^3

                           -------------------------------
                                     Cell Contents
                           -------------------------------

            xxxxxxxxxxxxxxxxxxxxxxxxxxxxxxxxxxxxxxxxxxxxxxxxxxxxxxxxxxxxxxxxx
            x  Element         Atom        Fractional coordinates of atoms  x
            x                 Number           u          v          w      x
            x---------------------------------------------------------------x
            x  P                 1         0.333329   0.333331  -0.000020   x
            x  P                 2         0.666669   0.666671   0.499980   x
            x  In                1         0.333331   0.333333   0.374450   x
            x  In                2         0.666667   0.666669   0.874450   x
            xxxxxxxxxxxxxxxxxxxxxxxxxxxxxxxxxxxxxxxxxxxxxxxxxxxxxxxxxxxxxxxxx


------------------------------------------------------------------------ <-- SCF
SCF loop      Energy           Fermi           Energy gain       Timer   <-- SCF
                               energy          per atom          (sec)   <-- SCF
------------------------------------------------------------------------ <-- SCF
Initial  -3.92994937E+003  0.00000000E+000                      1005.53  <-- SCF
      1  -3.92994937E+003  3.51131661E+000   6.33178335E-007    1018.81  <-- SCF
      2  -3.92994937E+003  3.51131661E+000   4.78189576E-009    1032.80  <-- SCF
      3  -3.92994937E+003  3.51138270E+000  -7.68067355E-008    1046.95  <-- SCF
      4  -3.92994937E+003  3.51142143E+000  -1.53625072E-008    1060.55  <-- SCF
      5  -3.92994937E+003  3.51144035E+000  -1.38398875E-009    1074.09  <-- SCF
      6  -3.92994937E+003  3.51144771E+000   3.90564024E-011    1087.62  <-- SCF
------------------------------------------------------------------------ <-- SCF
 
Final energy, E             =  -3929.949373140     eV
Final free energy (E-TS)    =  -3929.949373337     eV
(energies not corrected for finite basis set)
 
NB est. 0K energy (E-0.5TS)      =  -3929.949373239     eV
 

 ************************************** Forces **************************************
 *                                                                                  *
 *                           Cartesian components (eV/A)                            *
 * -------------------------------------------------------------------------------- *
 *                         x                    y                    z              *
 *                                                                                  *
 * P               1      0.00009              0.00005             -0.00134         *
 * P               2     -0.00009             -0.00005             -0.00134         *
 * In              1      0.00008              0.00005              0.00134         *
 * In              2     -0.00009             -0.00005              0.00134         *
 *                                                                                  *
 ************************************************************************************

 ***************** Stress Tensor *****************
 *                                               *
 *          Cartesian components (GPa)           *
 * --------------------------------------------- *
 *             x             y             z     *
 *                                               *
 *  x     -0.000436     -0.000138      0.000007  *
 *  y     -0.000138     -0.000275      0.000004  *
 *  z      0.000007      0.000004      0.003511  *
 *                                               *
 *  Pressure:   -0.0009                          *
 *                                               *
 *************************************************
  
 +------------+-------------+-------------+-----------------+ <-- min LBFGS
 |    Step    |   lambda    |   F.delta'  |    enthalpy     | <-- min LBFGS
 +------------+-------------+-------------+-----------------+ <-- min LBFGS
 |  previous  |    0.000000 |    0.000584 |    -3929.949373 | <-- min LBFGS
 | trial step |    1.000000 |    0.000504 |    -3929.949373 | <-- min LBFGS
 |  line step |    7.268112 |    0.000174 |    -3929.949373 | <-- min LBFGS
 |  quad step |   10.568316 | -6.258E-008 |    -3929.949373 | <-- min LBFGS
 +------------+-------------+-------------+-----------------+ <-- min LBFGS
  
 LBFGS: finished iteration     1 with enthalpy= -3.92994937E+003 eV
  
 +-----------+-----------------+-----------------+------------+-----+ <-- LBFGS
 | Parameter |      value      |    tolerance    |    units   | OK? | <-- LBFGS
 +-----------+-----------------+-----------------+------------+-----+ <-- LBFGS
 |  dE/ion   |   1.979276E-007 |   2.000000E-005 |         eV | Yes | <-- LBFGS
 |  |F|max   |   1.343351E-003 |   1.000000E-003 |       eV/A | No  | <-- LBFGS
 |  |dR|max  |   4.733540E-005 |   1.000000E-003 |          A | Yes | <-- LBFGS
 |   Smax    |   3.510619E-003 |   1.000000E-004 |        GPa | No  | <-- LBFGS
 +-----------+-----------------+-----------------+------------+-----+ <-- LBFGS
  

================================================================================
 Starting LBFGS iteration          2 ...
================================================================================
  
 +------------+-------------+-------------+-----------------+ <-- min LBFGS
 |    Step    |   lambda    |   F.delta'  |    enthalpy     | <-- min LBFGS
 +------------+-------------+-------------+-----------------+ <-- min LBFGS
 |  previous  |    0.000000 |    0.000340 |    -3929.949373 | <-- min LBFGS
 +------------+-------------+-------------+-----------------+ <-- min LBFGS
  

--------------------------------------------------------------------------------
 LBFGS: starting iteration         2 with trial guess (lambda=  1.000000)
--------------------------------------------------------------------------------

                           -------------------------------
                                      Unit Cell
                           -------------------------------
        Real Lattice(A)              Reciprocal Lattice(1/A)
     4.1644950    -0.0000292    -0.0000004        1.508744730  -0.871060358   0.000000099
     2.0822225     3.6065723    -0.0000004        0.000012212   1.742141668   0.000000103
    -0.0000007    -0.0000004     6.8399291        0.000000091   0.000000054   0.918603859

                       Lattice parameters(A)       Cell Angles
                    a =      4.164495          alpha =   90.000012
                    b =      4.164494          beta  =   90.000011
                    c =      6.839929          gamma =   60.000795

                Current cell volume =           102.733089 A**3
                            density =             2.838263 amu/A**3
                                    =             4.713046 g/cm^3

                           -------------------------------
                                     Cell Contents
                           -------------------------------

            xxxxxxxxxxxxxxxxxxxxxxxxxxxxxxxxxxxxxxxxxxxxxxxxxxxxxxxxxxxxxxxxx
            x  Element         Atom        Fractional coordinates of atoms  x
            x                 Number           u          v          w      x
            x---------------------------------------------------------------x
            x  P                 1         0.333329   0.333331  -0.000020   x
            x  P                 2         0.666669   0.666671   0.499980   x
            x  In                1         0.333331   0.333333   0.374450   x
            x  In                2         0.666667   0.666669   0.874450   x
            xxxxxxxxxxxxxxxxxxxxxxxxxxxxxxxxxxxxxxxxxxxxxxxxxxxxxxxxxxxxxxxxx


------------------------------------------------------------------------ <-- SCF
SCF loop      Energy           Fermi           Energy gain       Timer   <-- SCF
                               energy          per atom          (sec)   <-- SCF
------------------------------------------------------------------------ <-- SCF
Initial  -3.92994937E+003  0.00000000E+000                      1220.24  <-- SCF
      1  -3.92994937E+003  3.51147057E+000   5.25612169E-008    1228.82  <-- SCF
      2  -3.92994937E+003  3.51147057E+000   4.50695416E-010    1242.34  <-- SCF
      3  -3.92994937E+003  3.51146740E+000  -1.92768481E-010    1255.91  <-- SCF
      4  -3.92994937E+003  3.51146534E+000  -5.41375875E-012    1269.47  <-- SCF
------------------------------------------------------------------------ <-- SCF
 
Final energy, E             =  -3929.949373154     eV
Final free energy (E-TS)    =  -3929.949373351     eV
(energies not corrected for finite basis set)
 
NB est. 0K energy (E-0.5TS)      =  -3929.949373253     eV
 

 ************************************** Forces **************************************
 *                                                                                  *
 *                           Cartesian components (eV/A)                            *
 * -------------------------------------------------------------------------------- *
 *                         x                    y                    z              *
 *                                                                                  *
 * P               1      0.00009              0.00005             -0.00126         *
 * P               2     -0.00009             -0.00005             -0.00126         *
 * In              1      0.00008              0.00004              0.00126         *
 * In              2     -0.00008             -0.00005              0.00126         *
 *                                                                                  *
 ************************************************************************************

 ***************** Stress Tensor *****************
 *                                               *
 *          Cartesian components (GPa)           *
 * --------------------------------------------- *
 *             x             y             z     *
 *                                               *
 *  x     -0.000591     -0.000117      0.000006  *
 *  y     -0.000117     -0.000456      0.000004  *
 *  z      0.000006      0.000004      0.003477  *
 *                                               *
 *  Pressure:   -0.0008                          *
 *                                               *
 *************************************************
  
 +------------+-------------+-------------+-----------------+ <-- min LBFGS
 |    Step    |   lambda    |   F.delta'  |    enthalpy     | <-- min LBFGS
 +------------+-------------+-------------+-----------------+ <-- min LBFGS
 |  previous  |    0.000000 |    0.000340 |    -3929.949373 | <-- min LBFGS
 | trial step |    1.000000 |    0.000323 |    -3929.949373 | <-- min LBFGS
 +------------+-------------+-------------+-----------------+ <-- min LBFGS
  

--------------------------------------------------------------------------------
 LBFGS: improving iteration         2 with line minimization (lambda= 20.221801)
--------------------------------------------------------------------------------

                           -------------------------------
                                      Unit Cell
                           -------------------------------
        Real Lattice(A)              Reciprocal Lattice(1/A)
     4.1644987    -0.0000198    -0.0000008        1.508745352  -0.871065309   0.000000194
     2.0822325     3.6065706    -0.0000008        0.000008274   1.742144747   0.000000210
    -0.0000014    -0.0000008     6.8397336        0.000000182   0.000000111   0.918630115

                       Lattice parameters(A)       Cell Angles
                    a =      4.164499          alpha =   90.000023
                    b =      4.164498          beta  =   90.000023
                    c =      6.839734          gamma =   60.000535

                Current cell volume =           102.730063 A**3
                            density =             2.838347 amu/A**3
                                    =             4.713185 g/cm^3

                           -------------------------------
                                     Cell Contents
                           -------------------------------

            xxxxxxxxxxxxxxxxxxxxxxxxxxxxxxxxxxxxxxxxxxxxxxxxxxxxxxxxxxxxxxxxx
            x  Element         Atom        Fractional coordinates of atoms  x
            x                 Number           u          v          w      x
            x---------------------------------------------------------------x
            x  P                 1         0.333330   0.333331  -0.000026   x
            x  P                 2         0.666669   0.666670   0.499974   x
            x  In                1         0.333332   0.333333   0.374456   x
            x  In                2         0.666667   0.666668   0.874456   x
            xxxxxxxxxxxxxxxxxxxxxxxxxxxxxxxxxxxxxxxxxxxxxxxxxxxxxxxxxxxxxxxxx


------------------------------------------------------------------------ <-- SCF
SCF loop      Energy           Fermi           Energy gain       Timer   <-- SCF
                               energy          per atom          (sec)   <-- SCF
------------------------------------------------------------------------ <-- SCF
Initial  -3.92994937E+003  0.00000000E+000                      1402.07  <-- SCF
      1  -3.92994937E+003  3.51190090E+000   1.33730862E-006    1415.42  <-- SCF
      2  -3.92994937E+003  3.51190090E+000   2.27789700E-008    1431.33  <-- SCF
      3  -3.92994937E+003  3.51183664E+000  -1.37137856E-007    1448.40  <-- SCF
      4  -3.92994937E+003  3.51179934E+000  -1.89908856E-008    1462.01  <-- SCF
      5  -3.92994937E+003  3.51177990E+000  -8.17477571E-010    1475.58  <-- SCF
      6  -3.92994937E+003  3.51178031E+000   3.77996370E-010    1489.11  <-- SCF
------------------------------------------------------------------------ <-- SCF
 
Final energy, E             =  -3929.949373367     eV
Final free energy (E-TS)    =  -3929.949373563     eV
(energies not corrected for finite basis set)
 
NB est. 0K energy (E-0.5TS)      =  -3929.949373465     eV
 

 ************************************** Forces **************************************
 *                                                                                  *
 *                           Cartesian components (eV/A)                            *
 * -------------------------------------------------------------------------------- *
 *                         x                    y                    z              *
 *                                                                                  *
 * P               1      0.00009              0.00005             -0.00080         *
 * P               2     -0.00008             -0.00005             -0.00080         *
 * In              1      0.00006              0.00004              0.00080         *
 * In              2     -0.00007             -0.00004              0.00080         *
 *                                                                                  *
 ************************************************************************************

 ***************** Stress Tensor *****************
 *                                               *
 *          Cartesian components (GPa)           *
 * --------------------------------------------- *
 *             x             y             z     *
 *                                               *
 *  x     -0.003022      0.000027      0.000000  *
 *  y      0.000027     -0.003065      0.000001  *
 *  z      0.000000      0.000001      0.000348  *
 *                                               *
 *  Pressure:    0.0019                          *
 *                                               *
 *************************************************
  
 +------------+-------------+-------------+-----------------+ <-- min LBFGS
 |    Step    |   lambda    |   F.delta'  |    enthalpy     | <-- min LBFGS
 +------------+-------------+-------------+-----------------+ <-- min LBFGS
 |  previous  |    0.000000 |    0.000340 |    -3929.949373 | <-- min LBFGS
 | trial step |    1.000000 |    0.000323 |    -3929.949373 | <-- min LBFGS
 |  line step |   20.221801 |    0.000164 |    -3929.949374 | <-- min LBFGS
 +------------+-------------+-------------+-----------------+ <-- min LBFGS
  

--------------------------------------------------------------------------------
 LBFGS: improving iteration         2 with quad minimization (lambda= 39.928964)
--------------------------------------------------------------------------------

                           -------------------------------
                                      Unit Cell
                           -------------------------------
        Real Lattice(A)              Reciprocal Lattice(1/A)
     4.1645025    -0.0000101    -0.0000012        1.508745990  -0.871070384   0.000000292
     2.0822427     3.6065689    -0.0000013        0.000004236   1.742147904   0.000000320
    -0.0000020    -0.0000013     6.8395332        0.000000275   0.000000169   0.918657036

                       Lattice parameters(A)       Cell Angles
                    a =      4.164503          alpha =   90.000035
                    b =      4.164502          beta  =   90.000034
                    c =      6.839533          gamma =   60.000268

                Current cell volume =           102.726961 A**3
                            density =             2.838432 amu/A**3
                                    =             4.713328 g/cm^3

                           -------------------------------
                                     Cell Contents
                           -------------------------------

            xxxxxxxxxxxxxxxxxxxxxxxxxxxxxxxxxxxxxxxxxxxxxxxxxxxxxxxxxxxxxxxxx
            x  Element         Atom        Fractional coordinates of atoms  x
            x                 Number           u          v          w      x
            x---------------------------------------------------------------x
            x  P                 1         0.333330   0.333332  -0.000033   x
            x  P                 2         0.666668   0.666670   0.499967   x
            x  In                1         0.333332   0.333334   0.374463   x
            x  In                2         0.666666   0.666668   0.874463   x
            xxxxxxxxxxxxxxxxxxxxxxxxxxxxxxxxxxxxxxxxxxxxxxxxxxxxxxxxxxxxxxxxx


------------------------------------------------------------------------ <-- SCF
SCF loop      Energy           Fermi           Energy gain       Timer   <-- SCF
                               energy          per atom          (sec)   <-- SCF
------------------------------------------------------------------------ <-- SCF
Initial  -3.92994937E+003  0.00000000E+000                      1621.74  <-- SCF
      1  -3.92994937E+003  3.51222778E+000   1.40541815E-006    1635.02  <-- SCF
      2  -3.92994937E+003  3.51222778E+000   2.42888286E-008    1651.05  <-- SCF
      3  -3.92994937E+003  3.51216161E+000  -1.44910467E-007    1668.22  <-- SCF
      4  -3.92994937E+003  3.51212305E+000  -1.99877906E-008    1681.82  <-- SCF
      5  -3.92994937E+003  3.51210291E+000  -8.46866547E-010    1695.43  <-- SCF
      6  -3.92994937E+003  3.51210342E+000   3.88630539E-010    1709.00  <-- SCF
------------------------------------------------------------------------ <-- SCF
 
Final energy, E             =  -3929.949373456     eV
Final free energy (E-TS)    =  -3929.949373651     eV
(energies not corrected for finite basis set)
 
NB est. 0K energy (E-0.5TS)      =  -3929.949373553     eV
 

 ************************************** Forces **************************************
 *                                                                                  *
 *                           Cartesian components (eV/A)                            *
 * -------------------------------------------------------------------------------- *
 *                         x                    y                    z              *
 *                                                                                  *
 * P               1      0.00009              0.00005             -0.00038         *
 * P               2     -0.00008             -0.00005             -0.00038         *
 * In              1      0.00006              0.00003              0.00038         *
 * In              2     -0.00006             -0.00004              0.00038         *
 *                                                                                  *
 ************************************************************************************

 ***************** Stress Tensor *****************
 *                                               *
 *          Cartesian components (GPa)           *
 * --------------------------------------------- *
 *             x             y             z     *
 *                                               *
 *  x     -0.004844      0.000179     -0.000005  *
 *  y      0.000179     -0.005074     -0.000003  *
 *  z     -0.000005     -0.000003     -0.002285  *
 *                                               *
 *  Pressure:    0.0041                          *
 *                                               *
 *************************************************
  
 +------------+-------------+-------------+-----------------+ <-- min LBFGS
 |    Step    |   lambda    |   F.delta'  |    enthalpy     | <-- min LBFGS
 +------------+-------------+-------------+-----------------+ <-- min LBFGS
 |  previous  |    0.000000 |    0.000340 |    -3929.949373 | <-- min LBFGS
 | trial step |    1.000000 |    0.000323 |    -3929.949373 | <-- min LBFGS
 |  line step |   20.221801 |    0.000164 |    -3929.949374 | <-- min LBFGS
 |  quad step |   39.928964 |    0.000022 |    -3929.949374 | <-- min LBFGS
 +------------+-------------+-------------+-----------------+ <-- min LBFGS
  
 LBFGS: finished iteration     2 with enthalpy= -3.92994937E+003 eV
  
 +-----------+-----------------+-----------------+------------+-----+ <-- LBFGS
 | Parameter |      value      |    tolerance    |    units   | OK? | <-- LBFGS
 +-----------+-----------------+-----------------+------------+-----+ <-- LBFGS
 |  dE/ion   |   7.530364E-008 |   2.000000E-005 |         eV | Yes | <-- LBFGS
 |  |F|max   |   3.910031E-004 |   1.000000E-003 |       eV/A | Yes | <-- LBFGS
 |  |dR|max  |   8.703026E-005 |   1.000000E-003 |          A | Yes | <-- LBFGS
 |   Smax    |   5.074239E-003 |   1.000000E-004 |        GPa | No  | <-- LBFGS
 +-----------+-----------------+-----------------+------------+-----+ <-- LBFGS
  

================================================================================
 Starting LBFGS iteration          3 ...
================================================================================
  
 +------------+-------------+-------------+-----------------+ <-- min LBFGS
 |    Step    |   lambda    |   F.delta'  |    enthalpy     | <-- min LBFGS
 +------------+-------------+-------------+-----------------+ <-- min LBFGS
 |  previous  |    0.000000 |    0.000166 |    -3929.949374 | <-- min LBFGS
 +------------+-------------+-------------+-----------------+ <-- min LBFGS
  

--------------------------------------------------------------------------------
 LBFGS: starting iteration         3 with trial guess (lambda=  1.000000)
--------------------------------------------------------------------------------

                           -------------------------------
                                      Unit Cell
                           -------------------------------
        Real Lattice(A)              Reciprocal Lattice(1/A)
     4.1645164    -0.0000083    -0.0000013        1.508741358  -0.871068598   0.000000312
     2.0822513     3.6065800    -0.0000014        0.000003465   1.742142997   0.000000343
    -0.0000022    -0.0000013     6.8395062        0.000000294   0.000000181   0.918660666

                       Lattice parameters(A)       Cell Angles
                    a =      4.164516          alpha =   90.000038
                    b =      4.164516          beta  =   90.000037
                    c =      6.839506          gamma =   60.000217

                Current cell volume =           102.727185 A**3
                            density =             2.838426 amu/A**3
                                    =             4.713317 g/cm^3

                           -------------------------------
                                     Cell Contents
                           -------------------------------

            xxxxxxxxxxxxxxxxxxxxxxxxxxxxxxxxxxxxxxxxxxxxxxxxxxxxxxxxxxxxxxxxx
            x  Element         Atom        Fractional coordinates of atoms  x
            x                 Number           u          v          w      x
            x---------------------------------------------------------------x
            x  P                 1         0.333330   0.333332  -0.000034   x
            x  P                 2         0.666668   0.666670   0.499966   x
            x  In                1         0.333332   0.333334   0.374464   x
            x  In                2         0.666666   0.666668   0.874464   x
            xxxxxxxxxxxxxxxxxxxxxxxxxxxxxxxxxxxxxxxxxxxxxxxxxxxxxxxxxxxxxxxxx


------------------------------------------------------------------------ <-- SCF
SCF loop      Energy           Fermi           Energy gain       Timer   <-- SCF
                               energy          per atom          (sec)   <-- SCF
------------------------------------------------------------------------ <-- SCF
Initial  -3.92994937E+003  0.00000000E+000                      1841.69  <-- SCF
      1  -3.92994937E+003  3.51204690E+000   1.30075608E-007    1853.38  <-- SCF
      2  -3.92994937E+003  3.51204690E+000   1.40061673E-009    1866.96  <-- SCF
      3  -3.92994937E+003  3.51205791E+000  -4.16434057E-009    1880.55  <-- SCF
      4  -3.92994937E+003  3.51206567E+000  -8.07423447E-010    1894.13  <-- SCF
------------------------------------------------------------------------ <-- SCF
 
Final energy, E             =  -3929.949373471     eV
Final free energy (E-TS)    =  -3929.949373666     eV
(energies not corrected for finite basis set)
 
NB est. 0K energy (E-0.5TS)      =  -3929.949373569     eV
 

 ************************************** Forces **************************************
 *                                                                                  *
 *                           Cartesian components (eV/A)                            *
 * -------------------------------------------------------------------------------- *
 *                         x                    y                    z              *
 *                                                                                  *
 * P               1      0.00009              0.00005             -0.00027         *
 * P               2     -0.00008             -0.00005             -0.00027         *
 * In              1      0.00005              0.00003              0.00027         *
 * In              2     -0.00005             -0.00003              0.00027         *
 *                                                                                  *
 ************************************************************************************

 ***************** Stress Tensor *****************
 *                                               *
 *          Cartesian components (GPa)           *
 * --------------------------------------------- *
 *             x             y             z     *
 *                                               *
 *  x     -0.004397      0.000209     -0.000006  *
 *  y      0.000209     -0.004662     -0.000003  *
 *  z     -0.000006     -0.000003     -0.002137  *
 *                                               *
 *  Pressure:    0.0037                          *
 *                                               *
 *************************************************
  
 +------------+-------------+-------------+-----------------+ <-- min LBFGS
 |    Step    |   lambda    |   F.delta'  |    enthalpy     | <-- min LBFGS
 +------------+-------------+-------------+-----------------+ <-- min LBFGS
 |  previous  |    0.000000 |    0.000166 |    -3929.949374 | <-- min LBFGS
 | trial step |    1.000000 |    0.000133 |    -3929.949374 | <-- min LBFGS
 +------------+-------------+-------------+-----------------+ <-- min LBFGS
  

--------------------------------------------------------------------------------
 LBFGS: improving iteration         3 with line minimization (lambda=  4.974389)
--------------------------------------------------------------------------------

                           -------------------------------
                                      Unit Cell
                           -------------------------------
        Real Lattice(A)              Reciprocal Lattice(1/A)
     4.1645714    -0.0000010    -0.0000017        1.508722948  -0.871061501   0.000000391
     2.0822851     3.6066240    -0.0000017        0.000000401   1.742123495   0.000000435
    -0.0000028    -0.0000017     6.8393987        0.000000370   0.000000229   0.918675097

                       Lattice parameters(A)       Cell Angles
                    a =      4.164571          alpha =   90.000048
                    b =      4.164571          beta  =   90.000046
                    c =      6.839399          gamma =   60.000016

                Current cell volume =           102.728080 A**3
                            density =             2.838401 amu/A**3
                                    =             4.713276 g/cm^3

                           -------------------------------
                                     Cell Contents
                           -------------------------------

            xxxxxxxxxxxxxxxxxxxxxxxxxxxxxxxxxxxxxxxxxxxxxxxxxxxxxxxxxxxxxxxxx
            x  Element         Atom        Fractional coordinates of atoms  x
            x                 Number           u          v          w      x
            x---------------------------------------------------------------x
            x  P                 1         0.333331   0.333332  -0.000041   x
            x  P                 2         0.666668   0.666669   0.499959   x
            x  In                1         0.333332   0.333334   0.374471   x
            x  In                2         0.666666   0.666667   0.874471   x
            xxxxxxxxxxxxxxxxxxxxxxxxxxxxxxxxxxxxxxxxxxxxxxxxxxxxxxxxxxxxxxxxx


------------------------------------------------------------------------ <-- SCF
SCF loop      Energy           Fermi           Energy gain       Timer   <-- SCF
                               energy          per atom          (sec)   <-- SCF
------------------------------------------------------------------------ <-- SCF
Initial  -3.92994937E+003  0.00000000E+000                      2026.83  <-- SCF
      1  -3.92994937E+003  3.51184990E+000   1.27686420E-006    2040.21  <-- SCF
      2  -3.92994937E+003  3.51184989E+000   1.77211659E-008    2055.85  <-- SCF
      3  -3.92994937E+003  3.51189523E+000  -7.24415058E-008    2069.78  <-- SCF
      4  -3.92994937E+003  3.51192362E+000  -1.50918193E-008    2083.51  <-- SCF
      5  -3.92994937E+003  3.51193306E+000   6.58158385E-010    2097.11  <-- SCF
      6  -3.92994937E+003  3.51193694E+000   4.09898877E-010    2110.70  <-- SCF
------------------------------------------------------------------------ <-- SCF
 
Final energy, E             =  -3929.949373482     eV
Final free energy (E-TS)    =  -3929.949373677     eV
(energies not corrected for finite basis set)
 
NB est. 0K energy (E-0.5TS)      =  -3929.949373579     eV
 

 ************************************** Forces **************************************
 *                                                                                  *
 *                           Cartesian components (eV/A)                            *
 * -------------------------------------------------------------------------------- *
 *                         x                    y                    z              *
 *                                                                                  *
 * P               1      0.00007              0.00004              0.00004         *
 * P               2     -0.00007             -0.00004              0.00004         *
 * In              1      0.00004              0.00002             -0.00004         *
 * In              2     -0.00004             -0.00003             -0.00004         *
 *                                                                                  *
 ************************************************************************************

 ***************** Stress Tensor *****************
 *                                               *
 *          Cartesian components (GPa)           *
 * --------------------------------------------- *
 *             x             y             z     *
 *                                               *
 *  x     -0.004148      0.000274     -0.000010  *
 *  y      0.000274     -0.004493     -0.000005  *
 *  z     -0.000010     -0.000005     -0.002323  *
 *                                               *
 *  Pressure:    0.0037                          *
 *                                               *
 *************************************************
  
 +------------+-------------+-------------+-----------------+ <-- min LBFGS
 |    Step    |   lambda    |   F.delta'  |    enthalpy     | <-- min LBFGS
 +------------+-------------+-------------+-----------------+ <-- min LBFGS
 |  previous  |    0.000000 |    0.000166 |    -3929.949374 | <-- min LBFGS
 | trial step |    1.000000 |    0.000133 |    -3929.949374 | <-- min LBFGS
 |  line step |    4.974389 |    0.000051 |    -3929.949374 | <-- min LBFGS
 +------------+-------------+-------------+-----------------+ <-- min LBFGS
  

--------------------------------------------------------------------------------
 LBFGS: improving iteration         3 with quad minimization (lambda=  7.449025)
--------------------------------------------------------------------------------

                           -------------------------------
                                      Unit Cell
                           -------------------------------
        Real Lattice(A)              Reciprocal Lattice(1/A)
     4.1646057     0.0000036    -0.0000019        1.508711485  -0.871057081   0.000000440
     2.0823062     3.6066515    -0.0000020       -0.000001507   1.742111352   0.000000492
    -0.0000031    -0.0000019     6.8393319        0.000000418   0.000000260   0.918684082

                       Lattice parameters(A)       Cell Angles
                    a =      4.164606          alpha =   90.000054
                    b =      4.164605          beta  =   90.000052
                    c =      6.839332          gamma =   59.999891

                Current cell volume =           102.728636 A**3
                            density =             2.838386 amu/A**3
                                    =             4.713251 g/cm^3

                           -------------------------------
                                     Cell Contents
                           -------------------------------

            xxxxxxxxxxxxxxxxxxxxxxxxxxxxxxxxxxxxxxxxxxxxxxxxxxxxxxxxxxxxxxxxx
            x  Element         Atom        Fractional coordinates of atoms  x
            x                 Number           u          v          w      x
            x---------------------------------------------------------------x
            x  P                 1         0.333331   0.333333  -0.000045   x
            x  P                 2         0.666667   0.666669   0.499955   x
            x  In                1         0.333333   0.333334   0.374475   x
            x  In                2         0.666665   0.666667   0.874475   x
            xxxxxxxxxxxxxxxxxxxxxxxxxxxxxxxxxxxxxxxxxxxxxxxxxxxxxxxxxxxxxxxxx


------------------------------------------------------------------------ <-- SCF
SCF loop      Energy           Fermi           Energy gain       Timer   <-- SCF
                               energy          per atom          (sec)   <-- SCF
------------------------------------------------------------------------ <-- SCF
Initial  -3.92994937E+003  0.00000000E+000                      2243.42  <-- SCF
      1  -3.92994937E+003  3.51180293E+000   5.30598435E-007    2256.77  <-- SCF
      2  -3.92994937E+003  3.51180293E+000   5.53402153E-009    2270.40  <-- SCF
      3  -3.92994937E+003  3.51183117E+000  -2.81484519E-008    2283.98  <-- SCF
      4  -3.92994937E+003  3.51184868E+000  -4.93502780E-009    2297.68  <-- SCF
      5  -3.92994937E+003  3.51185412E+000   7.22350096E-010    2311.28  <-- SCF
------------------------------------------------------------------------ <-- SCF
 
Final energy, E             =  -3929.949373446     eV
Final free energy (E-TS)    =  -3929.949373641     eV
(energies not corrected for finite basis set)
 
NB est. 0K energy (E-0.5TS)      =  -3929.949373544     eV
 

 ************************************** Forces **************************************
 *                                                                                  *
 *                           Cartesian components (eV/A)                            *
 * -------------------------------------------------------------------------------- *
 *                         x                    y                    z              *
 *                                                                                  *
 * P               1      0.00006              0.00004              0.00053         *
 * P               2     -0.00006             -0.00003              0.00053         *
 * In              1      0.00001              0.00001             -0.00053         *
 * In              2     -0.00001             -0.00001             -0.00053         *
 *                                                                                  *
 ************************************************************************************

 ***************** Stress Tensor *****************
 *                                               *
 *          Cartesian components (GPa)           *
 * --------------------------------------------- *
 *             x             y             z     *
 *                                               *
 *  x     -0.002576      0.000334     -0.000013  *
 *  y      0.000334     -0.002992     -0.000007  *
 *  z     -0.000013     -0.000007     -0.001266  *
 *                                               *
 *  Pressure:    0.0023                          *
 *                                               *
 *************************************************
  
 +------------+-------------+-------------+-----------------+ <-- min LBFGS
 |    Step    |   lambda    |   F.delta'  |    enthalpy     | <-- min LBFGS
 +------------+-------------+-------------+-----------------+ <-- min LBFGS
[...]
 +------------+-------------+-------------+-----------------+ <-- min LBFGS
  
 LBFGS: finished iteration    13 with enthalpy= -3.92994937E+003 eV
  
 +-----------+-----------------+-----------------+------------+-----+ <-- LBFGS
 | Parameter |      value      |    tolerance    |    units   | OK? | <-- LBFGS
 +-----------+-----------------+-----------------+------------+-----+ <-- LBFGS
 |  dE/ion   |   1.166278E-009 |   2.000000E-005 |         eV | Yes | <-- LBFGS
 |  |F|max   |   9.991435E-005 |   1.000000E-003 |       eV/A | Yes | <-- LBFGS
 |  |dR|max  |   2.965576E-007 |   1.000000E-003 |          A | Yes | <-- LBFGS
 |   Smax    |   3.697222E-004 |   1.000000E-004 |        GPa | No  | <-- LBFGS
 +-----------+-----------------+-----------------+------------+-----+ <-- LBFGS
  

================================================================================
 Starting LBFGS iteration         14 ...
================================================================================
  
 +------------+-------------+-------------+-----------------+ <-- min LBFGS
 |    Step    |   lambda    |   F.delta'  |    enthalpy     | <-- min LBFGS
 +------------+-------------+-------------+-----------------+ <-- min LBFGS
 |  previous  |    0.000000 |    0.000013 |    -3929.949374 | <-- min LBFGS
 +------------+-------------+-------------+-----------------+ <-- min LBFGS
  

--------------------------------------------------------------------------------
 LBFGS: starting iteration        14 with trial guess (lambda=  1.000000)
--------------------------------------------------------------------------------

                           -------------------------------
                                      Unit Cell
                           -------------------------------
        Real Lattice(A)              Reciprocal Lattice(1/A)
     4.1646464    -0.0000107    -0.0000011        1.508693745  -0.871039708   0.000000244
     2.0823142     3.6066949    -0.0000012        0.000004461   1.742086943   0.000000303
    -0.0000018    -0.0000012     6.8394094        0.000000241   0.000000160   0.918673661

                       Lattice parameters(A)       Cell Angles
                    a =      4.164646          alpha =   90.000032
                    b =      4.164646          beta  =   90.000030
                    c =      6.839409          gamma =   60.000290

                Current cell volume =           102.732246 A**3
                            density =             2.838286 amu/A**3
                                    =             4.713085 g/cm^3

                           -------------------------------
                                     Cell Contents
                           -------------------------------

            xxxxxxxxxxxxxxxxxxxxxxxxxxxxxxxxxxxxxxxxxxxxxxxxxxxxxxxxxxxxxxxxx
            x  Element         Atom        Fractional coordinates of atoms  x
            x                 Number           u          v          w      x
            x---------------------------------------------------------------x
            x  P                 1         0.333331   0.333333  -0.000041   x
            x  P                 2         0.666667   0.666669   0.499959   x
            x  In                1         0.333333   0.333334   0.374471   x
            x  In                2         0.666666   0.666667   0.874471   x
            xxxxxxxxxxxxxxxxxxxxxxxxxxxxxxxxxxxxxxxxxxxxxxxxxxxxxxxxxxxxxxxxx


------------------------------------------------------------------------ <-- SCF
SCF loop      Energy           Fermi           Energy gain       Timer   <-- SCF
                               energy          per atom          (sec)   <-- SCF
------------------------------------------------------------------------ <-- SCF
Initial  -3.92994937E+003  0.00000000E+000                      6906.41  <-- SCF
      1  -3.92994937E+003  3.51149946E+000   5.78042489E-008    6915.06  <-- SCF
      2  -3.92994937E+003  3.51149946E+000   4.48761930E-010    6928.74  <-- SCF
      3  -3.92994937E+003  3.51148319E+000  -3.81263960E-009    6942.41  <-- SCF
      4  -3.92994937E+003  3.51147270E+000  -2.93696412E-010    6956.10  <-- SCF
------------------------------------------------------------------------ <-- SCF
 
Final energy, E             =  -3929.949373477     eV
Final free energy (E-TS)    =  -3929.949373672     eV
(energies not corrected for finite basis set)
 
NB est. 0K energy (E-0.5TS)      =  -3929.949373574     eV
 

 ************************************** Forces **************************************
 *                                                                                  *
 *                           Cartesian components (eV/A)                            *
 * -------------------------------------------------------------------------------- *
 *                         x                    y                    z              *
 *                                                                                  *
 * P               1      0.00002              0.00001             -0.00005         *
 * P               2     -0.00002             -0.00001             -0.00005         *
 * In              1     -0.00001             -0.00000              0.00005         *
 * In              2      0.00001              0.00000              0.00005         *
 *                                                                                  *
 ************************************************************************************

 ***************** Stress Tensor *****************
 *                                               *
 *          Cartesian components (GPa)           *
 * --------------------------------------------- *
 *             x             y             z     *
 *                                               *
 *  x     -0.000263      0.000010      0.000001  *
 *  y      0.000010     -0.000275      0.000000  *
 *  z      0.000001      0.000000     -0.000287  *
 *                                               *
 *  Pressure:    0.0003                          *
 *                                               *
 *************************************************
  
 +------------+-------------+-------------+-----------------+ <-- min LBFGS
 |    Step    |   lambda    |   F.delta'  |    enthalpy     | <-- min LBFGS
 +------------+-------------+-------------+-----------------+ <-- min LBFGS
 |  previous  |    0.000000 |    0.000013 |    -3929.949374 | <-- min LBFGS
 | trial step |    1.000000 | -9.906E-006 |    -3929.949374 | <-- min LBFGS
 +------------+-------------+-------------+-----------------+ <-- min LBFGS
  

--------------------------------------------------------------------------------
 LBFGS: improving iteration        14 with line minimization (lambda=  0.573742)
--------------------------------------------------------------------------------

                           -------------------------------
                                      Unit Cell
                           -------------------------------
        Real Lattice(A)              Reciprocal Lattice(1/A)
     4.1646498    -0.0000113    -0.0000011        1.508692397  -0.871038605   0.000000243
     2.0823153     3.6066981    -0.0000012        0.000004731   1.742085204   0.000000301
    -0.0000018    -0.0000012     6.8394163        0.000000239   0.000000159   0.918672735

                       Lattice parameters(A)       Cell Angles
                    a =      4.164650          alpha =   90.000032
                    b =      4.164650          beta  =   90.000030
                    c =      6.839416          gamma =   60.000308

                Current cell volume =           102.732535 A**3
                            density =             2.838278 amu/A**3
                                    =             4.713072 g/cm^3

                           -------------------------------
                                     Cell Contents
                           -------------------------------

            xxxxxxxxxxxxxxxxxxxxxxxxxxxxxxxxxxxxxxxxxxxxxxxxxxxxxxxxxxxxxxxxx
            x  Element         Atom        Fractional coordinates of atoms  x
            x                 Number           u          v          w      x
            x---------------------------------------------------------------x
            x  P                 1         0.333331   0.333333  -0.000041   x
            x  P                 2         0.666667   0.666669   0.499959   x
            x  In                1         0.333333   0.333334   0.374471   x
            x  In                2         0.666666   0.666667   0.874471   x
            xxxxxxxxxxxxxxxxxxxxxxxxxxxxxxxxxxxxxxxxxxxxxxxxxxxxxxxxxxxxxxxxx


------------------------------------------------------------------------ <-- SCF
SCF loop      Energy           Fermi           Energy gain       Timer   <-- SCF
                               energy          per atom          (sec)   <-- SCF
------------------------------------------------------------------------ <-- SCF
Initial  -3.92994937E+003  0.00000000E+000                      7089.26  <-- SCF
      1  -3.92994937E+003  3.51141413E+000   5.34359257E-008    7098.14  <-- SCF
      2  -3.92994937E+003  3.51141413E+000   9.24205958E-011    7111.86  <-- SCF
      3  -3.92994937E+003  3.51142371E+000  -7.38591372E-010    7125.57  <-- SCF
      4  -3.92994937E+003  3.51142986E+000  -6.12914830E-011    7139.27  <-- SCF
------------------------------------------------------------------------ <-- SCF
 
Final energy, E             =  -3929.949373474     eV
Final free energy (E-TS)    =  -3929.949373669     eV
(energies not corrected for finite basis set)
 
NB est. 0K energy (E-0.5TS)      =  -3929.949373572     eV
 

 ************************************** Forces **************************************
 *                                                                                  *
 *                           Cartesian components (eV/A)                            *
 * -------------------------------------------------------------------------------- *
 *                         x                    y                    z              *
 *                                                                                  *
 * P               1      0.00001              0.00001             -0.00014         *
 * P               2     -0.00001             -0.00001             -0.00014         *
 * In              1      0.00001              0.00001              0.00014         *
 * In              2     -0.00001             -0.00001              0.00014         *
 *                                                                                  *
 ************************************************************************************

 ***************** Stress Tensor *****************
 *                                               *
 *          Cartesian components (GPa)           *
 * --------------------------------------------- *
 *             x             y             z     *
 *                                               *
 *  x     -0.000063     -0.000066      0.000002  *
 *  y     -0.000066      0.000020      0.000001  *
 *  z      0.000002      0.000001      0.000024  *
 *                                               *
 *  Pressure:    0.0000                          *
 *                                               *
 *************************************************
  
 +------------+-------------+-------------+-----------------+ <-- min LBFGS
 |    Step    |   lambda    |   F.delta'  |    enthalpy     | <-- min LBFGS
 +------------+-------------+-------------+-----------------+ <-- min LBFGS
 |  previous  |    0.000000 |    0.000013 |    -3929.949374 | <-- min LBFGS
 | trial step |    1.000000 | -9.906E-006 |    -3929.949374 | <-- min LBFGS
 |  line step |    0.573742 |  3.628E-006 |    -3929.949374 | <-- min LBFGS
 +------------+-------------+-------------+-----------------+ <-- min LBFGS
  
 LBFGS: finished iteration    14 with enthalpy= -3.92994937E+003 eV
  
 +-----------+-----------------+-----------------+------------+-----+ <-- LBFGS
 | Parameter |      value      |    tolerance    |    units   | OK? | <-- LBFGS
 +-----------+-----------------+-----------------+------------+-----+ <-- LBFGS
 |  dE/ion   |   1.110207E-009 |   2.000000E-005 |         eV | Yes | <-- LBFGS
 |  |F|max   |   1.404787E-004 |   1.000000E-003 |       eV/A | Yes | <-- LBFGS
 |  |dR|max  |   3.739396E-007 |   1.000000E-003 |          A | Yes | <-- LBFGS
 |   Smax    |   6.648075E-005 |   1.000000E-004 |        GPa | Yes | <-- LBFGS
 +-----------+-----------------+-----------------+------------+-----+ <-- LBFGS
  
 LBFGS: Geometry optimization completed successfully.

================================================================================
 LBFGS: Final Configuration:
================================================================================

                           -------------------------------
                                      Unit Cell
                           -------------------------------
        Real Lattice(A)              Reciprocal Lattice(1/A)
     4.1646498    -0.0000113    -0.0000011        1.508692397  -0.871038605   0.000000243
     2.0823153     3.6066981    -0.0000012        0.000004731   1.742085204   0.000000301
    -0.0000018    -0.0000012     6.8394163        0.000000239   0.000000159   0.918672735

                       Lattice parameters(A)       Cell Angles
                    a =      4.164650          alpha =   90.000032
                    b =      4.164650          beta  =   90.000030
                    c =      6.839416          gamma =   60.000308

                Current cell volume =           102.732535 A**3
                            density =             2.838278 amu/A**3
                                    =             4.713072 g/cm^3

                           -------------------------------
                                     Cell Contents
                           -------------------------------

            xxxxxxxxxxxxxxxxxxxxxxxxxxxxxxxxxxxxxxxxxxxxxxxxxxxxxxxxxxxxxxxxx
            x  Element         Atom        Fractional coordinates of atoms  x
            x                 Number           u          v          w      x
            x---------------------------------------------------------------x
            x  P                 1         0.333331   0.333333  -0.000041   x
            x  P                 2         0.666667   0.666669   0.499959   x
            x  In                1         0.333333   0.333334   0.374471   x
            x  In                2         0.666666   0.666667   0.874471   x
            xxxxxxxxxxxxxxxxxxxxxxxxxxxxxxxxxxxxxxxxxxxxxxxxxxxxxxxxxxxxxxxxx


 LBFGS: Final Enthalpy     = -3.92994937E+003 eV
 LBFGS: Final <frequency>  =    1302.56562 cm-1
 LBFGS: Final bulk modulus =      39.67659 GPa

 ************************************** Forces **************************************
 *                                                                                  *
 *                           Cartesian components (eV/A)                            *
 * -------------------------------------------------------------------------------- *
 *                         x                    y                    z              *
 *                                                                                  *
 * P               1      0.00001              0.00001             -0.00014         *
 * P               2     -0.00001             -0.00001             -0.00014         *
 * In              1      0.00001              0.00001              0.00014         *
 * In              2     -0.00001             -0.00001              0.00014         *
 *                                                                                  *
 ************************************************************************************

 ***************** Stress Tensor *****************
 *                                               *
 *          Cartesian components (GPa)           *
 * --------------------------------------------- *
 *             x             y             z     *
 *                                               *
 *  x     -0.000063     -0.000066      0.000002  *
 *  y     -0.000066      0.000020      0.000001  *
 *  z      0.000002      0.000001      0.000024  *
 *                                               *
 *  Pressure:    0.0000                          *
 *                                               *
 *************************************************

 Pseudo atomic calculation performed for P 3s2 3p3

 Converged in 23 iterations to a total energy of -208.0300 eV

 Pseudo atomic calculation performed for In 4d10 5s2 5p1

 Converged in 42 iterations to a total energy of -1747.4733 eV
Charge spilling parameter for spin component 1 = 0.15%

            Orbital Populations       
     Ion    Atom   Orbital             Charge
  -------------------------------------------
      P     1      S                    1.731
      P     1      Px                   1.320
      P     1      Py                   1.320
      P     1      Pz                   1.315
      P     2      S                    1.731
      P     2      Px                   1.320
      P     2      Py                   1.320
      P     2      Pz                   1.315
     In     1      Dzz                  1.997
     In     1      Dzy                  1.998
     In     1      Dzx                  1.998
     In     1      Dxx-yy               1.998
     In     1      Dxy                  1.998
     In     1      S                    1.434
     In     1      Px                   0.478
     In     1      Py                   0.478
     In     1      Pz                   0.474
     In     1      S                   -0.539
     In     2      Dzz                  1.997
     In     2      Dzy                  1.998
     In     2      Dzx                  1.998
     In     2      Dxx-yy               1.998
     In     2      Dxy                  1.998
     In     2      S                    1.434
     In     2      Px                   0.478
     In     2      Py                   0.478
     In     2      Pz                   0.474
     In     2      S                   -0.539
  -------------------------------------------
                           Total:      36.000
  -------------------------------------------

     Atomic Populations (Mulliken)
     -----------------------------
Species          Ion     s       p       d       f      Total   Charge (e)
==========================================================================
  P               1     1.731   3.956   0.000   0.000   5.686    -0.686
  P               2     1.731   3.956   0.000   0.000   5.686    -0.686
  In              1     0.895   1.430   9.989   0.000  12.314     0.686
  In              2     0.895   1.430   9.989   0.000  12.314     0.686
==========================================================================

                 Bond                   Population      Length (A)
======================================================================
               P 2 -- In 1                   1.94        2.55305
               P 1 -- In 2                   1.94        2.55305
               P 1 -- In 1                   0.31        2.56145
               P 2 -- In 2                   0.31        2.56145
======================================================================

 
 A BibTeX formatted list of references used in this run has been written to 
 WZ_Bulk.bib
 
Initialisation time =     20.50 s
Calculation time    =   7252.21 s
Finalisation time   =      0.64 s
Total time          =   7273.35 s
Peak Memory Use     = 3004016 kB
 
Overall parallel efficiency rating: Excellent (98%)
 
Data was distributed by:-
k-point (384-way); efficiency rating: Excellent (98%)
