 +-------------------------------------------------+
 |                                                 |
 |      CCC   AA    SSS  TTTTT  EEEEE  PPPP        |
 |     C     A  A  S       T    E      P   P       |
 |     C     AAAA   SS     T    EEE    PPPP        |
 |     C     A  A     S    T    E      P           |
 |      CCC  A  A  SSS     T    EEEEE  P           |
 |                                                 |
 +-------------------------------------------------+
 |                                                 |
 | Welcome to Academic Release CASTEP version 24.1 |
 | Ab Initio Total Energy Program                  |
 |                                                 |
 | Authors:                                        |
 | M. Segall, M. Probert, C. Pickard, P. Hasnip,   |
 | S. Clark, K. Refson, J. R. Yates,               |
 | A. Bartok-Partay, M. Payne                      |
 |                                                 |
 | Contributors:                                   |
 | P. Lindan, P. Haynes, J. White, V. Milman,      |
 | N. Govind, M. Gibson, P. Tulip, V. Cocula,      |
 | B. Montanari, D. Quigley, M. Glover,            |
 | L. Bernasconi, A. Perlov, M. Plummer,           |
 | E. McNellis, J. Meyer, J. Gale, D. Jochym       |
 | J. Aarons, B. Walker, R. Gillen, D. Jones       |
 | T. Green, I. J. Bush, C. J. Armstrong,          |
 | E. J. Higgins, E. L. Brown, M. S. McFly,        |
 | J. Wilkins, B-C. Shih, P. J. P. Byrne,          |
 | R. J. Maurer, J. C. Womack, J. Dziedzic,        |
 | L. LeBlanc, T. K. Stenczel, J. Kermode,         |
 | S. Sturniolo, B. Shi, B. Durham, M. Evans,      |
 | M. J. Smith, A. Tamerus, Z. Hawkhead,           |
 | V. Ravindran, T. Hollins, S. A. Joyce,          |
 | R. T. Strong, A. M. Reilly, S. J. Donaldson     |
 |                                                 |
 | Copyright (c) 2000 - 2023                       |
 |                                                 |
 |     Distributed under license from Cambridge    |
 |     Enterprise for academic use only.           |
 |                                                 |
 | Please cite                                     |
 |                                                 |
 |     "First principles methods using CASTEP"     |
 |                                                 |
 |         Zeitschrift fuer Kristallographie       |
 |           220(5-6) pp. 567-570 (2005)           |
 |                                                 |
 | S. J. Clark, M. D. Segall, C. J. Pickard,       |
 | P. J. Hasnip, M. J. Probert, K. Refson,         |
 | M. C. Payne                                     |
 |                                                 |
 |       in all publications arising from          |
 |              your use of CASTEP                 |
 |                                                 |
 +-------------------------------------------------+
 |                                                 |
 |              http://www.castep.org              |
 |                                                 |
 +-------------------------------------------------+



 Compiled for  GNU 11.2.0 on 04-04-2024 18:39:17
 from code version 6355fd106 Castep241_branch Thu Mar 7 17:56:19 2024 +0000
 Compiler: GNU Fortran 11.2.0; Optimisation: FAST
 Comms   : MPI VERSION : CRAY MPICH version 8.1.23.14 (ANL base 3.4a2)
 MATHLIBS: default (LAPACK version 3.10.1)
 FFT Lib : fftw3 version commercial-fftw-3.3.10-sse2-avx-avx2-avx2_128
 Fundamental constants values: CODATA 2018

 Run started: Thu, 20 Mar 2025 18:41:49 +0000

 Atomic calculation performed for P: 1s2 2s2 2p6 3s2 3p3

 Converged in 47 iterations to an ae energy of -9309.074 eV

   ============================================================                
   | Pseudopotential Report - Date of generation 20-03-2025   |                
   ------------------------------------------------------------                
   | Element: P Ionic charge:  5.00 Level of theory: RSCAN    |                
   | Atomic Solver: Koelling-Harmon                           |                
   |                                                          |                
   |               Reference Electronic Structure             |                
   |         Orbital         Occupation         Energy        |                
   |            3s              2.000           -0.535        |                
   |            3p              3.000           -0.209        |                
   |                                                          |                
   |                 Pseudopotential Definition               |                
   |        Beta     l      e      Rc     scheme   norm       |                
   |          1      0   -0.535   1.807     qc      0         |                
   |          2      0    0.250   1.807     qc      0         |                
   |          3      1   -0.209   1.807     qc      0         |                
   |          4      1    0.250   1.807     qc      0         |                
   |          5      2    0.000   1.807     qc      0         |                
   |          6      2    0.250   1.807     qc      0         |                
   |         loc     3    0.000   1.807     pn      0         |                
   |                                                          |                
   | Augmentation charge Rinner = 1.263                       |                
   | Partial core correction Rc = 1.263                       |                
   ------------------------------------------------------------                
   | "3|1.8|4|4|5|30:31:32"                                   |                
   ------------------------------------------------------------                
   |      Author: Chris J. Pickard, Cambridge University      |                
   ============================================================                
 Warning: otfg_output_psp cannot write out meta-GGA pseudopotentials presently.

 Atomic calculation performed for In:
 1s2 2s2 2p6 3s2 3p6 3d10 4s2 4p6 4d10 5s2 5p1

 Converged in 84 iterations to an ae energy of -160093.328 eV

   ============================================================                
   | Pseudopotential Report - Date of generation 20-03-2025   |                
   ------------------------------------------------------------                
   | Element: In Ionic charge: 13.00 Level of theory: RSCAN   |                
   | Atomic Solver: Koelling-Harmon                           |                
   |                                                          |                
   |               Reference Electronic Structure             |                
   |         Orbital         Occupation         Energy        |                
   |            4d             10.000           -0.711        |                
   |            5s              2.000           -0.313        |                
   |            5p              1.000           -0.095        |                
   |                                                          |                
   |                 Pseudopotential Definition               |                
   |        Beta     l      e      Rc     scheme   norm       |                
   |          1      0   -0.313   2.501     qc      0         |                
   |          2      0    0.250   2.501     qc      0         |                
   |          3      1   -0.095   2.501     qc      0         |                
   |          4      1    0.250   2.501     qc      0         |                
   |          5      2   -0.711   2.207     qc      0         |                
   |          6      2    0.250   2.207     qc      0         |                
   |         loc     3    0.000   2.501     pn      0         |                
   |                                                          |                
   | Augmentation charge Rinner = 1.504                       |                
   | Partial core correction Rc = 1.504                       |                
   ------------------------------------------------------------                
   | "3|2.5|2.5|1.5|7|8|9|50:51:42U2.2U2.2"                   |                
   ------------------------------------------------------------                
   |      Author: Chris J. Pickard, Cambridge University      |                
   ============================================================                
 Warning: otfg_output_psp cannot write out meta-GGA pseudopotentials presently.

 Pseudo atomic calculation performed for P 3s2 3p3

 Converged in 23 iterations to a total energy of -208.0292 eV

 Pseudo atomic calculation performed for In 4d10 5s2 5p1

 Converged in 42 iterations to a total energy of -1747.4501 eV
 Calculation parallelised over 80 processes.
 Data is distributed by G-vector(4-way) and k-point(20-way)
 Each process may use up to 16 threads.

 ************************************ Title ************************************
 

 ***************************** General Parameters ******************************
  
 output verbosity                               : normal  (1)
 write checkpoint data to                       : QuadRelaxEndpoints_0.check
 type of calculation                            : geometry optimization
 stress calculation                             : off
 density difference calculation                 : off
 electron localisation func (ELF) calculation   : off
 Hirshfeld analysis                             : on
 polarisation (Berry phase) analysis            : off
 molecular orbital projected DOS                : off
 deltaSCF calculation                           : off
 unlimited duration calculation
 timing information                             : on
 memory usage estimate                          : on
 write extra output files                       : on
 write final potential to formatted file        : off
 write final density to formatted file          : off
 write BibTeX reference list                    : on
 write OTFG pseudopotential files               : on
 write electrostatic potential file             : on
 write bands file                               : on
 checkpoint writing                             : off
  
 output         length unit                     : A
 output           mass unit                     : amu
 output           time unit                     : ps
 output         charge unit                     : e
 output           spin unit                     : hbar/2
 output         energy unit                     : eV
 output          force unit                     : eV/A
 output       velocity unit                     : A/ps
 output       pressure unit                     : GPa
 output     inv_length unit                     : 1/A
 output      frequency unit                     : cm-1
 output force constant unit                     : eV/A**2
 output         volume unit                     : A**3
 output   IR intensity unit                     : (D/A)**2/amu
 output         dipole unit                     : D
 output         efield unit                     : eV/A/e
 output        entropy unit                     : J/mol/K
 output    efield chi2 unit                     : pm/V
  
 wavefunctions paging                           : none
 random number generator seed                   :  184150060
 data distribution                              : optimal for this architecture
 optimization strategy                          : balance speed and memory

 *********************** Exchange-Correlation Parameters ***********************
  
 using functional                               : RSCAN
 relativistic treatment                         : Koelling-Harmon
 DFT+D: Semi-empirical dispersion correction    : off

 ************************* Pseudopotential Parameters **************************
  
 pseudopotential representation                 : reciprocal space
 <beta|phi> representation                      : reciprocal space
 spin-orbit coupling                            : off

 **************************** Basis Set Parameters *****************************
  
 plane wave basis set cut-off                   :   900.0000   eV
 size of standard grid                          :     2.0000
 size of   fine   gmax                          :    30.7390   1/A
 finite basis set correction                    : none

 **************************** Electronic Parameters ****************************
  
 number of  electrons                           :  864.0    
 net charge of system                           :  0.000    
 treating system as non-spin-polarized
 number of bands                                :        518

 ********************* Electronic Minimization Parameters **********************
  
 Method: Treating system as metallic with density mixing treatment of electrons,
         and number of  SD  steps               :          1
         and number of  CG  steps               :          4
  
 total energy / atom convergence tol.           : 0.1000E-07   eV
 eigen-energy convergence tolerance             : 0.2222E-08   eV
 max force / atom convergence tol.              : ignored
 convergence tolerance window                   :          3   cycles
 max. number of SCF cycles                      :         50
 number of fixed-spin iterations                :         10
 smearing scheme                                : Gaussian
 smearing width                                 : 0.2000       eV
 Fermi energy convergence tolerance             : 0.2721E-13   eV
 periodic dipole correction                     : NONE

 ************************** Density Mixing Parameters **************************
  
 density-mixing scheme                          : Pulay
 max. length of mixing history                  :         15
 charge density mixing amplitude                : 0.5000    
 cut-off energy for mixing                      :  900.0       eV

 *********************** Population Analysis Parameters ************************
  
 Population analysis with cutoff                :  3.000       A
 Population analysis output                     : summary and pdos components

 ********************** Geometry Optimization Parameters ***********************
  
 optimization method                            : LBFGS
 max. no. of LBFGS updates                      : unbounded
 preconditioned LBFGS is activated
 preconditioner type                            : EXP
     stabilization constant                     :     0.1000
     parameter A                                :     3.0000
     nearest neighbor distance                  : automatic
     cut-off distance                           : automatic
     parameter mu                               : automatic
 variable cell method                           : fixed basis quality
 max. number of steps                           :         30
 estimated bulk modulus                         :  500.0       GPa
 estimated <frequency>                          :  1668.       cm-1
 geom line minimiser                            : on
 with line minimiser tolerance                  :     0.4000
 total energy convergence tolerance             : 0.2000E-04   eV/atom
        max ionic |force| tolerance             : 0.1000E-02   eV/A
 max ionic |displacement| tolerance             : 0.1000E-02   A
   max |stress component| tolerance             : 0.1000       GPa
 convergence tolerance window                   :          2   steps
 backup results every                           :          5   steps
 write geom trajectory file                     : on

 *******************************************************************************
  

                           -------------------------------
                                      Unit Cell
                           -------------------------------
        Real Lattice(A)                      Reciprocal Lattice(1/A)
    14.4540490    20.4411120     0.0000000        0.217350353   0.153689910   0.000000000
    14.4540490   -20.4411120     0.0000000        0.217350353  -0.153689910   0.000000000
     0.0000000     0.0000000     4.1725250        0.000000000   0.000000000   1.505847252

                       Lattice parameters(A)       Cell Angles
                    a =     25.035147          alpha =   90.000000
                    b =     25.035147          beta  =   90.000000
                    c =      4.172525          gamma =  109.471220

                       Current cell volume =          2465.602056       A**3
                                   density =             2.838254   AMU/A**3
                                           =             4.713031     g/cm^3

                           -------------------------------
                                     Cell Contents
                           -------------------------------
                         Total number of ions in cell =   96
                      Total number of species in cell =    2
                        Max number of any one species =   48

            xxxxxxxxxxxxxxxxxxxxxxxxxxxxxxxxxxxxxxxxxxxxxxxxxxxxxxxxxxxx
            x  Element    Atom        Fractional coordinates of atoms  x
            x            Number           u          v          w      x
            x----------------------------------------------------------x
            x  P            1         0.344963   0.364413   0.750213   x 
            x  P            2         0.197384   0.216543   0.506313   x 
            x  P            3         0.364004   0.207562   0.544095   x 
            x  P            4         0.482423   0.334163   0.112791   x 
            x  P            5         0.406014   0.087556   0.021980   x 
            x  P            6         0.530920   0.213552   0.552533   x 
            x  P            7         0.574307   0.092611   0.000091   x 
            x  P            8         0.448895   0.966907   0.480780   x 
            x  P            9         0.617741   0.971864   0.447402   x 
            x  P           10         0.742774   0.097956  -0.026983   x 
            x  P           11         0.662349   0.851446   0.886911   x 
            x  P           12         0.784819   0.976589   0.441806   x 
            x  P           13         0.592155   0.612271   0.776395   x 
            x  P           14         0.468436   0.489202   0.260120   x 
            x  P           15         0.605195   0.458616   0.637049   x 
            x  P           16         0.729583   0.582842   0.146612   x 
            x  P           17         0.653886   0.339274   0.073037   x 
            x  P           18         0.778003   0.463290   0.581753   x 
            x  P           19         0.824820   0.342677   0.033411   x 
            x  P           20         0.699589   0.218671   0.519927   x 
            x  P           21         0.869231   0.220915   0.499703   x 
            x  P           22         0.995530   0.346133  -0.001952   x 
            x  P           23         0.911159   0.097579  -0.014050   x 
            x  P           24         0.037798   0.222829   0.485962   x 
            x  P           25         0.830609   0.860699   0.789087   x 
            x  P           26         0.715000   0.734943   0.294058   x 
            x  P           27         0.854505   0.709695   0.635688   x 
            x  P           28         0.983025   0.839099   0.070512   x 
            x  P           29         0.901897   0.588656   0.073528   x 
            x  P           30         0.025312   0.715891   0.539531   x 
            x  P           31         0.072727   0.593843   1.007975   x 
            x  P           32         0.949198   0.467729   0.529016   x 
            x  P           33         0.120266   0.471808   0.478095   x 
            x  P           34         0.244019   0.598322   0.938308   x 
            x  P           35         0.167228   0.349238   0.967618   x 
            x  P           36         0.291462   0.477630   0.380450   x 
            x  P           37         0.073679   0.093840   0.004222   x 
            x  P           38         0.949623   0.970452   0.533135   x 
            x  P           39         0.110146   0.964416   0.530951   x 
            x  P           40         0.236065   0.087505   0.025121   x 
            x  P           41         0.152159   0.840727   1.013847   x 
            x  P           42         0.279071   0.964882   0.507941   x 
            x  P           43         0.322529   0.843485   0.973836   x 
            x  P           44         0.196958   0.719242   0.482776   x 
            x  P           45         0.368493   0.723125   0.425528   x 
            x  P           46         0.492988   0.846738   0.929630   x 
            x  P           47         0.415958   0.603563   0.863701   x 
            x  P           48         0.540441   0.727456   0.368087   x 
            x  In           1         0.270604   0.414920   0.876553   x 
            x  In           2         0.141552   0.286428   0.474260   x 
            x  In           3         0.299802   0.264002   0.599376   x 
            x  In           4         0.411610   0.385811   0.236618   x 
            x  In           5         0.340354   0.144956   0.040354   x 
            x  In           6         0.466928   0.272626   0.605953   x 
            x  In           7         0.509769   0.151530   0.046156   x 
            x  In           8         0.383877   0.025368   0.517760   x 
            x  In           9         0.552912   0.030427   0.494374   x 
            x  In          10         0.678166   0.156696   0.015148   x 
            x  In          11         0.597255   0.909664   0.941311   x 
            x  In          12         0.721540   0.035944   0.467757   x 
            x  In          13         0.521433   0.665848   0.861554   x 
            x  In          14         0.396586   0.541643   0.358524   x 
            x  In          15         0.532693   0.509497   0.750078   x 
            x  In          16         0.655939   0.632491   0.266441   x 
            x  In          17         0.587399   0.396957   0.132165   x 
            x  In          18         0.710660   0.520616   0.643084   x 
            x  In          19         0.758834   0.401404   0.077414   x 
            x  In          20         0.634787   0.277541   0.567657   x 
            x  In          21         0.804294   0.280470   0.530012   x 
            x  In          22         0.929473   0.405488   0.026998   x 
            x  In          23         0.847551   0.158363  -0.002692   x 
            x  In          24         0.973432   0.283645   0.497229   x 
            x  In          25         0.766295   0.914024   0.940234   x 
            x  In          26         0.645740   0.789788   0.378374   x 
            x  In          27         0.779698   0.757761   0.782691   x 
            x  In          28         0.923988   0.905663   0.048525   x 
            x  In          29         0.834757   0.646726   0.134174   x 
            x  In          30         0.958640   0.775963   0.576780   x 
            x  In          31         0.006004   0.653114   1.039406   x 
            x  In          32         0.882644   0.526427   0.570756   x 
            x  In          33         0.053564   0.531224   0.507216   x 
            x  In          34         0.177196   0.656907   0.980835   x 
            x  In          35         0.100228   0.409211   0.978436   x 
            x  In          36         0.224344   0.536099   0.435538   x 
            x  In          37         0.014778   0.159762   0.986979   x 
            x  In          38         0.889478   0.034396   0.484362   x 
            x  In          39         0.051604   0.030984   0.503943   x 
            x  In          40         0.176683   0.152363   0.008701   x 
            x  In          41         0.087378   0.901152   1.033386   x 
            x  In          42         0.214231   0.024320   0.524203   x 
            x  In          43         0.256799   0.902324   1.005651   x 
            x  In          44         0.130318   0.778060   0.513284   x 
            x  In          45         0.301804   0.781267   0.470581   x 
            x  In          46         0.427319   0.904900   0.976264   x 
            x  In          47         0.348710   0.661198   0.921357   x 
            x  In          48         0.473541   0.784894   0.424161   x 
            xxxxxxxxxxxxxxxxxxxxxxxxxxxxxxxxxxxxxxxxxxxxxxxxxxxxxxxxxxxx


                         No user defined ionic velocities

                           -------------------------------
                                   Details of Species
                           -------------------------------

                               Mass of species in AMU
                                    P   30.9737600
                                    In  114.8180000

                          Electric Quadrupole Moment (Barn)
                                    P    1.0000000 No Isotope Defined
                                    In    0.7700000 Isotope115

                          Files used for pseudopotentials:
                                    P 3|1.8|4|4|5|30:31:32
                                    In 3|2.5|2.5|1.5|7|8|9|50:51:42U2.2U2.2

                           -------------------------------
                              k-Points For BZ Sampling
                           -------------------------------
                       MP grid size for SCF calculation is  2  2  8
                            with an offset of   0.250  0.250  0.062
                       Number of kpoints used =            20

                           -------------------------------
                               Symmetry and Constraints
                           -------------------------------

                      Maximum deviation from symmetry =  0.00000         ANG

                      Number of symmetry operations   =           1
                      Number of ionic constraints     =           3
                      Point group of crystal =     1: C1, 1, 1
                      Space group of crystal =     1: P1, P 1

             Set iprint > 1 for details on symmetry rotations/translations

                         Centre of mass is constrained
             Set iprint > 1 for details of linear ionic constraints

                         Number of cell constraints= 6
                         Cell constraints are:  0 0 0 0 0 0

                         External pressure/stress (GPa)
                          0.00000   0.00000   0.00000
                                    0.00000   0.00000
                                              0.00000
 
+---------------- MEMORY AND SCRATCH DISK ESTIMATES PER PROCESS --------------+
|                                                     Memory          Disk    |
| Baseline code, static data and system overhead      368.0 MB         0.0 MB |
| BLAS internal memory storage                          0.0 MB         0.0 MB |
| Model and support data                             5399.6 MB         0.0 MB |
| Electronic energy minimisation requirements        1424.9 MB         0.0 MB |
| Force calculation requirements                      104.2 MB         0.0 MB |
|                                               ----------------------------- |
| Approx. total storage required per process         7192.5 MB         0.0 MB |
|                                                                             |
| Requirements will fluctuate during execution and may exceed these estimates |
+-----------------------------------------------------------------------------+
Calculating approximate eigenstates for fixed initial Hamiltonian
Cut-off for approx. calculation is   89.988 eV
Improving approx. states at cut-off of  450.000 eV
Resetting cut-off to  900.000 eV
Calculating total energy with cut-off of  900.000 eV.
------------------------------------------------------------------------ <-- SCF
SCF loop      Energy           Fermi           Energy gain       Timer   <-- SCF
                               energy          per atom          (sec)   <-- SCF
------------------------------------------------------------------------ <-- SCF
Initial  -9.45651418E+004  0.00000000E+000                       507.72  <-- SCF
      1  -9.42046306E+004  2.72346469E+000  -3.75532519E+000    1012.93  <-- SCF
      2  -9.42050671E+004  2.72297705E+000   4.54765612E-003    1368.67  <-- SCF
      3  -9.43044724E+004  3.21780785E+000   1.03547140E+000    1740.65  <-- SCF
      4  -9.43221943E+004  3.33306344E+000   1.84603381E-001    2282.06  <-- SCF
      5  -9.43129097E+004  3.68141022E+000  -9.67145582E-002    2655.32  <-- SCF
      6  -9.43129884E+004  3.76370079E+000   8.19084175E-004    3033.09  <-- SCF
      7  -9.43127312E+004  3.80404289E+000  -2.67842622E-003    3434.81  <-- SCF
      8  -9.43150833E+004  3.78088251E+000   2.45010034E-002    3815.11  <-- SCF
      9  -9.43147702E+004  3.76738981E+000  -3.26131085E-003    4194.96  <-- SCF
     10  -9.43149875E+004  3.76012858E+000   2.26272648E-003    4588.98  <-- SCF
     11  -9.43150010E+004  3.76854524E+000   1.41402738E-004    4986.46  <-- SCF
     12  -9.43150428E+004  3.76575051E+000   4.35502291E-004    5377.98  <-- SCF
     13  -9.43150421E+004  3.76969689E+000  -7.89086085E-006    5769.78  <-- SCF
     14  -9.43150420E+004  3.76848709E+000  -8.73803225E-007    6176.47  <-- SCF
     15  -9.43150420E+004  3.76879627E+000   4.18826683E-007    6531.05  <-- SCF
     16  -9.43150420E+004  3.76885556E+000   8.45916567E-008    6839.24  <-- SCF
     17  -9.43150421E+004  3.76877152E+000   1.60930425E-007    7159.50  <-- SCF
     18  -9.43150421E+004  3.76882084E+000   7.13572078E-009    7452.50  <-- SCF
     19  -9.43150421E+004  3.76887681E+000  -7.49547794E-009    7717.36  <-- SCF
------------------------------------------------------------------------ <-- SCF
 
Final energy, E             =  -94314.99167832     eV
Final free energy (E-TS)    =  -94315.04205880     eV
(energies not corrected for finite basis set)
 
NB est. 0K energy (E-0.5TS)      =  -94315.01686856     eV
 
 
+---------------- MEMORY AND SCRATCH DISK ESTIMATES PER PROCESS --------------+
|                                                     Memory          Disk    |
| Model and support data                             3500.3 MB         0.0 MB |
| Electronic energy minimisation requirements        1424.9 MB         0.0 MB |
| Geometry minimisation requirements                 1739.5 MB         0.0 MB |
|                                               ----------------------------- |
| Approx. total storage required per process         6664.7 MB         0.0 MB |
|                                                                             |
| Requirements will fluctuate during execution and may exceed these estimates |
+-----------------------------------------------------------------------------+
 

 ************************************** Forces **************************************
 *                                                                                  *
 *                           Cartesian components (eV/A)                            *
 * -------------------------------------------------------------------------------- *
 *                         x                    y                    z              *
 *                                                                                  *
 * P               1      0.02414             -0.04172              0.04003         *
 * P               2      0.01192             -0.00549             -0.01355         *
 * P               3      0.02940             -0.01997              0.00150         *
 * P               4      0.02382             -0.01668             -0.00051         *
 * P               5      0.00229              0.01858             -0.01467         *
 * P               6      0.00604             -0.00104              0.02057         *
 * P               7     -0.00435             -0.01664              0.00470         *
 * P               8      0.00350             -0.01045              0.00014         *
 * P               9     -0.01088             -0.00524             -0.00295         *
 * P              10     -0.00347             -0.01337              0.00848         *
 * P              11     -0.01847             -0.02097              0.02906         *
 * P              12     -0.01102             -0.00381              0.02241         *
 * P              13     -0.04801             -0.00646             -0.00706         *
 * P              14      0.00972             -0.01472              0.00463         *
 * P              15     -0.00660             -0.01662              0.00464         *
 * P              16     -0.01986              0.00332             -0.00468         *
 * P              17     -0.00735             -0.02049              0.00037         *
 * P              18     -0.01361              0.00191             -0.00092         *
 * P              19      0.00397              0.00214              0.00418         *
 * P              20      0.00430             -0.01856              0.00174         *
 * P              21      0.00207             -0.00668              0.00509         *
 * P              22      0.02327              0.00759              0.00199         *
 * P              23      0.00320              0.00171             -0.00974         *
 * P              24      0.02631             -0.01434             -0.00885         *
 * P              25      0.04848             -0.01320             -0.15321         *
 * P              26     -0.00441              0.02070             -0.00364         *
 * P              27     -0.00184             -0.01484              0.01831         *
 * P              28      0.01976              0.00237              0.00809         *
 * P              29     -0.01874              0.02527             -0.00074         *
 * P              30      0.00647              0.00896             -0.01827         *
 * P              31      0.00377              0.03688             -0.00883         *
 * P              32      0.00343              0.02026              0.00813         *
 * P              33      0.01627              0.00672             -0.00087         *
 * P              34     -0.00063              0.02234             -0.00613         *
 * P              35      0.03184             -0.00828              0.00483         *
 * P              36     -0.00755              0.02815             -0.01085         *
 * P              37     -0.00961             -0.00525             -0.00911         *
 * P              38      0.00506              0.01543              0.01108         *
 * P              39      0.00344              0.01034              0.00047         *
 * P              40      0.00812              0.00960             -0.01441         *
 * P              41      0.01720              0.02236             -0.00222         *
 * P              42      0.00505              0.01187              0.00011         *
 * P              43     -0.00322              0.00973             -0.00096         *
 * P              44      0.00479              0.02957             -0.00127         *
 * P              45     -0.01140              0.00833             -0.00437         *
 * P              46     -0.01317              0.00104              0.00168         *
 * P              47     -0.01984              0.00285              0.00561         *
 * P              48     -0.02772             -0.01711              0.01156         *
 * In              1     -0.02036             -0.00347              0.00270         *
 * In              2     -0.04942              0.01801             -0.00551         *
 * In              3     -0.04621             -0.00011              0.01394         *
 * In              4     -0.00607              0.00543             -0.00852         *
 * In              5     -0.02270              0.02164              0.00921         *
 * In              6     -0.04101              0.02825             -0.02196         *
 * In              7     -0.00417              0.01038             -0.00817         *
 * In              8     -0.01113             -0.01995              0.00085         *
 * In              9      0.00864              0.01513             -0.00124         *
 * In             10      0.01844              0.01779             -0.00152         *
 * In             11      0.01740              0.00675             -0.00335         *
 * In             12      0.02254              0.00326              0.00365         *
 * In             13      0.02679              0.00454             -0.00156         *
 * In             14      0.00339             -0.00613              0.00277         *
 * In             15      0.00676              0.02264             -0.00318         *
 * In             16      0.01638             -0.01692             -0.00208         *
 * In             17     -0.00086              0.00674             -0.00443         *
 * In             18      0.03399             -0.00677             -0.00081         *
 * In             19      0.01212             -0.00346              0.00105         *
 * In             20      0.00824              0.01775             -0.00491         *
 * In             21      0.00321              0.00301              0.00043         *
 * In             22     -0.00289             -0.00720             -0.00228         *
 * In             23      0.00024              0.00494             -0.00042         *
 * In             24     -0.02308              0.00901              0.00209         *
 * In             25     -0.01977              0.09110              0.01883         *
 * In             26      0.02004              0.01403             -0.00986         *
 * In             27      0.05599             -0.05510              0.03445         *
 * In             28     -0.05994             -0.01375              0.01020         *
 * In             29      0.04667              0.00288              0.00508         *
 * In             30     -0.00649             -0.01359             -0.01007         *
 * In             31      0.00335             -0.02588              0.00843         *
 * In             32      0.02431             -0.02094             -0.00156         *
 * In             33     -0.01214             -0.02048              0.00276         *
 * In             34     -0.01467             -0.02342              0.00023         *
 * In             35     -0.02041              0.00533              0.01629         *
 * In             36     -0.01783             -0.02097             -0.00213         *
 * In             37     -0.01674              0.00844              0.00469         *
 * In             38      0.00912              0.00007              0.00524         *
 * In             39      0.02793              0.00523              0.00440         *
 * In             40     -0.01357              0.01312             -0.00549         *
 * In             41     -0.02209             -0.01639              0.00807         *
 * In             42      0.00042             -0.03465              0.00915         *
 * In             43     -0.01680             -0.00357              0.00017         *
 * In             44     -0.01917             -0.02926              0.00382         *
 * In             45      0.00102             -0.01152              0.00101         *
 * In             46     -0.00509              0.00318              0.00172         *
 * In             47      0.00392             -0.00719              0.00237         *
 * In             48      0.01578              0.00598              0.00389         *
 *                                                                                  *
 ************************************************************************************
 EXP precond LBFGS => estimated nearest neighbor distance :  2.559       A
 EXP precond LBFGS => estimated cutoff distance :  5.118       A

 ************************************** Forces **************************************
 *                                                                                  *
 *                           Cartesian components (eV/A)                            *
 * -------------------------------------------------------------------------------- *
 *                         x                    y                    z              *
 *                                                                                  *
 * P               1      0.02414             -0.04172              0.04003         *
 * P               2      0.01192             -0.00549             -0.01355         *
 * P               3      0.02940             -0.01997              0.00150         *
 * P               4      0.02382             -0.01668             -0.00051         *
 * P               5      0.00229              0.01858             -0.01467         *
 * P               6      0.00604             -0.00104              0.02057         *
 * P               7     -0.00435             -0.01664              0.00470         *
 * P               8      0.00350             -0.01045              0.00014         *
 * P               9     -0.01088             -0.00524             -0.00295         *
 * P              10     -0.00347             -0.01337              0.00848         *
 * P              11     -0.01847             -0.02097              0.02906         *
 * P              12     -0.01102             -0.00381              0.02241         *
 * P              13     -0.04801             -0.00646             -0.00706         *
 * P              14      0.00972             -0.01472              0.00463         *
 * P              15     -0.00660             -0.01662              0.00464         *
 * P              16     -0.01986              0.00332             -0.00468         *
 * P              17     -0.00735             -0.02049              0.00037         *
 * P              18     -0.01361              0.00191             -0.00092         *
 * P              19      0.00397              0.00214              0.00418         *
 * P              20      0.00430             -0.01856              0.00174         *
 * P              21      0.00207             -0.00668              0.00509         *
 * P              22      0.02327              0.00759              0.00199         *
 * P              23      0.00320              0.00171             -0.00974         *
 * P              24      0.02631             -0.01434             -0.00885         *
 * P              25      0.04848             -0.01320             -0.15321         *
 * P              26     -0.00441              0.02070             -0.00364         *
 * P              27     -0.00184             -0.01484              0.01831         *
 * P              28      0.01976              0.00237              0.00809         *
 * P              29     -0.01874              0.02527             -0.00074         *
 * P              30      0.00647              0.00896             -0.01827         *
 * P              31      0.00377              0.03688             -0.00883         *
 * P              32      0.00343              0.02026              0.00813         *
 * P              33      0.01627              0.00672             -0.00087         *
 * P              34     -0.00063              0.02234             -0.00613         *
 * P              35      0.03184             -0.00828              0.00483         *
 * P              36     -0.00755              0.02815             -0.01085         *
 * P              37     -0.00961             -0.00525             -0.00911         *
 * P              38      0.00506              0.01543              0.01108         *
 * P              39      0.00344              0.01034              0.00047         *
 * P              40      0.00812              0.00960             -0.01441         *
 * P              41      0.01720              0.02236             -0.00222         *
 * P              42      0.00505              0.01187              0.00011         *
 * P              43     -0.00322              0.00973             -0.00096         *
 * P              44      0.00479              0.02957             -0.00127         *
 * P              45     -0.01140              0.00833             -0.00437         *
 * P              46     -0.01317              0.00104              0.00168         *
 * P              47     -0.01984              0.00285              0.00561         *
 * P              48     -0.02772             -0.01711              0.01156         *
 * In              1     -0.02036             -0.00347              0.00270         *
 * In              2     -0.04942              0.01801             -0.00551         *
 * In              3     -0.04621             -0.00011              0.01394         *
 * In              4     -0.00607              0.00543             -0.00852         *
 * In              5     -0.02270              0.02164              0.00921         *
 * In              6     -0.04101              0.02825             -0.02196         *
 * In              7     -0.00417              0.01038             -0.00817         *
 * In              8     -0.01113             -0.01995              0.00085         *
 * In              9      0.00864              0.01513             -0.00124         *
 * In             10      0.01844              0.01779             -0.00152         *
 * In             11      0.01740              0.00675             -0.00335         *
 * In             12      0.02254              0.00326              0.00365         *
 * In             13      0.02679              0.00454             -0.00156         *
 * In             14      0.00339             -0.00613              0.00277         *
 * In             15      0.00676              0.02264             -0.00318         *
 * In             16      0.01638             -0.01692             -0.00208         *
 * In             17     -0.00086              0.00674             -0.00443         *
 * In             18      0.03399             -0.00677             -0.00081         *
 * In             19      0.01212             -0.00346              0.00105         *
 * In             20      0.00824              0.01775             -0.00491         *
 * In             21      0.00321              0.00301              0.00043         *
 * In             22     -0.00289             -0.00720             -0.00228         *
 * In             23      0.00024              0.00494             -0.00042         *
 * In             24     -0.02308              0.00901              0.00209         *
 * In             25     -0.01977              0.09110              0.01883         *
 * In             26      0.02004              0.01403             -0.00986         *
 * In             27      0.05599             -0.05510              0.03445         *
 * In             28     -0.05994             -0.01375              0.01020         *
 * In             29      0.04667              0.00288              0.00508         *
 * In             30     -0.00649             -0.01359             -0.01007         *
 * In             31      0.00335             -0.02588              0.00843         *
 * In             32      0.02431             -0.02094             -0.00156         *
 * In             33     -0.01214             -0.02048              0.00276         *
 * In             34     -0.01467             -0.02342              0.00023         *
 * In             35     -0.02041              0.00533              0.01629         *
 * In             36     -0.01783             -0.02097             -0.00213         *
 * In             37     -0.01674              0.00844              0.00469         *
 * In             38      0.00912              0.00007              0.00524         *
 * In             39      0.02793              0.00523              0.00440         *
 * In             40     -0.01357              0.01312             -0.00549         *
 * In             41     -0.02209             -0.01639              0.00807         *
 * In             42      0.00042             -0.03465              0.00915         *
 * In             43     -0.01680             -0.00357              0.00017         *
 * In             44     -0.01917             -0.02926              0.00382         *
 * In             45      0.00102             -0.01152              0.00101         *
 * In             46     -0.00509              0.00318              0.00172         *
 * In             47      0.00392             -0.00719              0.00237         *
 * In             48      0.01578              0.00598              0.00389         *
 *                                                                                  *
 ************************************************************************************
 doing test perturbation to get energy scale for EXP preconditioner

                           -------------------------------
                                     Cell Contents
                           -------------------------------

            xxxxxxxxxxxxxxxxxxxxxxxxxxxxxxxxxxxxxxxxxxxxxxxxxxxxxxxxxxxxxxxxx
            x  Element         Atom        Fractional coordinates of atoms  x
            x                 Number           u          v          w      x
            x---------------------------------------------------------------x
            x  P                 1         0.345289   0.364753   0.754401   x
            x  P                 2         0.197575   0.216748   0.509293   x
            x  P                 3         0.364332   0.207776   0.547275   x
            x  P                 4         0.482858   0.334489   0.113482   x
            x  P                 5         0.406365   0.087675   0.022115   x
            x  P                 6         0.531385   0.213785   0.555757   x
            x  P                 7         0.574795   0.092751   0.000091   x
            x  P                 8         0.449325   0.967711   0.483621   x
            x  P                 9         0.618286   0.972666   0.450060   x
            x  P                10         0.743395   0.098117   0.978093   x
            x  P                11         0.662929   0.852164   0.891671   x
            x  P                12         0.785473   0.977384   0.444433   x
            x  P                13         0.592687   0.612818   0.780699   x
            x  P                14         0.468869   0.489651   0.261701   x
            x  P                15         0.605733   0.459047   0.640703   x
            x  P                16         0.730216   0.583368   0.147510   x
            x  P                17         0.654456   0.339615   0.073485   x
            x  P                18         0.778671   0.463729   0.585129   x
            x  P                19         0.825520   0.343028   0.033616   x
            x  P                20         0.700187   0.218921   0.522980   x
            x  P                21         0.869958   0.221178   0.502647   x
            x  P                22         0.996352   0.346491   1.003209   x
            x  P                23         0.911908   0.097754   0.991071   x
            x  P                24         0.037856   0.223022   0.488832   x
            x  P                25         0.831302   0.861414   0.793446   x
            x  P                26         0.715621   0.735579   0.295839   x
            x  P                27         0.855224   0.710308   0.639335   x
            x  P                28         0.983818   0.839787   0.070945   x
            x  P                29         0.902653   0.589184   0.073979   x
            x  P                30         0.025414   0.716485   0.542687   x
            x  P                31         0.072853   0.594345   0.008024   x
            x  P                32         0.949989   0.468172   0.532117   x
            x  P                33         0.120418   0.472216   0.480922   x
            x  P                34         0.244281   0.598842   0.943261   x
            x  P                35         0.167407   0.349550   0.972675   x
            x  P                36         0.291754   0.478058   0.382731   x
            x  P                37         0.073752   0.093928   0.004248   x
            x  P                38         0.950381   0.971225   0.536258   x
            x  P                39         0.110335   0.965205   0.534062   x
            x  P                40         0.236274   0.087606   0.025276   x
            x  P                41         0.152369   0.841427   0.013932   x
            x  P                42         0.279381   0.965681   0.510929   x
            x  P                43         0.322866   0.844197   0.978915   x
            x  P                44         0.197193   0.719854   0.485628   x
            x  P                45         0.368860   0.723749   0.428065   x
            x  P                46         0.493449   0.847457   0.934551   x
            x  P                47         0.416356   0.604098   0.868370   x
            x  P                48         0.540936   0.728087   0.370298   x
            x  In                1         0.270874   0.415295   0.881273   x
            x  In                2         0.141703   0.286686   0.477065   x
            x  In                3         0.300082   0.264257   0.602841   x
            x  In                4         0.411992   0.386174   0.238058   x
            x  In                5         0.340657   0.145116   0.040602   x
            x  In                6         0.467346   0.272902   0.609452   x
            x  In                7         0.510211   0.151711   0.046440   x
            x  In                8         0.384203   0.025433   0.520801   x
            x  In                9         0.553377   0.030515   0.497289   x
            x  In               10         0.678743   0.156897   0.015241   x
            x  In               11         0.597788   0.910425   0.946275   x
            x  In               12         0.722139   0.036055   0.470527   x
            x  In               13         0.521913   0.666434   0.866215   x
            x  In               14         0.396966   0.542129   0.360680   x
            x  In               15         0.533177   0.509964   0.754266   x
            x  In               16         0.656519   0.633053   0.268059   x
            x  In               17         0.587921   0.397339   0.132974   x
            x  In               18         0.711279   0.521096   0.646767   x
            x  In               19         0.759487   0.401797   0.077889   x
            x  In               20         0.635339   0.277833   0.570960   x
            x  In               21         0.804975   0.280774   0.533118   x
            x  In               22         0.930250   0.405887   0.027164   x
            x  In               23         0.848257   0.158578   1.002467   x
            x  In               24         0.974237   0.283959   0.500160   x
            x  In               25         0.766942   0.914779   0.945194   x
            x  In               26         0.646311   0.790464   0.380643   x
            x  In               27         0.780363   0.758410   0.787023   x
            x  In               28         0.924737   0.906399   0.048823   x
            x  In               29         0.835465   0.647296   0.134996   x
            x  In               30         0.959423   0.776613   0.580130   x
            x  In               31         0.006084   0.653656   0.039648   x
            x  In               32         0.883387   0.526911   0.574075   x
            x  In               33         0.053668   0.531673   0.510200   x
            x  In               34         0.177410   0.657469   0.985937   x
            x  In               35         0.100358   0.409566   0.983531   x
            x  In               36         0.224587   0.536568   0.438130   x
            x  In               37         0.014809   0.159899   0.992103   x
            x  In               38         0.890205   0.034523   0.487223   x
            x  In               39         0.051651   0.031016   0.506910   x
            x  In               40         0.176850   0.152512   0.008754   x
            x  In               41         0.087545   0.901893   0.033592   x
            x  In               42         0.214415   0.024365   0.527278   x
            x  In               43         0.257090   0.903077   0.005685   x
            x  In               44         0.130506   0.778711   0.516301   x
            x  In               45         0.302123   0.781932   0.473367   x
            x  In               46         0.427733   0.905660   0.981351   x
            x  In               47         0.349058   0.661775   0.926249   x
            x  In               48         0.473988   0.785567   0.426690   x
            xxxxxxxxxxxxxxxxxxxxxxxxxxxxxxxxxxxxxxxxxxxxxxxxxxxxxxxxxxxxxxxxx


------------------------------------------------------------------------ <-- SCF
SCF loop      Energy           Fermi           Energy gain       Timer   <-- SCF
                               energy          per atom          (sec)   <-- SCF
------------------------------------------------------------------------ <-- SCF
Initial  -9.43120981E+004  0.00000000E+000                      8270.64  <-- SCF
      1  -9.43146559E+004  3.77146008E+000   2.66438457E-002    8738.54  <-- SCF
      2  -9.43150018E+004  3.77139345E+000   3.60266160E-003    9179.05  <-- SCF
      3  -9.43150057E+004  3.77083791E+000   4.05978300E-005    9551.78  <-- SCF
      4  -9.43150084E+004  3.77066013E+000   2.83470778E-005    9941.48  <-- SCF
      5  -9.43150086E+004  3.77074696E+000   2.58397998E-006   10370.04  <-- SCF
      6  -9.43150087E+004  3.77090785E+000   5.85092239E-007   10760.16  <-- SCF
      7  -9.43150087E+004  3.77101927E+000  -3.20571860E-008   11094.70  <-- SCF
      8  -9.43150087E+004  3.77116707E+000  -5.45632124E-008   11399.12  <-- SCF
      9  -9.43150087E+004  3.77129092E+000  -3.12005231E-008   11693.29  <-- SCF
     10  -9.43150087E+004  3.77139948E+000  -6.67297330E-009   11986.46  <-- SCF
     11  -9.43150087E+004  3.77142708E+000   4.01778241E-010   12255.01  <-- SCF
------------------------------------------------------------------------ <-- SCF
 
Final energy, E             =  -94314.95882306     eV
Final free energy (E-TS)    =  -94315.00867809     eV
(energies not corrected for finite basis set)
 
NB est. 0K energy (E-0.5TS)      =  -94314.98375057     eV
 

 ************************************** Forces **************************************
 *                                                                                  *
 *                           Cartesian components (eV/A)                            *
 * -------------------------------------------------------------------------------- *
 *                         x                    y                    z              *
 *                                                                                  *
 * P               1      0.00415             -0.05186             -0.02580         *
 * P               2      0.02646             -0.00449             -0.09114         *
 * P               3      0.04512             -0.03110             -0.08738         *
 * P               4      0.02934             -0.01372              0.10130         *
 * P               5      0.01155              0.00638              0.08855         *
 * P               6      0.02374             -0.01486             -0.08687         *
 * P               7      0.00322             -0.02393              0.10548         *
 * P               8     -0.05022              0.08677              0.06181         *
 * P               9     -0.06017              0.09389              0.06387         *
 * P              10      0.01462             -0.01871             -0.08478         *
 * P              11     -0.00123             -0.03245             -0.06231         *
 * P              12     -0.04754              0.10006              0.09436         *
 * P              13     -0.06196             -0.02057             -0.08955         *
 * P              14      0.00518             -0.00744              0.08615         *
 * P              15      0.00248             -0.02987             -0.09102         *
 * P              16     -0.01394              0.00628              0.09222         *
 * P              17     -0.00319             -0.01664              0.10831         *
 * P              18      0.00204             -0.00772             -0.10297         *
 * P              19      0.00936             -0.00064              0.10749         *
 * P              20      0.01828             -0.03157             -0.09234         *
 * P              21      0.00785             -0.01825              0.08069         *
 * P              22     -0.05498             -0.04276             -0.08765         *
 * P              23     -0.08679             -0.05592             -0.07374         *
 * P              24      0.05410              0.07209              0.05437         *
 * P              25     -0.00055             -0.05477             -0.17328         *
 * P              26     -0.00896              0.02754              0.07543         *
 * P              27      0.00265             -0.03249             -0.06564         *
 * P              28     -0.03733             -0.05196              0.10490         *
 * P              29     -0.09327             -0.00427              0.10461         *
 * P              30      0.02551              0.07871             -0.11762         *
 * P              31      0.02560              0.03421              0.10011         *
 * P              32     -0.07913             -0.02766             -0.08705         *
 * P              33      0.03835              0.00947              0.07235         *
 * P              34      0.01263              0.01293             -0.08422         *
 * P              35      0.03582             -0.00750             -0.06762         *
 * P              36      0.00036              0.03150              0.07170         *
 * P              37      0.02490             -0.01258              0.09989         *
 * P              38     -0.16910              0.05614             -0.05977         *
 * P              39     -0.04315              0.10066             -0.09567         *
 * P              40      0.02439             -0.00164              0.08474         *
 * P              41      0.03104              0.02348              0.09833         *
 * P              42     -0.03966              0.09902             -0.10284         *
 * P              43      0.00754              0.01166             -0.09375         *
 * P              44      0.00839              0.02783              0.06483         *
 * P              45     -0.00969              0.00698              0.07981         *
 * P              46     -0.00302             -0.01015             -0.08914         *
 * P              47     -0.01021             -0.00772             -0.08573         *
 * P              48     -0.03178             -0.01414              0.10590         *
 * In              1     -0.02557             -0.00149             -0.06587         *
 * In              2     -0.04688              0.02227              0.05992         *
 * In              3     -0.04406             -0.00266              0.01374         *
 * In              4      0.01024              0.01888              0.04221         *
 * In              5     -0.04104              0.02961              0.08761         *
 * In              6     -0.04264              0.02662             -0.10864         *
 * In              7     -0.02098              0.02266              0.07614         *
 * In              8      0.04645             -0.11698             -0.07919         *
 * In              9      0.06729             -0.08309             -0.08004         *
 * In             10      0.00462              0.02195              0.09068         *
 * In             11      0.00595              0.01839             -0.07001         *
 * In             12      0.06845             -0.09716              0.07863         *
 * In             13      0.02537              0.00537             -0.07902         *
 * In             14     -0.00909             -0.00164              0.07605         *
 * In             15      0.00678              0.01931             -0.07078         *
 * In             16      0.03161             -0.00953              0.06443         *
 * In             17     -0.01658              0.01656              0.07875         *
 * In             18      0.03144             -0.00835             -0.08350         *
 * In             19     -0.00339              0.00533              0.08757         *
 * In             20      0.00511              0.02012             -0.09214         *
 * In             21     -0.00568              0.00740             -0.08607         *
 * In             22     -0.02197             -0.00110              0.09165         *
 * In             23     -0.01017             -0.00042             -0.06343         *
 * In             24     -0.04286             -0.06142              0.06861         *
 * In             25     -0.03223              0.11319             -0.05041         *
 * In             26      0.00535              0.02435              0.06187         *
 * In             27      0.05620             -0.05729             -0.02922         *
 * In             28     -0.03327              0.01462              0.09509         *
 * In             29      0.03376              0.00258              0.08120         *
 * In             30     -0.02684             -0.06637             -0.08499         *
 * In             31      0.06704              0.01542              0.08746         *
 * In             32      0.01050             -0.01726             -0.08442         *
 * In             33      0.06710              0.01704             -0.08672         *
 * In             34     -0.02074             -0.01942             -0.07212         *
 * In             35      0.05745              0.03981             -0.05018         *
 * In             36     -0.03304             -0.01993              0.06852         *
 * In             37      0.06696              0.05776             -0.06301         *
 * In             38      0.03989             -0.08521              0.06404         *
 * In             39      0.20486             -0.02872             -0.08802         *
 * In             40     -0.02893              0.01867              0.06569         *
 * In             41      0.03575              0.02355              0.08235         *
 * In             42      0.05778             -0.12288             -0.06748         *
 * In             43     -0.04089              0.00799              0.09244         *
 * In             44     -0.01902             -0.02123             -0.08010         *
 * In             45     -0.01001             -0.00759              0.06851         *
 * In             46     -0.01918              0.01503             -0.06350         *
 * In             47     -0.00145             -0.00606             -0.06907         *
 * In             48      0.00177              0.01307              0.07546         *
 *                                                                                  *
 ************************************************************************************
 EXP precond LBFGS => estimated parameter mu :  2.393       eV/A**2
 LBFGS: finished iteration     0 with enthalpy= -9.43150421E+004 eV
  
 +-----------+-----------------+-----------------+------------+-----+ <-- LBFGS
 | Parameter |      value      |    tolerance    |    units   | OK? | <-- LBFGS
 +-----------+-----------------+-----------------+------------+-----+ <-- LBFGS
 |  dE/ion   |   0.000000E+000 |   2.000000E-005 |         eV | No  | <-- LBFGS
 |  |F|max   |   2.248113E-001 |   1.000000E-003 |       eV/A | No  | <-- LBFGS
 |  |dR|max  |   4.230034E-015 |   1.000000E-003 |          A | No  | <-- LBFGS
 +-----------+-----------------+-----------------+------------+-----+ <-- LBFGS
  

================================================================================
 Starting LBFGS iteration          1 ...
================================================================================
  
 +------------+-------------+-------------+-----------------+ <-- min LBFGS
 |    Step    |   lambda    |   F.delta'  |    enthalpy     | <-- min LBFGS
 +------------+-------------+-------------+-----------------+ <-- min LBFGS
 |  previous  |    0.000000 |    0.075536 |   -94315.042059 | <-- min LBFGS
 +------------+-------------+-------------+-----------------+ <-- min LBFGS
  

--------------------------------------------------------------------------------
 LBFGS: starting iteration         1 with trial guess (lambda=  1.000000)
--------------------------------------------------------------------------------

                           -------------------------------
                                     Cell Contents
                           -------------------------------

            xxxxxxxxxxxxxxxxxxxxxxxxxxxxxxxxxxxxxxxxxxxxxxxxxxxxxxxxxxxxxxxxx
            x  Element         Atom        Fractional coordinates of atoms  x
            x                 Number           u          v          w      x
            x---------------------------------------------------------------x
            x  P                 1         0.344812   0.364510   0.751431   x
            x  P                 2         0.197282   0.216447   0.506073   x
            x  P                 3         0.363944   0.207563   0.544220   x
            x  P                 4         0.482405   0.334254   0.112836   x
            x  P                 5         0.406020   0.087429   0.021632   x
            x  P                 6         0.530940   0.213526   0.552916   x
            x  P                 7         0.574322   0.092624   0.000257   x
            x  P                 8         0.448868   0.966884   0.480806   x
            x  P                 9         0.617785   0.971844   0.447500   x
            x  P                10         0.742840   0.098003  -0.026625   x
            x  P                11         0.662369   0.851427   0.887392   x
            x  P                12         0.784910   0.976543   0.442115   x
            x  P                13         0.592004   0.612213   0.776227   x
            x  P                14         0.468376   0.489268   0.260388   x
            x  P                15         0.605156   0.458727   0.637139   x
            x  P                16         0.729621   0.582980   0.146453   x
            x  P                17         0.653860   0.339374   0.073120   x
            x  P                18         0.778044   0.463409   0.581803   x
            x  P                19         0.824898   0.342763   0.033702   x
            x  P                20         0.699646   0.218776   0.520138   x
            x  P                21         0.869270   0.220939   0.499988   x
            x  P                22         0.995621   0.346153  -0.001609   x
            x  P                23         0.911220   0.097550  -0.014279   x
            x  P                24         0.037801   0.222829   0.485782   x
            x  P                25         0.830807   0.860931   0.785694   x
            x  P                26         0.715125   0.735074   0.293738   x
            x  P                27         0.854568   0.709971   0.635764   x
            x  P                28         0.983052   0.839199   0.070230   x
            x  P                29         0.901978   0.588711   0.073517   x
            x  P                30         0.025324   0.715959   0.538925   x
            x  P                31         0.072784   0.593769   1.007793   x
            x  P                32         0.949289   0.467758   0.529353   x
            x  P                33         0.120270   0.471775   0.478317   x
            x  P                34         0.243976   0.598182   0.938222   x
            x  P                35         0.167208   0.349237   0.968020   x
            x  P                36         0.291389   0.477474   0.380502   x
            x  P                37         0.073627   0.093747   0.003823   x
            x  P                38         0.949710   0.970435   0.532872   x
            x  P                39         0.110146   0.964398   0.530851   x
            x  P                40         0.236038   0.087407   0.024716   x
            x  P                41         0.152180   0.840691   1.013692   x
            x  P                42         0.279034   0.964812   0.507889   x
            x  P                43         0.322485   0.843369   0.973814   x
            x  P                44         0.196961   0.719133   0.482662   x
            x  P                45         0.368432   0.723004   0.425532   x
            x  P                46         0.492964   0.846655   0.929800   x
            x  P                47         0.415847   0.603457   0.863966   x
            x  P                48         0.540342   0.727415   0.368399   x
            x  In                1         0.270438   0.414813   0.877045   x
            x  In                2         0.141380   0.286170   0.474206   x
            x  In                3         0.299565   0.263830   0.599919   x
            x  In                4         0.411521   0.385812   0.236817   x
            x  In                5         0.340286   0.144755   0.040412   x
            x  In                6         0.466833   0.272439   0.605648   x
            x  In                7         0.509789   0.151451   0.046028   x
            x  In                8         0.383773   0.025305   0.517700   x
            x  In                9         0.552994   0.030408   0.494440   x
            x  In               10         0.678319   0.156758   0.015324   x
            x  In               11         0.597357   0.909670   0.941434   x
            x  In               12         0.721696   0.036001   0.468037   x
            x  In               13         0.521451   0.665885   0.861634   x
            x  In               14         0.396503   0.541612   0.358784   x
            x  In               15         0.532702   0.509511   0.750083   x
            x  In               16         0.655976   0.632677   0.266252   x
            x  In               17         0.587397   0.397021   0.132127   x
            x  In               18         0.710779   0.520868   0.643056   x
            x  In               19         0.758907   0.401554   0.077560   x
            x  In               20         0.634876   0.277578   0.567714   x
            x  In               21         0.804370   0.280536   0.530254   x
            x  In               22         0.929514   0.405535   0.027224   x
            x  In               23         0.847622   0.158363  -0.002564   x
            x  In               24         0.973408   0.283545   0.497434   x
            x  In               25         0.766532   0.913822   0.939978   x
            x  In               26         0.645872   0.789854   0.378197   x
            x  In               27         0.779866   0.758235   0.782508   x
            x  In               28         0.923857   0.905587   0.047756   x
            x  In               29         0.834981   0.647045   0.134214   x
            x  In               30         0.958615   0.776105   0.576229   x
            x  In               31         0.005990   0.653222   1.039398   x
            x  In               32         0.882742   0.526641   0.570817   x
            x  In               33         0.053505   0.531214   0.507390   x
            x  In               34         0.177076   0.656829   0.980751   x
            x  In               35         0.100171   0.409101   0.979072   x
            x  In               36         0.224188   0.535992   0.435595   x
            x  In               37         0.014747   0.159640   0.986898   x
            x  In               38         0.889582   0.034399   0.484305   x
            x  In               39         0.051702   0.031018   0.503802   x
            x  In               40         0.176605   0.152195   0.008359   x
            x  In               41         0.087263   0.901125   1.033364   x
            x  In               42         0.214123   0.024335   0.524249   x
            x  In               43         0.256701   0.902212   1.005584   x
            x  In               44         0.130177   0.778043   0.513138   x
            x  In               45         0.301739   0.781197   0.470577   x
            x  In               46         0.427285   0.904811   0.976350   x
            x  In               47         0.348639   0.661126   0.921479   x
            x  In               48         0.473565   0.784867   0.424385   x
            xxxxxxxxxxxxxxxxxxxxxxxxxxxxxxxxxxxxxxxxxxxxxxxxxxxxxxxxxxxxxxxxx


------------------------------------------------------------------------ <-- SCF
SCF loop      Energy           Fermi           Energy gain       Timer   <-- SCF
                               energy          per atom          (sec)   <-- SCF
------------------------------------------------------------------------ <-- SCF
Initial  -9.43119037E+004  0.00000000E+000                     12556.88  <-- SCF
      1  -9.43147015E+004  3.75798999E+000   2.91440599E-002   13025.23  <-- SCF
      2  -9.43150416E+004  3.75784745E+000   3.54329253E-003   13471.10  <-- SCF
      3  -9.43150454E+004  3.75986410E+000   3.95035218E-005   13841.79  <-- SCF
      4  -9.43150480E+004  3.75797394E+000   2.70540980E-005   14229.18  <-- SCF
      5  -9.43150482E+004  3.75785368E+000   2.26128979E-006   14668.02  <-- SCF
      6  -9.43150483E+004  3.75711691E+000   4.76676176E-007   15066.67  <-- SCF
      7  -9.43150483E+004  3.75678022E+000  -1.59327823E-007   15400.08  <-- SCF
      8  -9.43150483E+004  3.75621172E+000  -2.05841421E-007   15718.29  <-- SCF
      9  -9.43150483E+004  3.75585562E+000  -8.34693330E-008   16025.77  <-- SCF
     10  -9.43150482E+004  3.75562378E+000  -1.71260392E-008   16322.18  <-- SCF
     11  -9.43150482E+004  3.75560953E+000  -4.10156678E-010   16587.96  <-- SCF
     12  -9.43150482E+004  3.75562268E+000  -4.15054840E-010   16849.51  <-- SCF
------------------------------------------------------------------------ <-- SCF
 
Final energy, E             =  -94314.99951762     eV
Final free energy (E-TS)    =  -94315.04824887     eV
(energies not corrected for finite basis set)
 
NB est. 0K energy (E-0.5TS)      =  -94315.02388324     eV
 

 ************************************** Forces **************************************
 *                                                                                  *
 *                           Cartesian components (eV/A)                            *
 * -------------------------------------------------------------------------------- *
 *                         x                    y                    z              *
 *                                                                                  *
 * P               1     -0.02525              0.00831              0.00423         *
 * P               2     -0.01011              0.00268             -0.02073         *
 * P               3     -0.00274             -0.01566             -0.00312         *
 * P               4     -0.00316              0.00360             -0.00558         *
 * P               5      0.01118              0.00147             -0.00305         *
 * P               6      0.00653              0.00772              0.00141         *
[...]
      4  -9.43150804E+004  3.62896301E+000   5.05606401E-009   84965.37  <-- SCF
      5  -9.43150804E+004  3.62896272E+000   7.56121644E-010   85217.84  <-- SCF
------------------------------------------------------------------------ <-- SCF
 
Final energy, E             =  -94315.05081220     eV
Final free energy (E-TS)    =  -94315.08044868     eV
(energies not corrected for finite basis set)
 
NB est. 0K energy (E-0.5TS)      =  -94315.06563044     eV
 

 ************************************** Forces **************************************
 *                                                                                  *
 *                           Cartesian components (eV/A)                            *
 * -------------------------------------------------------------------------------- *
 *                         x                    y                    z              *
 *                                                                                  *
 * P               1     -0.00050             -0.00007             -0.00088         *
 * P               2      0.00037             -0.00035              0.00055         *
 * P               3     -0.00018             -0.00014              0.00003         *
 * P               4     -0.00000              0.00007              0.00054         *
 * P               5      0.00039             -0.00004              0.00044         *
 * P               6      0.00029              0.00012             -0.00005         *
 * P               7      0.00053             -0.00074             -0.00008         *
 * P               8      0.00050             -0.00013              0.00010         *
 * P               9      0.00124             -0.00041             -0.00025         *
 * P              10     -0.00002             -0.00037             -0.00002         *
 * P              11     -0.00028             -0.00034             -0.00022         *
 * P              12      0.00135              0.00005              0.00113         *
 * P              13      0.00013              0.00048             -0.00022         *
 * P              14     -0.00035             -0.00014              0.00030         *
 * P              15     -0.00027              0.00003              0.00021         *
 * P              16     -0.00025              0.00036              0.00025         *
 * P              17      0.00005             -0.00038              0.00015         *
 * P              18     -0.00034              0.00020             -0.00003         *
 * P              19      0.00005              0.00003             -0.00008         *
 * P              20      0.00049             -0.00021             -0.00008         *
 * P              21      0.00040              0.00012              0.00010         *
 * P              22     -0.00020              0.00011             -0.00016         *
 * P              23      0.00017             -0.00011             -0.00002         *
 * P              24      0.00040             -0.00057             -0.00008         *
 * P              25      0.00083             -0.00020             -0.00034         *
 * P              26      0.00006              0.00024             -0.00150         *
 * P              27      0.00002              0.00081              0.00008         *
 * P              28     -0.00066              0.00043              0.00051         *
 * P              29     -0.00039              0.00037             -0.00042         *
 * P              30     -0.00028              0.00023             -0.00005         *
 * P              31     -0.00046              0.00014             -0.00001         *
 * P              32     -0.00040              0.00025             -0.00018         *
 * P              33     -0.00013              0.00018              0.00009         *
 * P              34     -0.00036             -0.00013              0.00014         *
 * P              35     -0.00076              0.00015              0.00010         *
 * P              36     -0.00050              0.00022              0.00022         *
 * P              37     -0.00037             -0.00012              0.00014         *
 * P              38      0.00047             -0.00018             -0.00054         *
 * P              39      0.00023             -0.00034             -0.00013         *
 * P              40      0.00058             -0.00003             -0.00009         *
 * P              41      0.00013              0.00004             -0.00005         *
 * P              42     -0.00034             -0.00021              0.00016         *
 * P              43     -0.00023              0.00004             -0.00013         *
 * P              44     -0.00026              0.00015              0.00007         *
 * P              45     -0.00010              0.00032             -0.00016         *
 * P              46     -0.00026             -0.00027             -0.00028         *
 * P              47     -0.00057              0.00020             -0.00006         *
 * P              48      0.00019             -0.00021             -0.00003         *
 * In              1     -0.00001              0.00007              0.00005         *
 * In              2     -0.00032              0.00032             -0.00004         *
 * In              3      0.00040              0.00032             -0.00006         *
 * In              4      0.00063             -0.00009             -0.00025         *
 * In              5     -0.00016              0.00016             -0.00002         *
 * In              6      0.00006              0.00007             -0.00045         *
 * In              7     -0.00037              0.00021              0.00001         *
 * In              8     -0.00022              0.00035             -0.00002         *
 * In              9     -0.00021              0.00016             -0.00016         *
 * In             10     -0.00061              0.00045             -0.00016         *
 * In             11      0.00014              0.00054              0.00004         *
 * In             12     -0.00066              0.00081              0.00015         *
 * In             13      0.00007             -0.00012              0.00001         *
 * In             14     -0.00011             -0.00045             -0.00000         *
 * In             15      0.00031             -0.00029             -0.00003         *
 * In             16      0.00054              0.00005              0.00085         *
 * In             17      0.00007             -0.00014             -0.00006         *
 * In             18      0.00014              0.00012             -0.00005         *
 * In             19     -0.00015              0.00020              0.00012         *
 * In             20     -0.00030              0.00021             -0.00001         *
 * In             21     -0.00030             -0.00016              0.00006         *
 * In             22      0.00016             -0.00023              0.00004         *
 * In             23     -0.00011             -0.00007              0.00005         *
 * In             24      0.00006             -0.00003              0.00012         *
 * In             25     -0.00006             -0.00071             -0.00097         *
 * In             26     -0.00031             -0.00031              0.00039         *
 * In             27     -0.00108              0.00017             -0.00070         *
 * In             28     -0.00008             -0.00034              0.00080         *
 * In             29     -0.00002             -0.00044              0.00045         *
 * In             30      0.00020              0.00003              0.00022         *
 * In             31      0.00024             -0.00020              0.00022         *
 * In             32      0.00019             -0.00036              0.00007         *
 * In             33      0.00056             -0.00035              0.00008         *
 * In             34      0.00049             -0.00028             -0.00001         *
 * In             35      0.00056             -0.00009              0.00017         *
 * In             36      0.00042             -0.00006             -0.00012         *
 * In             37     -0.00029              0.00004             -0.00046         *
 * In             38     -0.00007              0.00021             -0.00040         *
 * In             39     -0.00045              0.00038              0.00005         *
 * In             40     -0.00040              0.00000              0.00059         *
 * In             41     -0.00016             -0.00053              0.00013         *
 * In             42     -0.00005              0.00006             -0.00047         *
 * In             43      0.00006              0.00006              0.00005         *
 * In             44      0.00027             -0.00022              0.00018         *
 * In             45      0.00008              0.00028              0.00005         *
 * In             46      0.00011              0.00031              0.00010         *
 * In             47      0.00013              0.00015              0.00008         *
 * In             48      0.00017              0.00008              0.00012         *
 *                                                                                  *
 ************************************************************************************
  
 +------------+-------------+-------------+-----------------+ <-- min LBFGS
 |    Step    |   lambda    |   F.delta'  |    enthalpy     | <-- min LBFGS
 +------------+-------------+-------------+-----------------+ <-- min LBFGS
 |  previous  |    0.000000 |    0.000447 |   -94315.080444 | <-- min LBFGS
 | trial step |    1.000000 |    0.000087 |   -94315.080449 | <-- min LBFGS
 +------------+-------------+-------------+-----------------+ <-- min LBFGS
  
 LBFGS: finished iteration    17 with enthalpy= -9.43150804E+004 eV
  
 +-----------+-----------------+-----------------+------------+-----+ <-- LBFGS
 | Parameter |      value      |    tolerance    |    units   | OK? | <-- LBFGS
 +-----------+-----------------+-----------------+------------+-----+ <-- LBFGS
 |  dE/ion   |   4.550187E-008 |   2.000000E-005 |         eV | Yes | <-- LBFGS
 |  |F|max   |   1.764233E-003 |   1.000000E-003 |       eV/A | No  | <-- LBFGS
 |  |dR|max  |   1.431991E-003 |   1.000000E-003 |          A | No  | <-- LBFGS
 +-----------+-----------------+-----------------+------------+-----+ <-- LBFGS
  

================================================================================
 Starting LBFGS iteration         18 ...
================================================================================
  
 +------------+-------------+-------------+-----------------+ <-- min LBFGS
 |    Step    |   lambda    |   F.delta'  |    enthalpy     | <-- min LBFGS
 +------------+-------------+-------------+-----------------+ <-- min LBFGS
 |  previous  |    0.000000 |    0.001045 |   -94315.080449 | <-- min LBFGS
 +------------+-------------+-------------+-----------------+ <-- min LBFGS
  

--------------------------------------------------------------------------------
 LBFGS: starting iteration        18 with trial guess (lambda=  1.000000)
--------------------------------------------------------------------------------

                           -------------------------------
                                     Cell Contents
                           -------------------------------

            xxxxxxxxxxxxxxxxxxxxxxxxxxxxxxxxxxxxxxxxxxxxxxxxxxxxxxxxxxxxxxxxx
            x  Element         Atom        Fractional coordinates of atoms  x
            x                 Number           u          v          w      x
            x---------------------------------------------------------------x
            x  P                 1         0.344441   0.364010   0.760370   x
            x  P                 2         0.197588   0.216556   0.495994   x
            x  P                 3         0.363973   0.207653   0.543686   x
            x  P                 4         0.482528   0.334180   0.112871   x
            x  P                 5         0.406315   0.087535   0.020731   x
            x  P                 6         0.531275   0.213457   0.554289   x
            x  P                 7         0.574718   0.092604   0.001024   x
            x  P                 8         0.449048   0.967088   0.481393   x
            x  P                 9         0.618157   0.971860   0.447679   x
            x  P                10         0.743034   0.097781  -0.029909   x
            x  P                11         0.663090   0.851498   0.889892   x
            x  P                12         0.785125   0.975916   0.433549   x
            x  P                13         0.591826   0.612132   0.775519   x
            x  P                14         0.468065   0.488890   0.263793   x
            x  P                15         0.605372   0.458844   0.639075   x
            x  P                16         0.729790   0.583365   0.148218   x
            x  P                17         0.653919   0.339450   0.073655   x
            x  P                18         0.777969   0.463610   0.583044   x
            x  P                19         0.824793   0.342949   0.034668   x
            x  P                20         0.699814   0.218794   0.519631   x
            x  P                21         0.869076   0.220966   0.499183   x
            x  P                22         0.995367   0.346111  -0.001486   x
            x  P                23         0.911074   0.097478  -0.018100   x
            x  P                24         0.037506   0.222729   0.483348   x
            x  P                25         0.832750   0.862272   0.732235   x
            x  P                26         0.715531   0.735276   0.300889   x
            x  P                27         0.854082   0.710324   0.641749   x
            x  P                28         0.982019   0.839268   0.074286   x
            x  P                29         0.901852   0.588871   0.076080   x
            x  P                30         0.025028   0.716049   0.540576   x
            x  P                31         0.072667   0.593796   1.008767   x
            x  P                32         0.949083   0.467812   0.530859   x
            x  P                33         0.120070   0.471710   0.479810   x
            x  P                34         0.243977   0.598143   0.939031   x
            x  P                35         0.166784   0.348917   0.966179   x
            x  P                36         0.291190   0.477234   0.382386   x
            x  P                37         0.073790   0.093964  -0.001172   x
            x  P                38         0.949756   0.970339   0.534204   x
            x  P                39         0.109902   0.964220   0.531874   x
            x  P                40         0.236208   0.087176   0.022744   x
            x  P                41         0.151812   0.840717   1.014481   x
            x  P                42         0.278942   0.964647   0.507315   x
            x  P                43         0.322610   0.843429   0.974350   x
            x  P                44         0.196910   0.719188   0.483540   x
            x  P                45         0.368564   0.723089   0.426752   x
            x  P                46         0.493363   0.846928   0.931040   x
            x  P                47         0.415841   0.603370   0.866988   x
            x  P                48         0.540440   0.727548   0.370761   x
            x  In                1         0.269906   0.414678   0.878865   x
            x  In                2         0.141029   0.285966   0.472261   x
            x  In                3         0.299562   0.263821   0.601271   x
            x  In                4         0.411642   0.385377   0.244682   x
            x  In                5         0.340415   0.144524   0.040209   x
            x  In                6         0.467115   0.272275   0.605034   x
            x  In                7         0.510189   0.151374   0.047556   x
            x  In                8         0.383627   0.025193   0.516500   x
            x  In                9         0.553326   0.030333   0.495222   x
            x  In               10         0.678730   0.156724   0.014566   x
            x  In               11         0.597989   0.909729   0.941773   x
            x  In               12         0.722256   0.035626   0.464226   x
            x  In               13         0.521465   0.666002   0.864184   x
            x  In               14         0.396271   0.541520   0.361966   x
            x  In               15         0.532641   0.509215   0.752987   x
            x  In               16         0.656023   0.633041   0.264581   x
            x  In               17         0.587553   0.397164   0.134012   x
            x  In               18         0.710986   0.521393   0.644680   x
            x  In               19         0.758907   0.401833   0.078703   x
            x  In               20         0.635182   0.277717   0.568014   x
            x  In               21         0.804443   0.280766   0.531123   x
            x  In               22         0.929414   0.405633   0.028642   x
            x  In               23         0.847702   0.158351  -0.003509   x
            x  In               24         0.973156   0.283537   0.497489   x
            x  In               25         0.768097   0.912869   0.931146   x
            x  In               26         0.646053   0.789873   0.381419   x
            x  In               27         0.780116   0.760071   0.792752   x
            x  In               28         0.920669   0.904355   0.054734   x
            x  In               29         0.835199   0.647639   0.139745   x
            x  In               30         0.958149   0.776168   0.580161   x
            x  In               31         0.005927   0.653353   1.040679   x
            x  In               32         0.882673   0.526846   0.573094   x
            x  In               33         0.053313   0.531247   0.508116   x
            x  In               34         0.177030   0.656832   0.981613   x
            x  In               35         0.099910   0.409050   0.980416   x
            x  In               36         0.224012   0.535927   0.436302   x
            x  In               37         0.014514   0.159540   0.984231   x
            x  In               38         0.889746   0.034161   0.480134   x
            x  In               39         0.051541   0.030918   0.498563   x
            x  In               40         0.176798   0.151849  -0.001232   x
            x  In               41         0.086351   0.900821   1.035145   x
            x  In               42         0.213842   0.023905   0.522508   x
            x  In               43         0.256488   0.901955   1.005211   x
            x  In               44         0.129938   0.777982   0.514099   x
            x  In               45         0.301753   0.781193   0.471226   x
            x  In               46         0.427489   0.904945   0.976926   x
            x  In               47         0.348658   0.661175   0.922771   x
            x  In               48         0.473700   0.785102   0.425829   x
            xxxxxxxxxxxxxxxxxxxxxxxxxxxxxxxxxxxxxxxxxxxxxxxxxxxxxxxxxxxxxxxxx


------------------------------------------------------------------------ <-- SCF
SCF loop      Energy           Fermi           Energy gain       Timer   <-- SCF
                               energy          per atom          (sec)   <-- SCF
------------------------------------------------------------------------ <-- SCF
Initial  -9.43150525E+004  0.00000000E+000                     85521.14  <-- SCF
      1  -9.43150804E+004  3.62899598E+000   2.91458022E-004   85976.65  <-- SCF
      2  -9.43150805E+004  3.62899598E+000   1.01477557E-007   86338.04  <-- SCF
