 +-------------------------------------------------+
 |                                                 |
 |      CCC   AA    SSS  TTTTT  EEEEE  PPPP        |
 |     C     A  A  S       T    E      P   P       |
 |     C     AAAA   SS     T    EEE    PPPP        |
 |     C     A  A     S    T    E      P           |
 |      CCC  A  A  SSS     T    EEEEE  P           |
 |                                                 |
 +-------------------------------------------------+
 |                                                 |
 | Welcome to Academic Release CASTEP version 24.1 |
 | Ab Initio Total Energy Program                  |
 |                                                 |
 | Authors:                                        |
 | M. Segall, M. Probert, C. Pickard, P. Hasnip,   |
 | S. Clark, K. Refson, J. R. Yates,               |
 | A. Bartok-Partay, M. Payne                      |
 |                                                 |
 | Contributors:                                   |
 | P. Lindan, P. Haynes, J. White, V. Milman,      |
 | N. Govind, M. Gibson, P. Tulip, V. Cocula,      |
 | B. Montanari, D. Quigley, M. Glover,            |
 | L. Bernasconi, A. Perlov, M. Plummer,           |
 | E. McNellis, J. Meyer, J. Gale, D. Jochym       |
 | J. Aarons, B. Walker, R. Gillen, D. Jones       |
 | T. Green, I. J. Bush, C. J. Armstrong,          |
 | E. J. Higgins, E. L. Brown, M. S. McFly,        |
 | J. Wilkins, B-C. Shih, P. J. P. Byrne,          |
 | R. J. Maurer, J. C. Womack, J. Dziedzic,        |
 | L. LeBlanc, T. K. Stenczel, J. Kermode,         |
 | S. Sturniolo, B. Shi, B. Durham, M. Evans,      |
 | M. J. Smith, A. Tamerus, Z. Hawkhead,           |
 | V. Ravindran, T. Hollins, S. A. Joyce,          |
 | R. T. Strong, A. M. Reilly, S. J. Donaldson     |
 |                                                 |
 | Copyright (c) 2000 - 2023                       |
 |                                                 |
 |     Distributed under license from Cambridge    |
 |     Enterprise for academic use only.           |
 |                                                 |
 | Please cite                                     |
 |                                                 |
 |     "First principles methods using CASTEP"     |
 |                                                 |
 |         Zeitschrift fuer Kristallographie       |
 |           220(5-6) pp. 567-570 (2005)           |
 |                                                 |
 | S. J. Clark, M. D. Segall, C. J. Pickard,       |
 | P. J. Hasnip, M. J. Probert, K. Refson,         |
 | M. C. Payne                                     |
 |                                                 |
 |       in all publications arising from          |
 |              your use of CASTEP                 |
 |                                                 |
 +-------------------------------------------------+
 |                                                 |
 |              http://www.castep.org              |
 |                                                 |
 +-------------------------------------------------+



 Compiled for  GNU 11.2.0 on 04-04-2024 18:39:17
 from code version 6355fd106 Castep241_branch Thu Mar 7 17:56:19 2024 +0000
 Compiler: GNU Fortran 11.2.0; Optimisation: FAST
 Comms   : MPI VERSION : CRAY MPICH version 8.1.23.14 (ANL base 3.4a2)
 MATHLIBS: default (LAPACK version 3.10.1)
 FFT Lib : fftw3 version commercial-fftw-3.3.10-sse2-avx-avx2-avx2_128
 Fundamental constants values: CODATA 2018

 Run started: Wed, 30 Jul 2025 14:21:10 +0100

 Atomic calculation performed for P: 1s2 2s2 2p6 3s2 3p3

 Converged in 47 iterations to an ae energy of -9309.074 eV

   ============================================================                
   | Pseudopotential Report - Date of generation 30-07-2025   |                
   ------------------------------------------------------------                
   | Element: P Ionic charge:  5.00 Level of theory: RSCAN    |                
   | Atomic Solver: Koelling-Harmon                           |                
   |                                                          |                
   |               Reference Electronic Structure             |                
   |         Orbital         Occupation         Energy        |                
   |            3s              2.000           -0.535        |                
   |            3p              3.000           -0.209        |                
   |                                                          |                
   |                 Pseudopotential Definition               |                
   |        Beta     l      e      Rc     scheme   norm       |                
   |          1      0   -0.535   1.807     qc      0         |                
   |          2      0    0.250   1.807     qc      0         |                
   |          3      1   -0.209   1.807     qc      0         |                
   |          4      1    0.250   1.807     qc      0         |                
   |          5      2    0.000   1.807     qc      0         |                
   |          6      2    0.250   1.807     qc      0         |                
   |         loc     3    0.000   1.807     pn      0         |                
   |                                                          |                
   | Augmentation charge Rinner = 1.263                       |                
   | Partial core correction Rc = 1.263                       |                
   ------------------------------------------------------------                
   | "3|1.8|4|4|5|30:31:32"                                   |                
   ------------------------------------------------------------                
   |      Author: Chris J. Pickard, Cambridge University      |                
   ============================================================                
 Warning: otfg_output_psp cannot write out meta-GGA pseudopotentials presently.

 Atomic calculation performed for In:
 1s2 2s2 2p6 3s2 3p6 3d10 4s2 4p6 4d10 5s2 5p1

 Converged in 84 iterations to an ae energy of -160093.328 eV

   ============================================================                
   | Pseudopotential Report - Date of generation 30-07-2025   |                
   ------------------------------------------------------------                
   | Element: In Ionic charge: 13.00 Level of theory: RSCAN   |                
   | Atomic Solver: Koelling-Harmon                           |                
   |                                                          |                
   |               Reference Electronic Structure             |                
   |         Orbital         Occupation         Energy        |                
   |            4d             10.000           -0.711        |                
   |            5s              2.000           -0.313        |                
   |            5p              1.000           -0.095        |                
   |                                                          |                
   |                 Pseudopotential Definition               |                
   |        Beta     l      e      Rc     scheme   norm       |                
   |          1      0   -0.313   2.501     qc      0         |                
   |          2      0    0.250   2.501     qc      0         |                
   |          3      1   -0.095   2.501     qc      0         |                
   |          4      1    0.250   2.501     qc      0         |                
   |          5      2   -0.711   2.207     qc      0         |                
   |          6      2    0.250   2.207     qc      0         |                
   |         loc     3    0.000   2.501     pn      0         |                
   |                                                          |                
   | Augmentation charge Rinner = 1.504                       |                
   | Partial core correction Rc = 1.504                       |                
   ------------------------------------------------------------                
   | "3|2.5|2.5|1.5|7|8|9|50:51:42U2.2U2.2"                   |                
   ------------------------------------------------------------                
   |      Author: Chris J. Pickard, Cambridge University      |                
   ============================================================                
 Warning: otfg_output_psp cannot write out meta-GGA pseudopotentials presently.

 Pseudo atomic calculation performed for P 3s2 3p3

 Converged in 23 iterations to a total energy of -208.0292 eV

 Pseudo atomic calculation performed for In 4d10 5s2 5p1

 Converged in 42 iterations to a total energy of -1747.4501 eV
 Calculation parallelised over 120 processes.
 Data is distributed by G-vector(6-way) and k-point(20-way)
 Each process may use up to 16 threads.

 ************************************ Title ************************************
 

 ***************************** General Parameters ******************************
  
 output verbosity                               : normal  (1)
 write checkpoint data to                       : 30deg_Singlepoints_1.check
 type of calculation                            : single point energy
 stress calculation                             : off
 density difference calculation                 : off
 electron localisation func (ELF) calculation   : off
 Hirshfeld analysis                             : on
 polarisation (Berry phase) analysis            : off
 molecular orbital projected DOS                : off
 deltaSCF calculation                           : off
 unlimited duration calculation
 timing information                             : on
 memory usage estimate                          : on
 write extra output files                       : on
 write final potential to formatted file        : off
 write final density to formatted file          : off
 write BibTeX reference list                    : on
 write OTFG pseudopotential files               : on
 write electrostatic potential file             : on
 write bands file                               : on
 checkpoint writing                             : off
  
 output         length unit                     : A
 output           mass unit                     : amu
 output           time unit                     : ps
 output         charge unit                     : e
 output           spin unit                     : hbar/2
 output         energy unit                     : eV
 output          force unit                     : eV/A
 output       velocity unit                     : A/ps
 output       pressure unit                     : GPa
 output     inv_length unit                     : 1/A
 output      frequency unit                     : cm-1
 output force constant unit                     : eV/A**2
 output         volume unit                     : A**3
 output   IR intensity unit                     : (D/A)**2/amu
 output         dipole unit                     : D
 output         efield unit                     : eV/A/e
 output        entropy unit                     : J/mol/K
 output    efield chi2 unit                     : pm/V
  
 wavefunctions paging                           : none
 random number generator seed                   :  142110884
 data distribution                              : optimal for this architecture
 optimization strategy                          : balance speed and memory

 *********************** Exchange-Correlation Parameters ***********************
  
 using functional                               : RSCAN
 relativistic treatment                         : Koelling-Harmon
 DFT+D: Semi-empirical dispersion correction    : off

 ************************* Pseudopotential Parameters **************************
  
 pseudopotential representation                 : reciprocal space
 <beta|phi> representation                      : reciprocal space
 spin-orbit coupling                            : off

 **************************** Basis Set Parameters *****************************
  
 plane wave basis set cut-off                   :   900.0000   eV
 size of standard grid                          :     2.0000
 size of   fine   gmax                          :    30.7390   1/A
 finite basis set correction                    : none

 **************************** Electronic Parameters ****************************
  
 number of  electrons                           :  864.0    
 net charge of system                           :  0.000    
 treating system as non-spin-polarized
 number of bands                                :        518

 ********************* Electronic Minimization Parameters **********************
  
 Method: Treating system as metallic with density mixing treatment of electrons,
         and number of  SD  steps               :          1
         and number of  CG  steps               :          4
  
 total energy / atom convergence tol.           : 0.1000E-07   eV
 eigen-energy convergence tolerance             : 0.2222E-08   eV
 max force / atom convergence tol.              : ignored
 convergence tolerance window                   :          3   cycles
 max. number of SCF cycles                      :        100
 number of fixed-spin iterations                :         10
 smearing scheme                                : Gaussian
 smearing width                                 : 0.2000       eV
 Fermi energy convergence tolerance             : 0.2721E-13   eV
 periodic dipole correction                     : NONE

 ************************** Density Mixing Parameters **************************
  
 density-mixing scheme                          : Pulay
 max. length of mixing history                  :         20
 charge density mixing amplitude                : 0.5000    
 cut-off energy for mixing                      :  900.0       eV

 *********************** Population Analysis Parameters ************************
  
 Population analysis with cutoff                :  3.000       A
 Population analysis output                     : summary and pdos components

 *******************************************************************************
  

                           -------------------------------
                                      Unit Cell
                           -------------------------------
        Real Lattice(A)                      Reciprocal Lattice(1/A)
    14.4540490    20.4411120     0.0000000        0.217350353   0.153689910   0.000000000
    14.4540490   -20.4411120     0.0000000        0.217350353  -0.153689910   0.000000000
     0.0000000     0.0000000     4.1725250        0.000000000   0.000000000   1.505847252

                       Lattice parameters(A)       Cell Angles
                    a =     25.035147          alpha =   90.000000
                    b =     25.035147          beta  =   90.000000
                    c =      4.172525          gamma =  109.471220

                       Current cell volume =          2465.602056       A**3
                                   density =             2.838254   AMU/A**3
                                           =             4.713031     g/cm^3

                           -------------------------------
                                     Cell Contents
                           -------------------------------
                         Total number of ions in cell =   96
                      Total number of species in cell =    2
                        Max number of any one species =   48

            xxxxxxxxxxxxxxxxxxxxxxxxxxxxxxxxxxxxxxxxxxxxxxxxxxxxxxxxxxxx
            x  Element    Atom        Fractional coordinates of atoms  x
            x            Number           u          v          w      x
            x----------------------------------------------------------x
            x  P            1         0.344954   0.365273   0.743625   x 
            x  P            2         0.196209   0.215842   0.507312   x 
            x  P            3         0.363524   0.208309   0.542599   x 
            x  P            4         0.482558   0.334905   0.104813   x 
            x  P            5         0.406024   0.087839   0.020743   x 
            x  P            6         0.531042   0.213764   0.551250   x 
            x  P            7         0.574373   0.092817   0.002315   x 
            x  P            8         0.448745   0.967100   0.480522   x 
            x  P            9         0.617306   0.971890   0.452402   x 
            x  P           10         0.742998   0.095853  -0.005068   x 
            x  P           11         0.660149   0.850761   0.899249   x 
            x  P           12         0.784755   0.972526   0.482196   x 
            x  P           13         0.590825   0.611538   0.782569   x 
            x  P           14         0.468122   0.489474   0.254581   x 
            x  P           15         0.606020   0.459310   0.630310   x 
            x  P           16         0.729799   0.585417   0.138499   x 
            x  P           17         0.654163   0.339145   0.072367   x 
            x  P           18         0.777965   0.464598   0.576989   x 
            x  P           19         0.824461   0.343445   0.032508   x 
            x  P           20         0.699829   0.217880   0.525657   x 
            x  P           21         0.868601   0.221063   0.503469   x 
            x  P           22         0.994850   0.346830  -0.003309   x 
            x  P           23         0.910103   0.096905  -0.006471   x 
            x  P           24         0.036615   0.222550   0.488889   x 
            x  P           25         0.824387   0.846325   1.069013   x 
            x  P           26         0.710171   0.736522   0.242055   x 
            x  P           27         0.856687   0.714626   0.594785   x 
            x  P           28         0.984953   0.840555   0.040307   x 
            x  P           29         0.900816   0.591639   0.055319   x 
            x  P           30         0.026303   0.716568   0.524624   x 
            x  P           31         0.072153   0.594023   1.001544   x 
            x  P           32         0.948255   0.469237   0.522515   x 
            x  P           33         0.119589   0.471877   0.476703   x 
            x  P           34         0.243206   0.597936   0.935290   x 
            x  P           35         0.166446   0.348787   0.967952   x 
            x  P           36         0.290312   0.476892   0.380908   x 
            x  P           37         0.072102   0.092664   0.013379   x 
            x  P           38         0.948525   0.969642   0.509366   x 
            x  P           39         0.111147   0.964837   0.522002   x 
            x  P           40         0.236297   0.088219   0.021379   x 
            x  P           41         0.153125   0.841117   1.007428   x 
            x  P           42         0.279222   0.965474   0.505125   x 
            x  P           43         0.322442   0.843453   0.972162   x 
            x  P           44         0.196856   0.719032   0.478859   x 
            x  P           45         0.367357   0.722580   0.424151   x 
            x  P           46         0.492231   0.846545   0.931661   x 
            x  P           47         0.414574   0.602605   0.865328   x 
            x  P           48         0.537481   0.726365   0.373799   x 
            x  In           1         0.270100   0.414079   0.876977   x 
            x  In           2         0.140962   0.285880   0.474132   x 
            x  In           3         0.298756   0.264594   0.599828   x 
            x  In           4         0.410973   0.386100   0.231500   x 
            x  In           5         0.340923   0.146096   0.037991   x 
            x  In           6         0.466722   0.272861   0.597414   x 
            x  In           7         0.509647   0.151842   0.045358   x 
            x  In           8         0.383954   0.026079   0.516552   x 
            x  In           9         0.552550   0.030878   0.497071   x 
            x  In          10         0.678530   0.155699   0.021461   x 
            x  In          11         0.596037   0.909957   0.945840   x 
            x  In          12         0.721525   0.033628   0.491823   x 
            x  In          13         0.519811   0.664670   0.865950   x 
            x  In          14         0.395268   0.540724   0.359364   x 
            x  In          15         0.532172   0.508673   0.743490   x 
            x  In          16         0.655104   0.634012   0.274269   x 
            x  In          17         0.587476   0.396984   0.125656   x 
            x  In          18         0.711233   0.522645   0.635766   x 
            x  In          19         0.758559   0.402435   0.073541   x 
            x  In          20         0.634908   0.277121   0.567529   x 
            x  In          21         0.803997   0.281151   0.529704   x 
            x  In          22         0.929065   0.406645   0.021420   x 
            x  In          23         0.847183   0.158624   0.001651   x 
            x  In          24         0.973004   0.284085   0.496461   x 
            x  In          25         0.764619   0.909659   0.980068   x 
            x  In          26         0.642267   0.787872   0.390853   x 
            x  In          27         0.793162   0.777348   0.608239   x 
            x  In          28         0.926560   0.907109   1.009689   x 
            x  In          29         0.834102   0.651366   0.098408   x 
            x  In          30         0.961462   0.777556   0.544391   x 
            x  In          31         0.005858   0.653732   1.025055   x 
            x  In          32         0.882134   0.528958   0.554563   x 
            x  In          33         0.053147   0.531325   0.501266   x 
            x  In          34         0.176751   0.656661   0.977093   x 
            x  In          35         0.100169   0.409149   0.977725   x 
            x  In          36         0.223879   0.535575   0.432567   x 
            x  In          37         0.014094   0.159564   0.990736   x 
            x  In          38         0.888606   0.034301   0.493313   x 
            x  In          39         0.051987   0.030362   0.515249   x 
            x  In          40         0.175630   0.152121   0.008583   x 
            x  In          41         0.089287   0.902112   1.022552   x 
            x  In          42         0.215171   0.025885   0.520414   x 
            x  In          43         0.257587   0.903154   1.002732   x 
            x  In          44         0.131182   0.778550   0.506455   x 
            x  In          45         0.301426   0.781293   0.469039   x 
            x  In          46         0.426965   0.905238   0.976021   x 
            x  In          47         0.347817   0.660571   0.919841   x 
            x  In          48         0.471724   0.784725   0.426280   x 
            xxxxxxxxxxxxxxxxxxxxxxxxxxxxxxxxxxxxxxxxxxxxxxxxxxxxxxxxxxxx


                         No user defined ionic velocities

                           -------------------------------
                                   Details of Species
                           -------------------------------

                               Mass of species in AMU
                                    P   30.9737600
                                    In  114.8180000

                          Electric Quadrupole Moment (Barn)
                                    P    1.0000000 No Isotope Defined
                                    In    0.7700000 Isotope115

                          Files used for pseudopotentials:
                                    P 3|1.8|4|4|5|30:31:32
                                    In 3|2.5|2.5|1.5|7|8|9|50:51:42U2.2U2.2

                           -------------------------------
                              k-Points For BZ Sampling
                           -------------------------------
                       MP grid size for SCF calculation is  2  2  8
                            with an offset of   0.250  0.250  0.062
                       Number of kpoints used =            20

                           -------------------------------
                               Symmetry and Constraints
                           -------------------------------

                      Maximum deviation from symmetry =  0.00000         ANG

                      Number of symmetry operations   =           1
                      Number of ionic constraints     =           3
                      Point group of crystal =     1: C1, 1, 1
                      Space group of crystal =     1: P1, P 1

             Set iprint > 1 for details on symmetry rotations/translations

                         Centre of mass is constrained
             Set iprint > 1 for details of linear ionic constraints

                         Number of cell constraints= 0
                         Cell constraints are:  1 2 3 4 5 6

                         External pressure/stress (GPa)
                          0.00000   0.00000   0.00000
                                    0.00000   0.00000
                                              0.00000
 
+---------------- MEMORY AND SCRATCH DISK ESTIMATES PER PROCESS --------------+
|                                                     Memory          Disk    |
| Baseline code, static data and system overhead      368.0 MB         0.0 MB |
| BLAS internal memory storage                          0.0 MB         0.0 MB |
| Model and support data                             3663.9 MB         0.0 MB |
| Electronic energy minimisation requirements         956.3 MB         0.0 MB |
| Force calculation requirements                       70.0 MB         0.0 MB |
|                                               ----------------------------- |
| Approx. total storage required per process         4988.2 MB         0.0 MB |
|                                                                             |
| Requirements will fluctuate during execution and may exceed these estimates |
+-----------------------------------------------------------------------------+
Calculating approximate eigenstates for fixed initial Hamiltonian
Cut-off for approx. calculation is   89.988 eV
Improving approx. states at cut-off of  450.000 eV
Resetting cut-off to  900.000 eV
Calculating total energy with cut-off of  900.000 eV.
------------------------------------------------------------------------ <-- SCF
SCF loop      Energy           Fermi           Energy gain       Timer   <-- SCF
                               energy          per atom          (sec)   <-- SCF
------------------------------------------------------------------------ <-- SCF
Initial  -9.45644083E+004  0.00000000E+000                       366.02  <-- SCF
      1  -9.42049863E+004  2.65841173E+000  -3.74397893E+000     703.10  <-- SCF
      2  -9.42054404E+004  2.65786732E+000   4.73008557E-003     931.12  <-- SCF
      3  -9.43049631E+004  3.04968457E+000   1.03669494E+000    1185.88  <-- SCF
      4  -9.43226640E+004  3.15336980E+000   1.84384474E-001    1560.65  <-- SCF
      5  -9.43136592E+004  3.51332502E+000  -9.38005250E-002    1812.85  <-- SCF
      6  -9.43132923E+004  3.59331904E+000  -3.82147655E-003    2069.55  <-- SCF
      7  -9.43130975E+004  3.62919583E+000  -2.02977300E-003    2335.17  <-- SCF
      8  -9.43148018E+004  3.61570331E+000   1.77530902E-002    2590.60  <-- SCF
      9  -9.43152100E+004  3.58487126E+000   4.25220366E-003    2860.88  <-- SCF
     10  -9.43151138E+004  3.60421218E+000  -1.00226585E-003    3136.72  <-- SCF
     11  -9.43153587E+004  3.59441637E+000   2.55140924E-003    3401.21  <-- SCF
     12  -9.43154163E+004  3.59602178E+000   6.00244154E-004    3678.69  <-- SCF
     13  -9.43154170E+004  3.59521993E+000   6.63069313E-006    3956.68  <-- SCF
     14  -9.43154168E+004  3.59562790E+000  -1.24350585E-006    4236.87  <-- SCF
     15  -9.43154170E+004  3.59567585E+000   1.33061464E-006    4476.43  <-- SCF
     16  -9.43154170E+004  3.59569649E+000   5.45519982E-007    4724.89  <-- SCF
     17  -9.43154170E+004  3.59576794E+000  -4.12695988E-009    4940.66  <-- SCF
     18  -9.43154170E+004  3.59583153E+000  -6.23019228E-008    5141.13  <-- SCF
     19  -9.43154170E+004  3.59586017E+000   5.33725722E-008    5353.27  <-- SCF
     20  -9.43154170E+004  3.59584551E+000  -1.19089803E-009    5537.98  <-- SCF
     21  -9.43154170E+004  3.59584207E+000  -1.87419173E-010    5719.67  <-- SCF
------------------------------------------------------------------------ <-- SCF
 
Final energy, E             =  -94315.37426342     eV
Final free energy (E-TS)    =  -94315.41701412     eV
(energies not corrected for finite basis set)
 
NB est. 0K energy (E-0.5TS)      =  -94315.39563877     eV
 

 ************************** Forces **************************
 *                                                          *
 *               Cartesian components (eV/A)                *
 * -------------------------------------------------------- *
 *                         x            y            z      *
 *                                                          *
 * P               1     -0.13480     -0.01164      0.07955 *
 * P               2      0.09296     -0.00487     -0.03624 *
 * P               3      0.05191     -0.07588     -0.05602 *
 * P               4     -0.10153     -0.04380      0.01783 *
 * P               5      0.04889     -0.08213     -0.01829 *
 * P               6     -0.04328     -0.07126      0.01640 *
 * P               7     -0.01239     -0.09245      0.00429 *
 * P               8      0.01742     -0.09772      0.00574 *
 * P               9     -0.00448     -0.12498      0.00791 *
 * P              10      0.02988     -0.05823      0.00526 *
 * P              11     -0.01247     -0.08842      0.01904 *
 * P              12      0.05541     -0.05036      0.01643 *
 * P              13     -0.13526      0.02862      0.00554 *
 * P              14     -0.15863     -0.01241      0.01428 *
 * P              15     -0.12046      0.00396     -0.00246 *
 * P              16     -0.08468      0.04717     -0.01641 *
 * P              17     -0.06978     -0.02903     -0.00529 *
 * P              18     -0.05778      0.04392     -0.00193 *
 * P              19     -0.00820      0.03429      0.00273 *
 * P              20     -0.01688     -0.03029      0.00851 *
 * P              21      0.04708      0.02496      0.00884 *
 * P              22      0.03244      0.06439      0.00383 *
 * P              23      0.10859      0.00672      0.01382 *
 * P              24      0.09844      0.06242     -0.00675 *
 * P              25      0.00829      0.04618      0.06048 *
 * P              26     -0.04172     -0.07728     -0.04592 *
 * P              27      0.04993      0.11776     -0.06218 *
 * P              28      0.10057      0.05301     -0.00376 *
 * P              29     -0.00940      0.06218     -0.02518 *
 * P              30      0.04911      0.08876     -0.00831 *
 * P              31      0.00757      0.06971     -0.00899 *
 * P              32      0.00013      0.06354     -0.00820 *
 * P              33     -0.00003      0.08597     -0.00210 *
 * P              34     -0.03889      0.06226      0.00604 *
 * P              35      0.01533      0.06668     -0.01256 *
 * P              36     -0.05563      0.09268     -0.02485 *
 * P              37      0.16217     -0.01567      0.00098 *
 * P              38      0.15861      0.04912      0.02498 *
 * P              39      0.09356      0.00231      0.00105 *
 * P              40      0.10672     -0.06395     -0.01113 *
 * P              41      0.04957      0.02029     -0.00805 *
 * P              42      0.05289     -0.02933      0.00148 *
 * P              43      0.01337     -0.04315      0.00517 *
 * P              44      0.00794      0.02563      0.00176 *
 * P              45     -0.05787     -0.03690      0.00744 *
 * P              46     -0.03292     -0.09841      0.01058 *
 * P              47     -0.10024     -0.01632     -0.01716 *
 * P              48     -0.09217     -0.08231     -0.00667 *
 * In              1      0.00877     -0.13209      0.00713 *
 * In              2     -0.08852     -0.08835      0.01409 *
 * In              3     -0.02884      0.07505      0.00674 *
 * In              4      0.15932      0.10827     -0.04320 *
 * In              5     -0.11892      0.06072      0.04089 *
 * In              6      0.05956      0.02713      0.00316 *
 * In              7      0.03489      0.07721     -0.01302 *
 * In              8     -0.06480      0.06755     -0.00046 *
 * In              9      0.02401      0.11841     -0.00875 *
 * In             10      0.02576      0.06468      0.00870 *
 * In             11      0.04973      0.15782      0.00969 *
 * In             12     -0.01421      0.10228      0.00508 *
 * In             13      0.11570      0.03326      0.01649 *
 * In             14      0.08393     -0.00151      0.01597 *
 * In             15      0.15870      0.00088      0.02004 *
 * In             16      0.11532     -0.05683      0.00131 *
 * In             17      0.14303     -0.00460      0.00527 *
 * In             18      0.11362     -0.05899     -0.00673 *
 * In             19      0.07724     -0.01754     -0.00881 *
 * In             20      0.08202      0.03596     -0.00506 *
 * In             21      0.01515     -0.00565      0.00163 *
 * In             22      0.00260     -0.07048     -0.00191 *
 * In             23     -0.04778      0.00222      0.00484 *
 * In             24     -0.04674     -0.07562      0.00744 *
 * In             25     -0.03892      0.06636     -0.01188 *
 * In             26      0.07146      0.12575      0.09433 *
 * In             27      0.06813     -0.12919     -0.11469 *
 * In             28     -0.12914     -0.09575     -0.00873 *
 * In             29      0.06745     -0.08472     -0.00125 *
 * In             30     -0.10449     -0.03161      0.01301 *
 * In             31     -0.01883     -0.06082      0.00868 *
 * In             32      0.03105     -0.04703     -0.00386 *
 * In             33     -0.01891     -0.09117      0.00218 *
 * In             34     -0.01097     -0.05106     -0.00657 *
 * In             35     -0.04660     -0.10520      0.00554 *
 * In             36      0.00063     -0.11507      0.00142 *
 * In             37     -0.10582     -0.03038      0.00231 *
 * In             38     -0.09833      0.00532     -0.00338 *
 * In             39     -0.17819     -0.01092     -0.03109 *
 * In             40     -0.12776      0.09264      0.02440 *
 * In             41     -0.10756     -0.00351      0.00002 *
 * In             42     -0.11603      0.04571     -0.00076 *
 * In             43     -0.07135      0.03147     -0.00451 *
 * In             44     -0.05313     -0.01928      0.00067 *
 * In             45     -0.01569      0.02139     -0.00712 *
 * In             46     -0.01354      0.08803     -0.00129 *
 * In             47      0.03885     -0.01321      0.00127 *
 * In             48      0.04885      0.10671     -0.00073 *
 *                                                          *
 ************************************************************

 Pseudo atomic calculation performed for P 3s2 3p3

 Converged in 23 iterations to a total energy of -208.0292 eV

 Pseudo atomic calculation performed for In 4d10 5s2 5p1

 Converged in 42 iterations to a total energy of -1747.4501 eV
Charge spilling parameter for spin component 1 = 0.16%

            Orbital Populations       
     Ion    Atom   Orbital             Charge
  -------------------------------------------
      P     1      S                    1.744
      P     1      Px                   1.280
      P     1      Py                   1.329
      P     1      Pz                   1.317
      P     2      S                    1.740
      P     2      Px                   1.269
      P     2      Py                   1.333
      P     2      Pz                   1.328
      P     3      S                    1.735
      P     3      Px                   1.349
      P     3      Py                   1.264
      P     3      Pz                   1.327
      P     4      S                    1.739
      P     4      Px                   1.327
      P     4      Py                   1.303
      P     4      Pz                   1.302
      P     5      S                    1.733
      P     5      Px                   1.322
      P     5      Py                   1.295
      P     5      Pz                   1.326
      P     6      S                    1.733
      P     6      Px                   1.324
      P     6      Py                   1.301
      P     6      Pz                   1.317
      P     7      S                    1.733
      P     7      Px                   1.315
      P     7      Py                   1.308
      P     7      Pz                   1.319
      P     8      S                    1.732
      P     8      Px                   1.316
      P     8      Py                   1.307
      P     8      Pz                   1.320
      P     9      S                    1.733
      P     9      Px                   1.314
      P     9      Py                   1.307
      P     9      Pz                   1.320
      P    10      S                    1.734
      P    10      Px                   1.309
      P    10      Py                   1.310
      P    10      Pz                   1.322
      P    11      S                    1.733
      P    11      Px                   1.322
      P    11      Py                   1.290
      P    11      Pz                   1.320
      P    12      S                    1.734
      P    12      Px                   1.304
      P    12      Py                   1.300
      P    12      Pz                   1.329
      P    13      S                    1.738
      P    13      Px                   1.300
      P    13      Py                   1.301
      P    13      Pz                   1.324
      P    14      S                    1.739
      P    14      Px                   1.291
      P    14      Py                   1.313
      P    14      Pz                   1.324
      P    15      S                    1.739
      P    15      Px                   1.315
      P    15      Py                   1.315
      P    15      Pz                   1.302
      P    16      S                    1.743
      P    16      Px                   1.293
      P    16      Py                   1.336
      P    16      Pz                   1.295
      P    17      S                    1.735
      P    17      Px                   1.317
      P    17      Py                   1.309
      P    17      Pz                   1.310
      P    18      S                    1.737
      P    18      Px                   1.310
      P    18      Py                   1.317
      P    18      Pz                   1.307
      P    19      S                    1.736
      P    19      Px                   1.310
      P    19      Py                   1.315
      P    19      Pz                   1.312
      P    20      S                    1.734
      P    20      Px                   1.313
      P    20      Py                   1.311
      P    20      Pz                   1.317
      P    21      S                    1.735
      P    21      Px                   1.305
      P    21      Py                   1.316
      P    21      Pz                   1.318
      P    22      S                    1.739
      P    22      Px                   1.304
      P    22      Py                   1.315
      P    22      Pz                   1.313
      P    23      S                    1.735
      P    23      Px                   1.300
      P    23      Py                   1.314
      P    23      Pz                   1.325
      P    24      S                    1.738
      P    24      Px                   1.294
      P    24      Py                   1.323
      P    24      Pz                   1.317
      P    25      S                    1.759
      P    25      Px                   1.257
      P    25      Py                   1.279
      P    25      Pz                   1.335
      P    26      S                    1.776
      P    26      Px                   1.244
      P    26      Py                   1.247
      P    26      Pz                   1.358
      P    27      S                    1.742
      P    27      Px                   1.286
      P    27      Py                   1.338
      P    27      Pz                   1.304
      P    28      S                    1.737
      P    28      Px                   1.291
      P    28      Py                   1.327
      P    28      Pz                   1.314
      P    29      S                    1.741
      P    29      Px                   1.302
      P    29      Py                   1.321
      P    29      Pz                   1.305
      P    30      S                    1.739
      P    30      Px                   1.299
      P    30      Py                   1.321
      P    30      Pz                   1.312
      P    31      S                    1.739
      P    31      Px                   1.308
      P    31      Py                   1.314
      P    31      Pz                   1.310
      P    32      S                    1.739
      P    32      Px                   1.308
      P    32      Py                   1.315
      P    32      Pz                   1.310
      P    33      S                    1.739
      P    33      Px                   1.310
      P    33      Py                   1.314
      P    33      Pz                   1.308
      P    34      S                    1.737
      P    34      Px                   1.314
      P    34      Py                   1.314
      P    34      Pz                   1.305
      P    35      S                    1.743
      P    35      Px                   1.300
      P    35      Py                   1.323
      P    35      Pz                   1.304
      P    36      S                    1.740
      P    36      Px                   1.312
      P    36      Py                   1.319
      P    36      Pz                   1.295
      P    37      S                    1.735
      P    37      Px                   1.290
      P    37      Py                   1.319
      P    37      Pz                   1.329
      P    38      S                    1.734
      P    38      Px                   1.298
      P    38      Py                   1.309
      P    38      Pz                   1.330
      P    39      S                    1.735
      P    39      Px                   1.301
      P    39      Py                   1.313
      P    39      Pz                   1.324
      P    40      S                    1.733
      P    40      Px                   1.311
      P    40      Py                   1.301
      P    40      Pz                   1.330
      P    41      S                    1.735
      P    41      Px                   1.305
      P    41      Py                   1.316
      P    41      Pz                   1.318
      P    42      S                    1.734
      P    42      Px                   1.312
      P    42      Py                   1.307
      P    42      Pz                   1.322
      P    43      S                    1.734
      P    43      Px                   1.313
      P    43      Py                   1.311
      P    43      Pz                   1.316
      P    44      S                    1.736
      P    44      Px                   1.310
      P    44      Py                   1.315
      P    44      Pz                   1.312
      P    45      S                    1.735
      P    45      Px                   1.318
      P    45      Py                   1.311
      P    45      Pz                   1.309
      P    46      S                    1.733
      P    46      Px                   1.319
      P    46      Py                   1.307
      P    46      Pz                   1.314
      P    47      S                    1.735
      P    47      Px                   1.323
      P    47      Py                   1.312
      P    47      Pz                   1.301
      P    48      S                    1.732
      P    48      Px                   1.332
      P    48      Py                   1.303
      P    48      Pz                   1.305
     In     1      Dzz                  1.998
     In     1      Dzy                  1.998
     In     1      Dzx                  1.998
     In     1      Dxx-yy               1.998
     In     1      Dxy                  1.999
     In     1      S                    1.430
     In     1      Px                   0.478
     In     1      Py                   0.445
     In     1      Pz                   0.493
     In     1      S                   -0.506
     In     2      Dzz                  1.998
     In     2      Dzy                  1.999
     In     2      Dzx                  1.998
     In     2      Dxx-yy               1.997
     In     2      Dxy                  1.998
     In     2      S                    1.433
     In     2      Px                   0.497
     In     2      Py                   0.460
     In     2      Pz                   0.481
     In     2      S                   -0.517
     In     3      Dzz                  1.996
     In     3      Dzy                  1.999
     In     3      Dzx                  1.998
     In     3      Dxx-yy               1.996
     In     3      Dxy                  1.997
     In     3      S                    1.490
     In     3      Px                   0.499
     In     3      Py                   0.521
     In     3      Pz                   0.398
     In     3      S                   -0.537
     In     4      Dzz                  1.998
     In     4      Dzy                  1.998
     In     4      Dzx                  1.998
     In     4      Dxx-yy               1.997
     In     4      Dxy                  1.998
     In     4      S                    1.431
     In     4      Px                   0.497
     In     4      Py                   0.480
     In     4      Pz                   0.450
     In     4      S                   -0.506
     In     5      Dzz                  1.997
     In     5      Dzy                  1.999
     In     5      Dzx                  1.998
     In     5      Dxx-yy               1.997
     In     5      Dxy                  1.998
     In     5      S                    1.429
     In     5      Px                   0.479
     In     5      Py                   0.502
     In     5      Pz                   0.468
     In     5      S                   -0.536
     In     6      Dzz                  1.998
     In     6      Dzy                  1.998
     In     6      Dzx                  1.998
     In     6      Dxx-yy               1.997
     In     6      Dxy                  1.998
     In     6      S                    1.418
     In     6      Px                   0.463
     In     6      Py                   0.493
     In     6      Pz                   0.492
     In     6      S                   -0.518
     In     7      Dzz                  1.997
     In     7      Dzy                  1.998
     In     7      Dzx                  1.998
     In     7      Dxx-yy               1.997
     In     7      Dxy                  1.998
     In     7      S                    1.422
     In     7      Px                   0.475
     In     7      Py                   0.493
     In     7      Pz                   0.482
     In     7      S                   -0.539
     In     8      Dzz                  1.997
     In     8      Dzy                  1.998
     In     8      Dzx                  1.998
     In     8      Dxx-yy               1.997
     In     8      Dxy                  1.998
     In     8      S                    1.428
     In     8      Px                   0.480
     In     8      Py                   0.493
     In     8      Pz                   0.477
     In     8      S                   -0.546
     In     9      Dzz                  1.997
     In     9      Dzy                  1.998
     In     9      Dzx                  1.998
     In     9      Dxx-yy               1.997
     In     9      Dxy                  1.998
     In     9      S                    1.425
     In     9      Px                   0.476
     In     9      Py                   0.494
     In     9      Pz                   0.480
     In     9      S                   -0.540
     In    10      Dzz                  1.997
     In    10      Dzy                  1.998
     In    10      Dzx                  1.998
     In    10      Dxx-yy               1.997
     In    10      Dxy                  1.998
     In    10      S                    1.423
     In    10      Px                   0.476
     In    10      Py                   0.489
     In    10      Pz                   0.481
     In    10      S                   -0.536
     In    11      Dzz                  1.997
     In    11      Dzy                  1.998
     In    11      Dzx                  1.998
     In    11      Dxx-yy               1.997
     In    11      Dxy                  1.998
     In    11      S                    1.428
     In    11      Px                   0.473
     In    11      Py                   0.501
     In    11      Pz                   0.479
     In    11      S                   -0.544
     In    12      Dzz                  1.997
     In    12      Dzy                  1.998
     In    12      Dzx                  1.998
     In    12      Dxx-yy               1.997
     In    12      Dxy                  1.998
     In    12      S                    1.427
     In    12      Px                   0.476
     In    12      Py                   0.492
     In    12      Pz                   0.477
     In    12      S                   -0.539
     In    13      Dzz                  1.998
     In    13      Dzy                  1.998
     In    13      Dzx                  1.998
     In    13      Dxx-yy               1.997
     In    13      Dxy                  1.998
     In    13      S                    1.430
     In    13      Px                   0.459
     In    13      Py                   0.484
     In    13      Pz                   0.493
     In    13      S                   -0.538
     In    14      Dzz                  1.998
     In    14      Dzy                  1.998
     In    14      Dzx                  1.998
     In    14      Dxx-yy               1.998
     In    14      Dxy                  1.999
     In    14      S                    1.424
     In    14      Px                   0.468
     In    14      Py                   0.469
     In    14      Pz                   0.497
     In    14      S                   -0.511
     In    15      Dzz                  1.998
     In    15      Dzy                  1.998
     In    15      Dzx                  1.998
     In    15      Dxx-yy               1.997
     In    15      Dxy                  1.998
     In    15      S                    1.435
     In    15      Px                   0.498
     In    15      Py                   0.471
     In    15      Pz                   0.462
     In    15      S                   -0.527
     In    16      Dzz                  1.998
     In    16      Dzy                  1.998
     In    16      Dzx                  1.998
     In    16      Dxx-yy               1.997
     In    16      Dxy                  1.998
     In    16      S                    1.442
     In    16      Px                   0.515
     In    16      Py                   0.453
     In    16      Pz                   0.468
     In    16      S                   -0.528
     In    17      Dzz                  1.998
     In    17      Dzy                  1.998
     In    17      Dzx                  1.998
     In    17      Dxx-yy               1.997
     In    17      Dxy                  1.998
     In    17      S                    1.410
     In    17      Px                   0.464
     In    17      Py                   0.482
     In    17      Pz                   0.498
     In    17      S                   -0.521
     In    18      Dzz                  1.998
     In    18      Dzy                  1.998
     In    18      Dzx                  1.998
     In    18      Dxx-yy               1.997
     In    18      Dxy                  1.998
     In    18      S                    1.414
     In    18      Px                   0.468
     In    18      Py                   0.475
     In    18      Pz                   0.496
     In    18      S                   -0.502
     In    19      Dzz                  1.998
     In    19      Dzy                  1.998
     In    19      Dzx                  1.998
     In    19      Dxx-yy               1.997
     In    19      Dxy                  1.998
     In    19      S                    1.416
     In    19      Px                   0.474
     In    19      Py                   0.479
     In    19      Pz                   0.491
     In    19      S                   -0.519
     In    20      Dzz                  1.998
     In    20      Dzy                  1.998
     In    20      Dzx                  1.998
     In    20      Dxx-yy               1.997
     In    20      Dxy                  1.998
     In    20      S                    1.420
     In    20      Px                   0.472
     In    20      Py                   0.487
     In    20      Pz                   0.489
     In    20      S                   -0.532
     In    21      Dzz                  1.998
     In    21      Dzy                  1.998
     In    21      Dzx                  1.998
     In    21      Dxx-yy               1.997
     In    21      Dxy                  1.998
     In    21      S                    1.420
     In    21      Px                   0.479
     In    21      Py                   0.481
     In    21      Pz                   0.485
     In    21      S                   -0.527
     In    22      Dzz                  1.998
     In    22      Dzy                  1.998
     In    22      Dzx                  1.998
     In    22      Dxx-yy               1.997
     In    22      Dxy                  1.998
     In    22      S                    1.418
     In    22      Px                   0.480
     In    22      Py                   0.474
     In    22      Pz                   0.486
     In    22      S                   -0.516
     In    23      Dzz                  1.997
     In    23      Dzy                  1.998
     In    23      Dzx                  1.998
     In    23      Dxx-yy               1.997
     In    23      Dxy                  1.998
     In    23      S                    1.423
     In    23      Px                   0.484
     In    23      Py                   0.483
     In    23      Pz                   0.478
     In    23      S                   -0.531
     In    24      Dzz                  1.998
     In    24      Dzy                  1.998
     In    24      Dzx                  1.998
     In    24      Dxx-yy               1.997
     In    24      Dxy                  1.998
     In    24      S                    1.418
     In    24      Px                   0.487
     In    24      Py                   0.475
     In    24      Pz                   0.483
     In    24      S                   -0.523
     In    25      Dzz                  1.998
     In    25      Dzy                  1.998
     In    25      Dzx                  1.998
     In    25      Dxx-yy               1.997
     In    25      Dxy                  1.998
     In    25      S                    1.411
     In    25      Px                   0.472
     In    25      Py                   0.497
     In    25      Pz                   0.474
     In    25      S                   -0.497
     In    26      Dzz                  1.998
     In    26      Dzy                  1.998
     In    26      Dzx                  1.998
     In    26      Dxx-yy               1.997
     In    26      Dxy                  1.998
     In    26      S                    1.419
     In    26      Px                   0.457
     In    26      Py                   0.511
     In    26      Pz                   0.483
     In    26      S                   -0.504
     In    27      Dzz                  1.999
     In    27      Dzy                  1.998
     In    27      Dzx                  1.996
     In    27      Dxx-yy               1.998
     In    27      Dxy                  1.999
     In    27      S                    1.389
     In    27      Px                   0.499
     In    27      Py                   0.452
     In    27      Pz                   0.461
     In    27      S                   -0.483
     In    28      Dzz                  1.997
     In    28      Dzy                  1.998
     In    28      Dzx                  1.998
     In    28      Dxx-yy               1.997
     In    28      Dxy                  1.998
     In    28      S                    1.439
     In    28      Px                   0.511
     In    28      Py                   0.479
     In    28      Pz                   0.470
     In    28      S                   -0.540
     In    29      Dzz                  1.998
     In    29      Dzy                  1.998
     In    29      Dzx                  1.998
     In    29      Dxx-yy               1.998
     In    29      Dxy                  1.999
     In    29      S                    1.428
     In    29      Px                   0.481
     In    29      Py                   0.457
     In    29      Pz                   0.484
     In    29      S                   -0.510
     In    30      Dzz                  1.998
     In    30      Dzy                  1.999
     In    30      Dzx                  1.998
     In    30      Dxx-yy               1.997
     In    30      Dxy                  1.998
     In    30      S                    1.428
     In    30      Px                   0.490
     In    30      Py                   0.467
     In    30      Pz                   0.474
     In    30      S                   -0.526
     In    31      Dzz                  1.998
     In    31      Dzy                  1.998
     In    31      Dzx                  1.998
     In    31      Dxx-yy               1.997
     In    31      Dxy                  1.998
     In    31      S                    1.419
     In    31      Px                   0.483
     In    31      Py                   0.471
     In    31      Pz                   0.483
     In    31      S                   -0.519
     In    32      Dzz                  1.998
     In    32      Dzy                  1.998
     In    32      Dzx                  1.998
     In    32      Dxx-yy               1.997
     In    32      Dxy                  1.998
     In    32      S                    1.419
     In    32      Px                   0.478
     In    32      Py                   0.471
     In    32      Pz                   0.488
     In    32      S                   -0.513
     In    33      Dzz                  1.998
     In    33      Dzy                  1.998
     In    33      Dzx                  1.998
     In    33      Dxx-yy               1.997
     In    33      Dxy                  1.998
     In    33      S                    1.419
     In    33      Px                   0.482
     In    33      Py                   0.472
     In    33      Pz                   0.486
     In    33      S                   -0.515
     In    34      Dzz                  1.998
     In    34      Dzy                  1.998
     In    34      Dzx                  1.998
     In    34      Dxx-yy               1.997
     In    34      Dxy                  1.998
     In    34      S                    1.421
     In    34      Px                   0.482
     In    34      Py                   0.475
     In    34      Pz                   0.486
     In    34      S                   -0.520
     In    35      Dzz                  1.998
     In    35      Dzy                  1.998
     In    35      Dzx                  1.998
     In    35      Dxx-yy               1.997
     In    35      Dxy                  1.998
     In    35      S                    1.415
     In    35      Px                   0.483
     In    35      Py                   0.467
     In    35      Pz                   0.487
     In    35      S                   -0.508
     In    36      Dzz                  1.998
     In    36      Dzy                  1.998
     In    36      Dzx                  1.998
     In    36      Dxx-yy               1.997
     In    36      Dxy                  1.998
     In    36      S                    1.420
     In    36      Px                   0.479
     In    36      Py                   0.472
     In    36      Pz                   0.491
     In    36      S                   -0.514
     In    37      Dzz                  1.998
     In    37      Dzy                  1.999
     In    37      Dzx                  1.998
     In    37      Dxx-yy               1.997
     In    37      Dxy                  1.998
     In    37      S                    1.422
     In    37      Px                   0.494
     In    37      Py                   0.475
     In    37      Pz                   0.473
     In    37      S                   -0.525
     In    38      Dzz                  1.997
     In    38      Dzy                  1.998
     In    38      Dzx                  1.998
     In    38      Dxx-yy               1.997
     In    38      Dxy                  1.998
     In    38      S                    1.424
     In    38      Px                   0.489
     In    38      Py                   0.484
     In    38      Pz                   0.471
     In    38      S                   -0.539
     In    39      Dzz                  1.997
     In    39      Dzy                  1.998
     In    39      Dzx                  1.998
     In    39      Dxx-yy               1.997
     In    39      Dxy                  1.998
     In    39      S                    1.430
     In    39      Px                   0.496
     In    39      Py                   0.484
     In    39      Pz                   0.469
     In    39      S                   -0.539
     In    40      Dzz                  1.997
     In    40      Dzy                  1.998
     In    40      Dzx                  1.998
     In    40      Dxx-yy               1.997
     In    40      Dxy                  1.998
     In    40      S                    1.431
     In    40      Px                   0.496
     In    40      Py                   0.492
     In    40      Pz                   0.457
     In    40      S                   -0.512
     In    41      Dzz                  1.997
     In    41      Dzy                  1.998
     In    41      Dzx                  1.998
     In    41      Dxx-yy               1.997
     In    41      Dxy                  1.998
     In    41      S                    1.425
     In    41      Px                   0.493
     In    41      Py                   0.479
     In    41      Pz                   0.471
     In    41      S                   -0.532
     In    42      Dzz                  1.997
     In    42      Dzy                  1.998
     In    42      Dzx                  1.998
     In    42      Dxx-yy               1.997
     In    42      Dxy                  1.998
     In    42      S                    1.426
     In    42      Px                   0.489
     In    42      Py                   0.488
     In    42      Pz                   0.470
     In    42      S                   -0.549
     In    43      Dzz                  1.998
     In    43      Dzy                  1.998
     In    43      Dzx                  1.998
     In    43      Dxx-yy               1.997
     In    43      Dxy                  1.998
     In    43      S                    1.425
     In    43      Px                   0.484
     In    43      Py                   0.485
     In    43      Pz                   0.477
     In    43      S                   -0.537
     In    44      Dzz                  1.998
     In    44      Dzy                  1.998
     In    44      Dzx                  1.998
     In    44      Dxx-yy               1.997
     In    44      Dxy                  1.998
     In    44      S                    1.424
     In    44      Px                   0.486
     In    44      Py                   0.477
     In    44      Pz                   0.479
     In    44      S                   -0.526
     In    45      Dzz                  1.998
     In    45      Dzy                  1.998
     In    45      Dzx                  1.998
     In    45      Dxx-yy               1.997
     In    45      Dxy                  1.998
     In    45      S                    1.423
     In    45      Px                   0.480
     In    45      Py                   0.483
     In    45      Pz                   0.482
     In    45      S                   -0.531
     In    46      Dzz                  1.997
     In    46      Dzy                  1.998
     In    46      Dzx                  1.998
     In    46      Dxx-yy               1.997
     In    46      Dxy                  1.998
     In    46      S                    1.425
     In    46      Px                   0.477
     In    46      Py                   0.491
     In    46      Pz                   0.480
     In    46      S                   -0.539
     In    47      Dzz                  1.998
     In    47      Dzy                  1.998
     In    47      Dzx                  1.998
     In    47      Dxx-yy               1.997
     In    47      Dxy                  1.998
     In    47      S                    1.419
     In    47      Px                   0.474
     In    47      Py                   0.480
     In    47      Pz                   0.489
     In    47      S                   -0.524
     In    48      Dzz                  1.997
     In    48      Dzy                  1.998
     In    48      Dzx                  1.998
     In    48      Dxx-yy               1.997
     In    48      Dxy                  1.998
     In    48      S                    1.427
     In    48      Px                   0.472
     In    48      Py                   0.491
     In    48      Pz                   0.483
     In    48      S                   -0.535
  -------------------------------------------
                           Total:     864.000
  -------------------------------------------

     Atomic Populations (Mulliken)
     -----------------------------
Species          Ion     s       p       d       f      Total   Charge (e)
==========================================================================
  P               1     1.744   3.926   0.000   0.000   5.670    -0.670
  P               2     1.740   3.930   0.000   0.000   5.670    -0.670
  P               3     1.735   3.940   0.000   0.000   5.675    -0.675
  P               4     1.739   3.932   0.000   0.000   5.671    -0.671
  P               5     1.733   3.942   0.000   0.000   5.675    -0.675
  P               6     1.733   3.941   0.000   0.000   5.674    -0.674
  P               7     1.733   3.942   0.000   0.000   5.674    -0.674
  P               8     1.732   3.942   0.000   0.000   5.675    -0.675
  P               9     1.733   3.941   0.000   0.000   5.673    -0.673
  P              10     1.734   3.941   0.000   0.000   5.674    -0.674
  P              11     1.733   3.932   0.000   0.000   5.665    -0.665
  P              12     1.734   3.934   0.000   0.000   5.668    -0.668
  P              13     1.738   3.925   0.000   0.000   5.663    -0.663
  P              14     1.739   3.928   0.000   0.000   5.667    -0.667
  P              15     1.739   3.931   0.000   0.000   5.671    -0.671
  P              16     1.743   3.923   0.000   0.000   5.666    -0.666
  P              17     1.735   3.937   0.000   0.000   5.672    -0.672
  P              18     1.737   3.934   0.000   0.000   5.671    -0.671
  P              19     1.736   3.937   0.000   0.000   5.673    -0.673
  P              20     1.734   3.941   0.000   0.000   5.675    -0.675
  P              21     1.735   3.939   0.000   0.000   5.674    -0.674
  P              22     1.739   3.932   0.000   0.000   5.671    -0.671
  P              23     1.735   3.939   0.000   0.000   5.674    -0.674
  P              24     1.738   3.934   0.000   0.000   5.672    -0.672
  P              25     1.759   3.871   0.000   0.000   5.631    -0.631
  P              26     1.776   3.849   0.000   0.000   5.625    -0.625
  P              27     1.742   3.928   0.000   0.000   5.669    -0.669
  P              28     1.737   3.933   0.000   0.000   5.670    -0.670
  P              29     1.741   3.928   0.000   0.000   5.669    -0.669
  P              30     1.739   3.932   0.000   0.000   5.670    -0.670
  P              31     1.739   3.932   0.000   0.000   5.671    -0.671
  P              32     1.739   3.933   0.000   0.000   5.672    -0.672
  P              33     1.739   3.932   0.000   0.000   5.671    -0.671
  P              34     1.737   3.933   0.000   0.000   5.670    -0.670
  P              35     1.743   3.927   0.000   0.000   5.670    -0.670
  P              36     1.740   3.926   0.000   0.000   5.665    -0.665
  P              37     1.735   3.939   0.000   0.000   5.673    -0.673
  P              38     1.734   3.938   0.000   0.000   5.672    -0.672
  P              39     1.735   3.939   0.000   0.000   5.674    -0.674
  P              40     1.733   3.942   0.000   0.000   5.675    -0.675
  P              41     1.735   3.939   0.000   0.000   5.674    -0.674
  P              42     1.734   3.941   0.000   0.000   5.675    -0.675
  P              43     1.734   3.940   0.000   0.000   5.674    -0.674
  P              44     1.736   3.937   0.000   0.000   5.673    -0.673
  P              45     1.735   3.938   0.000   0.000   5.672    -0.672
  P              46     1.733   3.941   0.000   0.000   5.674    -0.674
  P              47     1.735   3.936   0.000   0.000   5.671    -0.671
  P              48     1.732   3.940   0.000   0.000   5.672    -0.672
  In              1     0.924   1.417   9.990   0.000  12.331     0.669
  In              2     0.916   1.438   9.990   0.000  12.343     0.657
  In              3     0.953   1.418   9.987   0.000  12.358     0.642
  In              4     0.925   1.427   9.990   0.000  12.341     0.659
  In              5     0.893   1.450   9.988   0.000  12.331     0.669
  In              6     0.900   1.448   9.989   0.000  12.337     0.663
  In              7     0.883   1.449   9.989   0.000  12.321     0.679
  In              8     0.882   1.450   9.989   0.000  12.321     0.679
  In              9     0.884   1.450   9.989   0.000  12.323     0.677
  In             10     0.887   1.446   9.989   0.000  12.322     0.678
  In             11     0.884   1.452   9.989   0.000  12.324     0.676
  In             12     0.888   1.445   9.989   0.000  12.322     0.678
  In             13     0.892   1.437   9.989   0.000  12.318     0.682
  In             14     0.913   1.434   9.990   0.000  12.336     0.664
  In             15     0.908   1.431   9.989   0.000  12.329     0.671
  In             16     0.914   1.435   9.989   0.000  12.338     0.662
  In             17     0.889   1.444   9.989   0.000  12.323     0.677
  In             18     0.912   1.439   9.990   0.000  12.341     0.659
  In             19     0.897   1.443   9.989   0.000  12.329     0.671
  In             20     0.888   1.448   9.989   0.000  12.325     0.675
  In             21     0.893   1.445   9.989   0.000  12.328     0.672
  In             22     0.902   1.441   9.990   0.000  12.332     0.668
  In             23     0.893   1.445   9.989   0.000  12.327     0.673
  In             24     0.895   1.444   9.989   0.000  12.329     0.671
  In             25     0.914   1.443   9.989   0.000  12.346     0.654
  In             26     0.914   1.452   9.989   0.000  12.355     0.645
  In             27     0.906   1.411   9.990   0.000  12.307     0.693
  In             28     0.899   1.461   9.988   0.000  12.348     0.652
  In             29     0.917   1.422   9.990   0.000  12.329     0.671
  In             30     0.902   1.431   9.990   0.000  12.323     0.677
  In             31     0.900   1.437   9.990   0.000  12.327     0.673
  In             32     0.905   1.438   9.990   0.000  12.333     0.667
  In             33     0.905   1.439   9.990   0.000  12.333     0.667
  In             34     0.900   1.442   9.989   0.000  12.332     0.668
  In             35     0.907   1.437   9.990   0.000  12.334     0.666
  In             36     0.906   1.442   9.989   0.000  12.338     0.662
  In             37     0.897   1.442   9.989   0.000  12.329     0.671
  In             38     0.885   1.444   9.989   0.000  12.318     0.682
  In             39     0.892   1.449   9.989   0.000  12.330     0.670
  In             40     0.919   1.444   9.989   0.000  12.352     0.648
  In             41     0.893   1.443   9.989   0.000  12.325     0.675
  In             42     0.877   1.447   9.989   0.000  12.313     0.687
  In             43     0.888   1.446   9.989   0.000  12.323     0.677
  In             44     0.897   1.441   9.989   0.000  12.328     0.672
  In             45     0.892   1.444   9.989   0.000  12.326     0.674
  In             46     0.886   1.448   9.989   0.000  12.323     0.677
  In             47     0.896   1.443   9.989   0.000  12.328     0.672
  In             48     0.892   1.446   9.989   0.000  12.327     0.673
==========================================================================

                 Bond                   Population      Length (A)
======================================================================
              P 1  -- In 3                   0.69        2.47128
              P 2  -- In 3                   0.67        2.47805
              P 26 -- In 16                  0.74        2.47916
              P 3  -- In 3                   0.64        2.48897
              P 26 -- In 27                  0.80        2.50604
              P 14 -- In 4                   0.64        2.50709
              P 13 -- In 15                  0.60        2.50872
              P 25 -- In 28                  0.66        2.51495
              P 48 -- In 13                  1.35        2.51847
              P 37 -- In 40                  0.62        2.52225
              P 5  -- In 5                   0.60        2.52454
              P 9  -- In 11                  1.32        2.52512
              P 47 -- In 14                  1.36        2.52660
              P 4  -- In 6                   1.34        2.52664
              P 26 -- In 26                  0.67        2.52686
              P 6  -- In 7                   1.32        2.52726
              P 46 -- In 48                  1.34        2.52754
              P 25 -- In 27                  1.06        2.52774
              P 38 -- In 39                  0.60        2.52893
              P 11 -- In 11                  0.62        2.52903
              P 7  -- In 9                   1.32        2.52981
              P 5  -- In 8                   1.32        2.53106
              P 6  -- In 6                   0.59        2.53127
              P 8  -- In 46                  1.33        2.53128
              P 17 -- In 20                  1.33        2.53243
              P 11 -- In 26                  1.26        2.53317
              P 45 -- In 47                  1.35        2.53393
              P 8  -- In 8                   0.58        2.53582
              P 3  -- In 5                   1.26        2.53597
              P 20 -- In 10                  1.32        2.53654
              P 40 -- In 5                   0.59        2.53672
              P 7  -- In 7                   0.58        2.53731
              P 15 -- In 17                  1.35        2.53755
              P 9  -- In 9                   0.58        2.53767
              P 18 -- In 19                  1.34        2.53901
              P 14 -- In 15                  1.26        2.53968
              P 43 -- In 45                  1.33        2.53988
              P 10 -- In 12                  1.31        2.54087
              P 12 -- In 12                  0.59        2.54198
              P 35 -- In 2                   1.32        2.54224
              P 46 -- In 46                  0.57        2.54238
              P 39 -- In 42                  0.60        2.54254
              P 19 -- In 21                  1.33        2.54278
              P 25 -- In 25                  0.62        2.54409
              P 12 -- In 38                  0.60        2.54418
              P 34 -- In 36                  1.35        2.54424
              P 10 -- In 10                  0.57        2.54441
              P 42 -- In 43                  1.32        2.54462
              P 20 -- In 20                  0.57        2.54534
              P 42 -- In 42                  0.58        2.54549
              P 36 -- In 1                   1.33        2.54611
              P 37 -- In 39                  1.29        2.54613
              P 40 -- In 40                  0.58        2.54733
              P 44 -- In 34                  1.34        2.54741
              P 23 -- In 23                  0.58        2.54804
              P 21 -- In 23                  1.32        2.54816
              P 38 -- In 38                  0.60        2.54833
              P 48 -- In 48                  0.59        2.54877
              P 28 -- In 30                  1.32        2.54887
              P 40 -- In 42                  1.30        2.54960
              P 16 -- In 18                  1.34        2.55025
              P 43 -- In 43                  0.56        2.55036
              P 39 -- In 39                  0.56        2.55050
              P 13 -- In 16                  1.24        2.55182
              P 21 -- In 21                  0.56        2.55204
              P 23 -- In 37                  0.59        2.55268
              P 41 -- In 41                  0.55        2.55282
              P 41 -- In 44                  1.32        2.55289
              P 12 -- In 25                  1.29        2.55301
              P 32 -- In 22                  1.33        2.55302
              P 28 -- In 41                  0.59        2.55334
              P 27 -- In 29                  1.33        2.55354
              P 38 -- In 28                  1.29        2.55464
              P 42 -- In 8                   0.57        2.55481
              P 46 -- In 11                  0.56        2.55483
              P 33 -- In 35                  1.34        2.55504
              P 29 -- In 32                  1.34        2.55564
              P 24 -- In 37                  1.31        2.55580
              P 6  -- In 20                  0.55        2.55585
              P 23 -- In 38                  1.30        2.55588
              P 9  -- In 12                  0.58        2.55640
              P 39 -- In 41                  1.31        2.55645
              P 5  -- In 7                   0.55        2.55671
              P 45 -- In 48                  0.55        2.55684
              P 45 -- In 45                  0.55        2.55687
              P 31 -- In 33                  1.34        2.55733
              P 10 -- In 23                  0.58        2.55750
              P 8  -- In 9                   0.56        2.55764
              P 43 -- In 46                  0.56        2.55770
              P 22 -- In 24                  1.33        2.55780
              P 41 -- In 43                  0.58        2.55813
              P 37 -- In 37                  0.55        2.55823
              P 30 -- In 31                  1.33        2.55829
              P 17 -- In 17                  0.57        2.55832
              P 24 -- In 24                  0.56        2.55849
              P 7  -- In 10                  0.56        2.55879
              P 28 -- In 28                  0.53        2.55997
              P 3  -- In 6                   0.52        2.56034
              P 20 -- In 21                  0.56        2.56054
              P 19 -- In 19                  0.55        2.56062
              P 11 -- In 25                  0.58        2.56072
              P 44 -- In 45                  0.56        2.56209
              P 48 -- In 26                  0.54        2.56223
              P 47 -- In 47                  0.57        2.56275
              P 44 -- In 44                  0.55        2.56321
              P 21 -- In 24                  0.57        2.56371
              P 1  -- In 4                   1.15        2.56378
              P 17 -- In 19                  0.55        2.56526
              P 24 -- In 2                   0.57        2.56528
              P 18 -- In 18                  0.53        2.56545
              P 34 -- In 47                  0.55        2.56594
              P 31 -- In 34                  0.55        2.56693
              P 34 -- In 34                  0.54        2.56720
              P 30 -- In 44                  0.57        2.56739
              P 2  -- In 40                  1.20        2.56764
              P 32 -- In 33                  0.56        2.56875
              P 36 -- In 36                  0.56        2.56903
              P 4  -- In 17                  0.55        2.56919
              P 19 -- In 22                  0.56        2.56929
              P 18 -- In 32                  0.55        2.56995
              P 22 -- In 22                  0.54        2.57093
              P 33 -- In 36                  0.54        2.57257
              P 29 -- In 31                  0.56        2.57344
              P 2  -- In 2                   0.53        2.57359
              P 30 -- In 30                  0.53        2.57401
              P 47 -- In 13                  0.53        2.57417
              P 13 -- In 13                  0.59        2.57443
              P 33 -- In 33                  0.53        2.57737
              P 32 -- In 32                  0.54        2.57749
              P 22 -- In 35                  0.56        2.57875
              P 27 -- In 30                  0.58        2.57907
              P 31 -- In 31                  0.54        2.57929
              P 27 -- In 27                  0.51        2.58128
              P 4  -- In 4                   0.55        2.58172
              P 36 -- In 14                  0.54        2.58199
              P 15 -- In 18                  0.55        2.58231
              P 15 -- In 15                  0.53        2.58678
              P 16 -- In 29                  0.58        2.58812
              P 35 -- In 35                  0.54        2.59040
              P 35 -- In 1                   0.54        2.59271
              P 29 -- In 29                  0.51        2.59280
              P 14 -- In 14                  0.54        2.59310
              P 16 -- In 16                  0.48        2.61048
              P 1  -- In 1                   0.49        2.61551
======================================================================

 Hirshfeld supercell size:           1           1           4
Standard grid dimensions: 250 250 180
Fine grid dimensions:     250 250 180


     Hirshfeld Analysis
     ------------------
Species   Ion     Hirshfeld Charge (e)
======================================
  P        1                -0.24
  P        2                -0.23
  P        3                -0.24
  P        4                -0.24
  P        5                -0.24
  P        6                -0.24
  P        7                -0.24
  P        8                -0.24
  P        9                -0.24
  P       10                -0.24
  P       11                -0.24
  P       12                -0.24
  P       13                -0.24
  P       14                -0.24
  P       15                -0.24
  P       16                -0.24
  P       17                -0.24
  P       18                -0.24
  P       19                -0.24
  P       20                -0.24
  P       21                -0.24
  P       22                -0.24
  P       23                -0.24
  P       24                -0.24
  P       25                -0.24
  P       26                -0.25
  P       27                -0.24
  P       28                -0.24
  P       29                -0.24
  P       30                -0.24
  P       31                -0.24
  P       32                -0.24
  P       33                -0.24
  P       34                -0.24
  P       35                -0.24
  P       36                -0.24
  P       37                -0.24
  P       38                -0.24
  P       39                -0.24
  P       40                -0.24
  P       41                -0.24
  P       42                -0.24
  P       43                -0.24
  P       44                -0.24
  P       45                -0.24
  P       46                -0.24
  P       47                -0.24
  P       48                -0.24
  In       1                 0.25
  In       2                 0.24
  In       3                 0.26
  In       4                 0.24
  In       5                 0.23
  In       6                 0.23
  In       7                 0.24
  In       8                 0.24
  In       9                 0.24
  In      10                 0.24
  In      11                 0.24
  In      12                 0.24
  In      13                 0.24
  In      14                 0.24
  In      15                 0.24
  In      16                 0.24
  In      17                 0.23
  In      18                 0.24
  In      19                 0.24
  In      20                 0.24
  In      21                 0.24
  In      22                 0.24
  In      23                 0.24
  In      24                 0.24
  In      25                 0.24
  In      26                 0.23
  In      27                 0.24
  In      28                 0.23
  In      29                 0.25
  In      30                 0.25
  In      31                 0.24
  In      32                 0.24
  In      33                 0.24
  In      34                 0.24
  In      35                 0.24
  In      36                 0.24
  In      37                 0.24
  In      38                 0.24
  In      39                 0.24
  In      40                 0.23
  In      41                 0.24
  In      42                 0.24
  In      43                 0.24
  In      44                 0.24
  In      45                 0.24
  In      46                 0.24
  In      47                 0.24
  In      48                 0.24
======================================

 
 A BibTeX formatted list of references used in this run has been written to 
 30deg_Singlepoints_1.bib
 
Initialisation time =     31.20 s
Calculation time    =   5892.96 s
Finalisation time   =     65.44 s
Total time          =   5989.60 s
Peak Memory Use     = 8566528 kB
 
Overall parallel efficiency rating: Terrible (31%)
 
Data was distributed by:-
G-vector (6-way); efficiency rating: Terrible (34%)
k-point (20-way); efficiency rating: Good (79%)
