63
Lattice="11.8016818 -7.6e-06 -7.6e-06 -7.6e-06 11.8016818 -7.8e-06 -7.6e-06 -7.8e-06 11.8016816" Properties=species:S:1:pos:R:3:mulliken_charges:R:1 virial="-0.001343979365248383 3.847269175329341e-05 3.847269175329341e-05 3.847269175329341e-05 -0.001345261788306826 3.847269175329341e-05 3.847269175329341e-05 3.847269175329341e-05 -0.0013426969421899398" fermi_energy=3.4539138232004998 core_to_fermi_energy=15.43004959127955 config_type=Accurate_Bulk energy=-61124.35126772886 pbc="T T T"
P        1.48534971       1.48534967       4.43276448      -0.67500000
P        4.43276451       1.48534972       1.48534977      -0.67500000
P        1.48534970       4.43276450       1.48534972      -0.67500000
P        4.52251208       4.52251205       4.52251205      -0.67500000
In       0.00000170       0.00000166       0.00000165       0.67500000
In       2.95683463       0.00024613       2.95683444       0.67500000
In       0.00024621       2.95683456       2.95683440       0.67500000
In       2.95683463       2.95683460       0.00024612       0.67500000
P        1.47607214       1.47607198      10.32559858      -0.67500000
P        4.42635202       1.48462595       7.37531996      -0.67500000
P        1.48462603       4.42635190       7.37531991      -0.67500000
P        4.42634823       4.42634806      10.31703882      -0.67500000
In      -0.00000237      -0.00000251       5.90084087       0.67500000
In       2.95683056      -0.00025418       8.84484494       0.67500000
In      -0.00025399       2.95683038       8.84484489       0.67500000
In       3.00249811       3.00249800       5.87381434       0.67500000
P        1.48462603       7.37532009       4.42635187      -0.67500000
P        4.42635201       7.37532014       1.48462598      -0.67500000
P        1.47607214      10.32559881       1.47607202      -0.67500000
P        4.42634823      10.31703905       4.42634804      -0.67500000
In      -0.00000237       5.90084097      -0.00000251       0.67500000
In       3.00249812       5.87381445       3.00249788       0.67500000
In      -0.00025399       8.84484493       2.95683022       0.67500000
In       2.95683056       8.84484498      -0.00025419       0.67500000
P        1.48534049       7.36890834      10.31632115      -0.67500000
P        4.52250424       7.27915723       7.27915703      -0.67500000
P        1.48534049      10.31632140       7.36890815      -0.67500000
P        4.43275226      10.31631784      10.31631759      -0.67500000
In      -0.00000636       5.90083644       5.90083634       0.67500000
In       3.00249160       5.92785685       8.79917539       0.67500000
In       0.00023737       8.84484082       8.84484078       0.67500000
In       3.00249159       8.79917548       5.92785676       0.67500000
P        7.37532016       1.48462601       4.42635198      -0.67500000
P       10.32559881       1.47607215       1.47607218      -0.67500000
P        7.37532016       4.42635200       1.48462604      -0.67500000
P       10.31703908       4.42634817       4.42634815      -0.67500000
In       5.90084098      -0.00000241      -0.00000241       0.67500000
In       8.84484499      -0.00025407       2.95683037       0.67500000
In       5.87381449       3.00249807       3.00249795       0.67500000
In       8.84484499       2.95683053      -0.00025407       0.67500000
P        7.36890853       1.48534034      10.31632128      -0.67500000
P       10.31632152       1.48534038       7.36890831      -0.67500000
P        7.27915737       4.52250411       7.27915713      -0.67500000
P       10.31631801       4.43275208      10.31631771      -0.67500000
In       5.90083652      -0.00000649       5.90083644       0.67500000
In       8.84484098       0.00023718       8.84484093       0.67500000
In       5.92785701       3.00249140       8.79917548       0.67500000
In       8.79917559       3.00249147       5.92785688       0.67500000
P        7.27915737       7.27915733       4.52250411      -0.67500000
P       10.31632152       7.36890850       1.48534043      -0.67500000
P        7.36890853      10.31632153       1.48534039      -0.67500000
P       10.31631801      10.31631796       4.43275207      -0.67500000
In       5.90083652       5.90083654      -0.00000649       0.67500000
In       8.79917559       5.92785697       3.00249135       0.67500000
In       5.92785701       8.79917556       3.00249128       0.67500000
In       8.84484098       8.84484097       0.00023717       0.67500000
P        7.37531197       7.37531179      10.31703457      -0.67500000
P       10.31703489       7.37531184       7.37531166      -0.67500000
P        7.37531197      10.31703480       7.37531161      -0.67500000
P       10.32558620      10.32558603      10.32558580      -0.67500000
In       8.79917020       5.87380488       8.79917002       0.67500000
In       5.87380504       8.79917002       8.79916994       0.67500000
In       8.79917021       8.79917011       5.87380477       0.67500000
63
Lattice="11.8016818 -7.6e-06 -7.6e-06 -7.6e-06 11.8016818 -7.8e-06 -7.6e-06 -7.8e-06 11.8016816" Properties=species:S:1:pos:R:3:mulliken_charges:R:1 virial="-0.001343979365248383 3.847269175329341e-05 3.847269175329341e-05 3.847269175329341e-05 -0.001345261788306826 3.847269175329341e-05 3.847269175329341e-05 3.847269175329341e-05 -0.0013426969421899398" fermi_energy=3.4539138232004998 core_to_fermi_energy=15.43004959127955 config_type=Accurate_Bulk energy=-61124.33840298903 pbc="T T T"
P        1.51719551       1.51719545       4.44755217      -0.67500000
P        4.44755226       1.51719551       1.51719549      -0.67500000
P        1.51719552       4.44755225       1.51719544      -0.67500000
P        4.60571028       4.60571025       4.60571019      -0.67500000
In       0.00447044       0.00447043       0.00447043       0.67500000
In       2.96565068       0.01564699       2.96565061       0.67500000
In       0.01564705       2.96565063       2.96565057       0.67500000
In       2.96565069       2.96565067       0.01564700       0.67500000
P        1.48463262       1.48463245      10.33708387      -0.67500000
P        4.43296343       1.48889698       7.37643986      -0.67500000
P        1.48889708       4.43296331       7.37643980      -0.67500000
P        4.42774456       4.42774440      10.31669653      -0.67500000
In       0.02281143       0.02281131       5.90585711       0.67500000
In       2.96380151       0.00827246       8.85281051       0.67500000
In       0.00827263       2.96380134       8.85281047       0.67500000
In       3.04764107       3.04764095       5.87641251       0.67500000
P        1.48889708       7.37643994       4.43296325      -0.67500000
P        4.43296343       7.37643999       1.48889696      -0.67500000
P        1.48463262      10.33708404       1.48463242      -0.67500000
P        4.42774457      10.31669671       4.42774433      -0.67500000
In       0.02281143       5.90585721       0.02281131       0.67500000
In       3.04764107       5.87641263       3.04764092       0.67500000
In       0.00827263       8.85281062       2.96380129       0.67500000
In       2.96380151       8.85281066       0.00827245       0.67500000
P        1.49126316       7.37751887      10.32477427      -0.67500000
P        4.52478577       7.28469088       7.28469074      -0.67500000
P        1.49126316      10.32477446       7.37751875      -0.67500000
P        4.44217373      10.33276159      10.33276141      -0.67500000
In      -0.00280124       5.90322362       5.90322352       0.67500000
In       3.00136263       5.93466705       8.80337811       0.67500000
In       0.00386350       8.84862221       8.84862206       0.67500000
In       3.00136263       8.80337828       5.93466696       0.67500000
P        7.37643999       1.48889704       4.43296336      -0.67500000
P       10.33708405       1.48463261       1.48463258      -0.67500000
P        7.37643998       4.43296342       1.48889701      -0.67500000
P       10.31669676       4.42774451       4.42774443      -0.67500000
In       5.90585722       0.02281141       0.02281141       0.67500000
In       8.85281068       0.00827258       2.96380144       0.67500000
In       5.87641268       3.04764102       3.04764098       0.67500000
In       8.85281068       2.96380149       0.00827257       0.67500000
P        7.37751904       1.49126299      10.32477439      -0.67500000
P       10.32477457       1.49126304       7.37751891      -0.67500000
P        7.28469101       4.52478565       7.28469084      -0.67500000
P       10.33276176       4.44217356      10.33276153      -0.67500000
In       5.90322374      -0.00280136       5.90322363       0.67500000
In       8.84862238       0.00386332       8.84862222       0.67500000
In       5.93466724       3.00136246       8.80337818       0.67500000
In       8.80337839       3.00136252       5.93466708       0.67500000
P        7.28469100       7.28469098       4.52478557      -0.67500000
P       10.32477457       7.37751903       1.49126302      -0.67500000
P        7.37751905      10.32477457       1.49126296      -0.67500000
P       10.33276176      10.33276170       4.44217348      -0.67500000
In       5.90322373       5.90322372      -0.00280135       0.67500000
In       8.80337838       5.93466717       3.00136246       0.67500000
In       5.93466724       8.80337834       3.00136239       0.67500000
In       8.84862239       8.84862237       0.00386332       0.67500000
P        7.37948107       7.37948090      10.31914500      -0.67500000
P       10.31914527       7.37948096       7.37948083      -0.67500000
P        7.37948107      10.31914516       7.37948078      -0.67500000
P       10.32970254      10.32970237      10.32970219      -0.67500000
In       8.80814185       5.87341831       8.80814160       0.67500000
In       5.87341849       8.80814166       8.80814152       0.67500000
In       8.80814185       8.80814174       5.87341820       0.67500000
63
Lattice="11.8016818 -7.6e-06 -7.6e-06 -7.6e-06 11.8016818 -7.8e-06 -7.6e-06 -7.8e-06 11.8016816" Properties=species:S:1:pos:R:3:mulliken_charges:R:1 virial="-0.001343979365248383 3.847269175329341e-05 3.847269175329341e-05 3.847269175329341e-05 -0.001345261788306826 3.847269175329341e-05 3.847269175329341e-05 3.847269175329341e-05 -0.0013426969421899398" fermi_energy=3.4539138232004998 core_to_fermi_energy=15.43004959127955 config_type=Accurate_Bulk energy=-61124.2868671366 pbc="T T T"
P        1.54414425       1.54414420       4.46014399      -0.67500000
P        4.46014408       1.54414424       1.54414422      -0.67500000
P        1.54414425       4.46014407       1.54414418      -0.67500000
P        4.69187809       4.69187807       4.69187801      -0.67500000
In       0.00342914       0.00342912       0.00342912       0.67500000
In       2.96875548       0.02808521       2.96875541       0.67500000
In       0.02808527       2.96875542       2.96875537       0.67500000
In       2.96875548       2.96875547       0.02808522       0.67500000
P        1.48764551       1.48764535      10.34333852      -0.67500000
P        4.43390584       1.48681905       7.37331810      -0.67500000
P        1.48681915       4.43390572       7.37331804      -0.67500000
P        4.42330291       4.42330275      10.31208990      -0.67500000
In       0.03447088       0.03447077       5.89977392       0.67500000
In       2.96280098       0.00987859       8.85387444       0.67500000
In       0.00987876       2.96280080       8.85387439       0.67500000
In       3.09260059       3.09260047       5.87740797       0.67500000
P        1.48681915       7.37331818       4.43390566      -0.67500000
P        4.43390584       7.37331823       1.48681903      -0.67500000
P        1.48764551      10.34333869       1.48764531      -0.67500000
P        4.42330291      10.31209008       4.42330268      -0.67500000
In       0.03447088       5.89977402       0.03447076       0.67500000
In       3.09260059       5.87740808       3.09260044       0.67500000
In       0.00987876       8.85387454       2.96280075       0.67500000
In       2.96280098       8.85387459       0.00987858       0.67500000
P        1.48814365       7.37924946      10.32693778      -0.67500000
P        4.51980521       7.27136977       7.27136963      -0.67500000
P        1.48814365      10.32693797       7.37924934      -0.67500000
P        4.44408882      10.33521076      10.33521058      -0.67500000
In      -0.01093334       5.90027411       5.90027401       0.67500000
In       2.99402299       5.93613122       8.80371847       0.67500000
In      -0.00167630       8.84510222       8.84510207       0.67500000
In       2.99402299       8.80371863       5.93613113       0.67500000
P        7.37331823       1.48681910       4.43390577      -0.67500000
P       10.34333870       1.48764550       1.48764547      -0.67500000
P        7.37331822       4.43390584       1.48681908      -0.67500000
P       10.31209013       4.42330286       4.42330278      -0.67500000
In       5.89977403       0.03447086       0.03447085       0.67500000
In       8.85387460       0.00987870       2.96280091       0.67500000
In       5.87740813       3.09260054       3.09260050       0.67500000
In       8.85387460       2.96280096       0.00987869       0.67500000
P        7.37924963       1.48814348      10.32693789      -0.67500000
P       10.32693807       1.48814353       7.37924950      -0.67500000
P        7.27136990       4.51980511       7.27136973      -0.67500000
P       10.33521094       4.44408865      10.33521070      -0.67500000
In       5.90027422      -0.01093346       5.90027411       0.67500000
In       8.84510239      -0.00167648       8.84510223       0.67500000
In       5.93613141       2.99402282       8.80371853       0.67500000
In       8.80371874       2.99402288       5.93613126       0.67500000
P        7.27136991       7.27136988       4.51980504      -0.67500000
P       10.32693807       7.37924962       1.48814351      -0.67500000
P        7.37924963      10.32693807       1.48814345      -0.67500000
P       10.33521095      10.33521089       4.44408857      -0.67500000
In       5.90027422       5.90027421      -0.01093345       0.67500000
In       8.80371873       5.93613135       2.99402283       0.67500000
In       5.93613141       8.80371869       2.99402277       0.67500000
In       8.84510239       8.84510238      -0.00167647       0.67500000
P        7.37584039       7.37584022      10.31112446      -0.67500000
P       10.31112474       7.37584028       7.37584015      -0.67500000
P        7.37584039      10.31112463       7.37584009      -0.67500000
P       10.32807794      10.32807777      10.32807760      -0.67500000
In       8.80031355       5.86380833       8.80031329       0.67500000
In       5.86380851       8.80031335       8.80031321       0.67500000
In       8.80031357       8.80031344       5.86380822       0.67500000
63
Lattice="11.8016818 -7.6e-06 -7.6e-06 -7.6e-06 11.8016818 -7.8e-06 -7.6e-06 -7.8e-06 11.8016816" Properties=species:S:1:pos:R:3:mulliken_charges:R:1 virial="-0.001343979365248383 3.847269175329341e-05 3.847269175329341e-05 3.847269175329341e-05 -0.001345261788306826 3.847269175329341e-05 3.847269175329341e-05 3.847269175329341e-05 -0.0013426969421899398" fermi_energy=3.4539138232004998 core_to_fermi_energy=15.43004959127955 config_type=Accurate_Bulk energy=-61124.19021986786 pbc="T T T"
P        1.56185899       1.56185893       4.46796335      -0.67500000
P        4.46796343       1.56185897       1.56185895      -0.67500000
P        1.56185898       4.46796343       1.56185890      -0.67500000
P        4.78101784       4.78101785       4.78101781      -0.67500000
In       0.00108446       0.00108445       0.00108445       0.67500000
In       2.96772799       0.03400510       2.96772793       0.67500000
In       0.03400517       2.96772794       2.96772789       0.67500000
In       2.96772799       2.96772798       0.03400512       0.67500000
P        1.48707544       1.48707528      10.34434003      -0.67500000
P        4.43319691       1.48363617       7.36992913      -0.67500000
P        1.48363626       4.43319679       7.36992907      -0.67500000
P        4.41862165       4.41862149      10.30798227      -0.67500000
In       0.03807060       0.03807048       5.89195909       0.67500000
In       2.96033874       0.00863405       8.85199367       0.67500000
In       0.00863422       2.96033856       8.85199362       0.67500000
In       3.13069817       3.13069805       5.87675052       0.67500000
P        1.48363626       7.36992921       4.43319672      -0.67500000
P        4.43319692       7.36992926       1.48363615      -0.67500000
P        1.48707545      10.34434020       1.48707525      -0.67500000
P        4.41862165      10.30798245       4.41862142      -0.67500000
In       0.03807059       5.89195919       0.03807047       0.67500000
In       3.13069816       5.87675063       3.13069802       0.67500000
In       0.00863422       8.85199378       2.96033850       0.67500000
In       2.96033875       8.85199382       0.00863404       0.67500000
P        1.48450142       7.37769143      10.32632050      -0.67500000
P        4.51602196       7.24994891       7.24994877      -0.67500000
P        1.48450141      10.32632069       7.37769131      -0.67500000
P        4.44417532      10.33035950      10.33035932      -0.67500000
In      -0.01831741       5.89722924       5.89722915       0.67500000
In       2.98812727       5.93515613       8.80275302       0.67500000
In      -0.00637559       8.84149997       8.84149982       0.67500000
In       2.98812727       8.80275318       5.93515605       0.67500000
P        7.36992926       1.48363622       4.43319684      -0.67500000
P       10.34434022       1.48707544       1.48707541      -0.67500000
P        7.36992925       4.43319691       1.48363621      -0.67500000
P       10.30798250       4.41862160       4.41862153      -0.67500000
In       5.89195919       0.03807057       0.03807056       0.67500000
In       8.85199384       0.00863417       2.96033867       0.67500000
In       5.87675066       3.13069811       3.13069808       0.67500000
In       8.85199383       2.96033873       0.00863416       0.67500000
P        7.37769160       1.48450125      10.32632061      -0.67500000
P       10.32632079       1.48450130       7.37769146      -0.67500000
P        7.24994906       4.51602187       7.24994889      -0.67500000
P       10.33035968       4.44417514      10.33035945      -0.67500000
In       5.89722936      -0.01831752       5.89722925       0.67500000
In       8.84150014      -0.00637577       8.84149998       0.67500000
In       5.93515633       2.98812711       8.80275308       0.67500000
In       8.80275328       2.98812717       5.93515617       0.67500000
P        7.24994909       7.24994905       4.51602180      -0.67500000
P       10.32632079       7.37769158       1.48450127      -0.67500000
P        7.37769160      10.32632079       1.48450122      -0.67500000
P       10.33035970      10.33035964       4.44417505      -0.67500000
In       5.89722936       5.89722935      -0.01831752       0.67500000
In       8.80275328       5.93515627       2.98812713       0.67500000
In       5.93515634       8.80275324       2.98812706       0.67500000
In       8.84150014       8.84150012      -0.00637577       0.67500000
P        7.37190100       7.37190083      10.30345925      -0.67500000
P       10.30345955       7.37190089       7.37190076      -0.67500000
P        7.37190101      10.30345943       7.37190070      -0.67500000
P       10.32562128      10.32562111      10.32562094      -0.67500000
In       8.78595374       5.85610162       8.78595346       0.67500000
In       5.85610180       8.78595352       8.78595337       0.67500000
In       8.78595377       8.78595364       5.85610151       0.67500000
63
Lattice="11.8016818 -7.6e-06 -7.6e-06 -7.6e-06 11.8016818 -7.8e-06 -7.6e-06 -7.8e-06 11.8016816" Properties=species:S:1:pos:R:3:mulliken_charges:R:1 virial="-0.001343979365248383 3.847269175329341e-05 3.847269175329341e-05 3.847269175329341e-05 -0.001345261788306826 3.847269175329341e-05 3.847269175329341e-05 3.847269175329341e-05 -0.0013426969421899398" fermi_energy=3.4539138232004998 core_to_fermi_energy=15.43004959127955 config_type=Accurate_Bulk energy=-61124.0478120275 pbc="T T T"
P        1.57301469       1.57301463       4.47278874      -0.67500000
P        4.47278880       1.57301464       1.57301462      -0.67500000
P        1.57301467       4.47278881       1.57301459      -0.67500000
P        4.88624656       4.88624665       4.88624668      -0.67500000
In      -0.00093516      -0.00093518      -0.00093518       0.67500000
In       2.96518780       0.03664885       2.96518775       0.67500000
In       0.03664892       2.96518775       2.96518771       0.67500000
In       2.96518780       2.96518779       0.03664886       0.67500000
P        1.48558081       1.48558065      10.34333727      -0.67500000
P        4.43338028       1.48007660       7.36793344      -0.67500000
P        1.48007667       4.43338015       7.36793338      -0.67500000
P        4.41469271       4.41469254      10.30474178      -0.67500000
In       0.03765324       0.03765312       5.88534465       0.67500000
In       2.95802346       0.00744216       8.85003515       0.67500000
In       0.00744232       2.95802327       8.85003510       0.67500000
In       3.16186994       3.16186984       5.87910954       0.67500000
P        1.48007667       7.36793352       4.43338008      -0.67500000
P        4.43338029       7.36793356       1.48007659      -0.67500000
P        1.48558081      10.34333744       1.48558062      -0.67500000
P        4.41469271      10.30474195       4.41469247      -0.67500000
In       0.03765322       5.88534475       0.03765309       0.67500000
In       3.16186992       5.87910965       3.16186979       0.67500000
In       0.00744232       8.85003525       2.95802322       0.67500000
In       2.95802347       8.85003529       0.00744215       0.67500000
P        1.48287479       7.37529098      10.32498357      -0.67500000
P        4.51659552       7.22387740       7.22387728      -0.67500000
P        1.48287479      10.32498376       7.37529085      -0.67500000
P        4.44390017      10.32323804      10.32323785      -0.67500000
In      -0.02405876       5.89445348       5.89445339       0.67500000
In       2.98444896       5.93336240       8.80199468       0.67500000
In      -0.00805111       8.83968107       8.83968092       0.67500000
In       2.98444897       8.80199483       5.93336232       0.67500000
P        7.36793357       1.48007664       4.43338021      -0.67500000
P       10.34333746       1.48558081       1.48558078      -0.67500000
P        7.36793356       4.43338028       1.48007664      -0.67500000
P       10.30474200       4.41469265       4.41469258      -0.67500000
In       5.88534475       0.03765319       0.03765317       0.67500000
In       8.85003531       0.00744227       2.95802338       0.67500000
In       5.87910967       3.16186986       3.16186984       0.67500000
In       8.85003531       2.95802345       0.00744227       0.67500000
P        7.37529115       1.48287462      10.32498369      -0.67500000
P       10.32498386       1.48287466       7.37529100      -0.67500000
P        7.22387760       4.51659544       7.22387744      -0.67500000
P       10.32323824       4.44389999      10.32323800      -0.67500000
In       5.89445359      -0.02405888       5.89445349       0.67500000
In       8.83968123      -0.00805130       8.83968107       0.67500000
In       5.93336261       2.98444880       8.80199475       0.67500000
In       8.80199494       2.98444888       5.93336246       0.67500000
P        7.22387768       7.22387764       4.51659538      -0.67500000
P       10.32498386       7.37529113       1.48287463      -0.67500000
P        7.37529115      10.32498387       1.48287458      -0.67500000
P       10.32323827      10.32323821       4.44389990      -0.67500000
In       5.89445359       5.89445359      -0.02405888       0.67500000
In       8.80199495       5.93336256       2.98444883       0.67500000
In       5.93336263       8.80199491       2.98444876       0.67500000
In       8.83968123       8.83968122      -0.00805129       0.67500000
P        7.36949038       7.36949021      10.29927214      -0.67500000
P       10.29927244       7.36949028       7.36949014      -0.67500000
P        7.36949039      10.29927232       7.36949008      -0.67500000
P       10.32384761      10.32384744      10.32384727      -0.67500000
In       8.77148638       5.85312079       8.77148609       0.67500000
In       5.85312098       8.77148613       8.77148597       0.67500000
In       8.77148643       8.77148630       5.85312068       0.67500000
63
Lattice="11.8016818 -7.6e-06 -7.6e-06 -7.6e-06 11.8016818 -7.8e-06 -7.6e-06 -7.8e-06 11.8016816" Properties=species:S:1:pos:R:3:mulliken_charges:R:1 virial="-0.001343979365248383 3.847269175329341e-05 3.847269175329341e-05 3.847269175329341e-05 -0.001345261788306826 3.847269175329341e-05 3.847269175329341e-05 3.847269175329341e-05 -0.0013426969421899398" fermi_energy=3.4539138232004998 core_to_fermi_energy=15.43004959127955 config_type=Accurate_Bulk energy=-61123.833217030246 pbc="T T T"
P        1.57527685       1.57527680       4.47313226      -0.67500000
P        4.47313229       1.57527675       1.57527673      -0.67500000
P        1.57527681       4.47313232       1.57527673      -0.67500000
P        5.00435425       5.00435454       5.00435475      -0.67500000
In      -0.00246786      -0.00246786      -0.00246786       0.67500000
In       2.96230005       0.03723282       2.96230001       0.67500000
In       0.03723290       2.96230001       2.96229997       0.67500000
In       2.96230005       2.96230005       0.03723283       0.67500000
P        1.48404208       1.48404192      10.34111860      -0.67500000
P        4.43480212       1.47659561       7.36586925      -0.67500000
P        1.47659567       4.43480199       7.36586920      -0.67500000
P        4.41178514       4.41178498      10.30231093      -0.67500000
In       0.03387198       0.03387186       5.88141329       0.67500000
In       2.95619179       0.00669104       8.84829689       0.67500000
In       0.00669120       2.95619160       8.84829684       0.67500000
In       3.17325014       3.17325004       5.88590711       0.67500000
P        1.47659566       7.36586934       4.43480193      -0.67500000
P        4.43480215       7.36586938       1.47659561      -0.67500000
P        1.48404209      10.34111877       1.48404189      -0.67500000
P        4.41178515      10.30231109       4.41178491      -0.67500000
In       0.03387195       5.88141338       0.03387180       0.67500000
In       3.17325004       5.88590722       3.17324993       0.67500000
In       0.00669119       8.84829700       2.95619154       0.67500000
In       2.95619180       8.84829704       0.00669104       0.67500000
P        1.48406806       7.37207383      10.32243072      -0.67500000
P        4.52396378       7.19925757       7.19925745      -0.67500000
P        1.48406805      10.32243090       7.37207370      -0.67500000
P        4.44287252      10.31603898      10.31603880      -0.67500000
In      -0.02911669       5.89200918       5.89200909       0.67500000
In       2.98423217       5.92986176       8.79957904       0.67500000
In      -0.00693718       8.83942076       8.83942061       0.67500000
In       2.98423219       8.79957919       5.92986168       0.67500000
P        7.36586938       1.47659564       4.43480207      -0.67500000
P       10.34111879       1.48404209       1.48404205      -0.67500000
P        7.36586937       4.43480215       1.47659566      -0.67500000
P       10.30231114       4.41178510       4.41178502      -0.67500000
In       5.88141338       0.03387189       0.03387187       0.67500000
In       8.84829707       0.00669115       2.95619171       0.67500000
In       5.88590724       3.17324992       3.17324991       0.67500000
In       8.84829706       2.95619178       0.00669115       0.67500000
P        7.37207400       1.48406787      10.32243084      -0.67500000
P       10.32243101       1.48406791       7.37207386      -0.67500000
P        7.19925784       4.52396371       7.19925770      -0.67500000
P       10.31603921       4.44287233      10.31603896      -0.67500000
In       5.89200929      -0.02911681       5.89200919       0.67500000
In       8.83942093      -0.00693737       8.83942077       0.67500000
In       5.92986199       2.98423202       8.79957911       0.67500000
In       8.79957930       2.98423211       5.92986185       0.67500000
P        7.19925799       7.19925796       4.52396366      -0.67500000
P       10.32243102       7.37207398       1.48406788      -0.67500000
P        7.37207400      10.32243103       1.48406783      -0.67500000
P       10.31603926      10.31603920       4.44287225      -0.67500000
In       5.89200928       5.89200928      -0.02911680       0.67500000
In       8.79957932       5.92986197       2.98423207       0.67500000
In       5.92986204       8.79957928       2.98423200       0.67500000
In       8.83942092       8.83942091      -0.00693737       0.67500000
P        7.36864707       7.36864689      10.29872085      -0.67500000
P       10.29872115       7.36864697       7.36864683      -0.67500000
P        7.36864709      10.29872103       7.36864676      -0.67500000
P       10.32277963      10.32277946      10.32277929      -0.67500000
In       8.76358403       5.85641233       8.76358373       0.67500000
In       5.85641253       8.76358375       8.76358359       0.67500000
In       8.76358409       8.76358396       5.85641220       0.67500000
63