63
Lattice="11.8016818 -7.6e-06 -7.6e-06 -7.6e-06 11.8016818 -7.8e-06 -7.6e-06 -7.8e-06 11.8016816" Properties=species:S:1:pos:R:3:mulliken_charges:R:1 virial="-0.001343979365248383 3.847269175329341e-05 3.847269175329341e-05 3.847269175329341e-05 -0.001345261788306826 3.847269175329341e-05 3.847269175329341e-05 3.847269175329341e-05 -0.0013426969421899398" fermi_energy=3.4539138232004998 core_to_fermi_energy=15.43004959127955 config_type=Accurate_Bulk energy=-61124.35126772886 pbc="T T T"
P        1.48534971       1.48534967       4.43276448      -0.67500000
P        4.43276451       1.48534972       1.48534977      -0.67500000
P        1.48534970       4.43276450       1.48534972      -0.67500000
P        4.52251208       4.52251205       4.52251205      -0.67500000
In       0.00000170       0.00000166       0.00000165       0.67500000
In       2.95683463       0.00024613       2.95683444       0.67500000
In       0.00024621       2.95683456       2.95683440       0.67500000
In       2.95683463       2.95683460       0.00024612       0.67500000
P        1.47607214       1.47607198      10.32559858      -0.67500000
P        4.42635202       1.48462595       7.37531996      -0.67500000
P        1.48462603       4.42635190       7.37531991      -0.67500000
P        4.42634823       4.42634806      10.31703882      -0.67500000
In      -0.00000237      -0.00000251       5.90084087       0.67500000
In       2.95683056      -0.00025418       8.84484494       0.67500000
In      -0.00025399       2.95683038       8.84484489       0.67500000
In       3.00249811       3.00249800       5.87381434       0.67500000
P        1.48462603       7.37532009       4.42635187      -0.67500000
P        4.42635201       7.37532014       1.48462598      -0.67500000
P        1.47607214      10.32559881       1.47607202      -0.67500000
P        4.42634823      10.31703905       4.42634804      -0.67500000
In      -0.00000237       5.90084097      -0.00000251       0.67500000
In       3.00249812       5.87381445       3.00249788       0.67500000
In      -0.00025399       8.84484493       2.95683022       0.67500000
In       2.95683056       8.84484498      -0.00025419       0.67500000
P        1.48534049       7.36890834      10.31632115      -0.67500000
P        4.52250424       7.27915723       7.27915703      -0.67500000
P        1.48534049      10.31632140       7.36890815      -0.67500000
P        4.43275226      10.31631784      10.31631759      -0.67500000
In      -0.00000636       5.90083644       5.90083634       0.67500000
In       3.00249160       5.92785685       8.79917539       0.67500000
In       0.00023737       8.84484082       8.84484078       0.67500000
In       3.00249159       8.79917548       5.92785676       0.67500000
P        7.37532016       1.48462601       4.42635198      -0.67500000
P       10.32559881       1.47607215       1.47607218      -0.67500000
P        7.37532016       4.42635200       1.48462604      -0.67500000
P       10.31703908       4.42634817       4.42634815      -0.67500000
In       5.90084098      -0.00000241      -0.00000241       0.67500000
In       8.84484499      -0.00025407       2.95683037       0.67500000
In       5.87381449       3.00249807       3.00249795       0.67500000
In       8.84484499       2.95683053      -0.00025407       0.67500000
P        7.36890853       1.48534034      10.31632128      -0.67500000
P       10.31632152       1.48534038       7.36890831      -0.67500000
P        7.27915737       4.52250411       7.27915713      -0.67500000
P       10.31631801       4.43275208      10.31631771      -0.67500000
In       5.90083652      -0.00000649       5.90083644       0.67500000
In       8.84484098       0.00023718       8.84484093       0.67500000
In       5.92785701       3.00249140       8.79917548       0.67500000
In       8.79917559       3.00249147       5.92785688       0.67500000
P        7.27915737       7.27915733       4.52250411      -0.67500000
P       10.31632152       7.36890850       1.48534043      -0.67500000
P        7.36890853      10.31632153       1.48534039      -0.67500000
P       10.31631801      10.31631796       4.43275207      -0.67500000
In       5.90083652       5.90083654      -0.00000649       0.67500000
In       8.79917559       5.92785697       3.00249135       0.67500000
In       5.92785701       8.79917556       3.00249128       0.67500000
In       8.84484098       8.84484097       0.00023717       0.67500000
P        7.37531197       7.37531179      10.31703457      -0.67500000
P       10.31703489       7.37531184       7.37531166      -0.67500000
P        7.37531197      10.31703480       7.37531161      -0.67500000
P       10.32558620      10.32558603      10.32558580      -0.67500000
In       8.79917020       5.87380488       8.79917002       0.67500000
In       5.87380504       8.79917002       8.79916994       0.67500000
In       8.79917021       8.79917011       5.87380477       0.67500000
63
Lattice="11.8016818 -7.6e-06 -7.6e-06 -7.6e-06 11.8016818 -7.8e-06 -7.6e-06 -7.8e-06 11.8016816" Properties=species:S:1:pos:R:3:mulliken_charges:R:1 virial="-0.001343979365248383 3.847269175329341e-05 3.847269175329341e-05 3.847269175329341e-05 -0.001345261788306826 3.847269175329341e-05 3.847269175329341e-05 3.847269175329341e-05 -0.0013426969421899398" fermi_energy=3.4539138232004998 core_to_fermi_energy=15.43004959127955 config_type=Accurate_Bulk energy=-61124.32822216415 pbc="T T T"
P        1.55093919       1.55093914       4.48211116      -0.67500000
P        4.43622190       1.47458166       1.47353608      -0.67500000
P        1.47458167       4.43622188       1.47353603      -0.67500000
P        4.57263418       4.57263416       4.42817548      -0.67500000
In       0.01803997       0.01803996      -0.00002064       0.67500000
In       2.96224129       0.02905406       2.98952426       0.67500000
In       0.02905411       2.96224124       2.98952422       0.67500000
In       2.96367506       2.96367504       0.00452832       0.67500000
P        1.49005359       1.49005342      10.31565382      -0.67500000
P        4.46467001       1.52094955       7.38127974      -0.67500000
P        1.52094965       4.46466990       7.38127968      -0.67500000
P        4.43733628       4.43733612      10.33734414      -0.67500000
In       0.03552273       0.03552260       5.89091882       0.67500000
In       2.96854235       0.02898347       8.81989751       0.67500000
In       0.02898365       2.96854218       8.81989747       0.67500000
In       3.10883201       3.10883190       5.89023935       0.67500000
P        1.49407050       7.38718562       4.41000681      -0.67500000
P        4.44740798       7.41095285       1.47162784      -0.67500000
P        1.49679259      10.35784905       1.48626724      -0.67500000
P        4.43309806      10.32828745       4.44290069      -0.67500000
In      -0.00919761       5.91309777      -0.00159981       0.67500000
In       2.99158358       5.90293466       2.94666786       0.67500000
In       0.01262599       8.85994189       2.94100903       0.67500000
In       2.98502464       8.89578095      -0.00101259       0.67500000
P        1.48373094       7.41016538      10.35342112      -0.67500000
P        4.50542424       7.27645460       7.29911824      -0.67500000
P        1.49389653      10.33020969       7.36356799      -0.67500000
P        4.45118094      10.33903867      10.28294350      -0.67500000
In       0.01993928       5.91677303       5.89931252       0.67500000
In       2.99186940       5.96046127       8.85818301       0.67500000
In       0.01000384       8.86540460       8.84948117       0.67500000
In       3.00562794       8.79957260       5.93052936       0.67500000
P        7.38718567       1.49407045       4.41000692      -0.67500000
P       10.35784906       1.49679258       1.48626740      -0.67500000
P        7.41095285       4.44740798       1.47162789      -0.67500000
P       10.32828749       4.43309800       4.44290080      -0.67500000
In       5.91309778      -0.00919763      -0.00159972       0.67500000
In       8.85994195       0.01262593       2.94100918       0.67500000
In       5.90293472       2.99158354       2.94666793       0.67500000
In       8.89578097       2.98502462      -0.00101247       0.67500000
P        7.41016555       1.48373077      10.35342123      -0.67500000
P       10.33020981       1.49389641       7.36356815      -0.67500000
P        7.27645474       4.50542411       7.29911835      -0.67500000
P       10.33903884       4.45118077      10.28294362      -0.67500000
In       5.91677314       0.01993917       5.89931262       0.67500000
In       8.86540478       0.01000366       8.84948133       0.67500000
In       5.96046145       2.99186921       8.85818309       0.67500000
In       8.79957272       3.00562782       5.93052948       0.67500000
P        7.30749411       7.30749409       4.54915822      -0.67500000
P       10.31454296       7.37634835       1.49248326      -0.67500000
P        7.37634837      10.31454296       1.49248321      -0.67500000
P       10.35249302      10.35249296       4.41738409      -0.67500000
In       5.91859222       5.91859221       0.00131086       0.67500000
In       8.80824655       5.93736141       3.02671546       0.67500000
In       5.93736147       8.80824651       3.02671539       0.67500000
In       8.84812936       8.84812934      -0.00166998       0.67500000
P        7.38517737       7.38517721      10.30261851      -0.67500000
P       10.33655887       7.39536163       7.37054430      -0.67500000
P        7.39536174      10.33655877       7.37054425      -0.67500000
P       10.33701037      10.33701021      10.33698447      -0.67500000
In       8.80430015       5.88996148       8.77576267       0.67500000
In       5.88996166       8.80429996       8.77576259       0.67500000
In       8.84431892       8.84431881       5.86674643       0.67500000
63
Lattice="11.8016818 -7.6e-06 -7.6e-06 -7.6e-06 11.8016818 -7.8e-06 -7.6e-06 -7.8e-06 11.8016816" Properties=species:S:1:pos:R:3:mulliken_charges:R:1 virial="-0.001343979365248383 3.847269175329341e-05 3.847269175329341e-05 3.847269175329341e-05 -0.001345261788306826 3.847269175329341e-05 3.847269175329341e-05 3.847269175329341e-05 -0.0013426969421899398" fermi_energy=3.4539138232004998 core_to_fermi_energy=15.43004959127955 config_type=Accurate_Bulk energy=-61124.21163040694 pbc="T T T"
P        1.61508868       1.61508863       4.55227072      -0.67500000
P        4.42608431       1.44644578       1.46323490      -0.67500000
P        1.44644578       4.42608430       1.46323485      -0.67500000
P        4.61375547       4.61375544       4.31257073      -0.67500000
In       0.02389140       0.02389138      -0.00090755       0.67500000
In       2.94466570       0.05450671       3.03048625       0.67500000
In       0.05450676       2.94466564       3.03048621       0.67500000
In       2.96412786       2.96412785       0.01210032       0.67500000
P        1.49515260       1.49515243      10.30949064      -0.67500000
P        4.49748345       1.54819449       7.39213415      -0.67500000
P        1.54819458       4.49748334       7.39213410      -0.67500000
P        4.43714690       4.43714674      10.35139464      -0.67500000
In       0.05438985       0.05438973       5.86695789       0.67500000
In       2.96148761       0.04996037       8.78961627       0.67500000
In       0.04996055       2.96148743       8.78961622       0.67500000
In       3.25102978       3.25102967       5.93973827       0.67500000
P        1.48967077       7.39660298       4.40034386      -0.67500000
P        4.44986792       7.43240057       1.45858310      -0.67500000
P        1.50360766      10.37862176       1.49819626      -0.67500000
P        4.42830911      10.33030527       4.45394550      -0.67500000
In      -0.04055706       5.90446567      -0.00586505       0.67500000
In       2.95428344       5.92631728       2.89675731       0.67500000
In       0.00865200       8.86288260       2.92318498       0.67500000
In       2.99919832       8.93485043      -0.00270451       0.67500000
P        1.45919699       7.44176240      10.39612475      -0.67500000
P        4.47537421       7.25257738       7.31584548      -0.67500000
P        1.48650282      10.33272223       7.35341115      -0.67500000
P        4.45069374      10.34538583      10.24074980      -0.67500000
In       0.02933179       5.91849027       5.89455943       0.67500000
In       2.96279190       5.99127205       8.92039869       0.67500000
In       0.00284735       8.87215124       8.84853319       0.67500000
In       3.00696589       8.79279604       5.93719259       0.67500000
P        7.39660303       1.48967072       4.40034396      -0.67500000
P       10.37862177       1.50360765       1.49819641      -0.67500000
P        7.43240057       4.44986792       1.45858315      -0.67500000
P       10.33030531       4.42830906       4.45394560      -0.67500000
In       5.90446568      -0.04055708      -0.00586495       0.67500000
In       8.86288266       0.00865195       2.92318514       0.67500000
In       5.92631733       2.95428340       2.89675737       0.67500000
In       8.93485045       2.99919831      -0.00270440       0.67500000
P        7.44176257       1.45919682      10.39612486      -0.67500000
P       10.33272234       1.48650269       7.35341131      -0.67500000
P        7.25257752       4.47537407       7.31584559      -0.67500000
P       10.34538601       4.45069356      10.24074991      -0.67500000
In       5.91849038       0.02933168       5.89455953       0.67500000
In       8.87215141       0.00284718       8.84853335       0.67500000
In       5.99127222       2.96279172       8.92039876       0.67500000
In       8.79279616       3.00696576       5.93719271       0.67500000
P        7.30374830       7.30374828       4.57754913      -0.67500000
P       10.29681178       7.36958100       1.49781392      -0.67500000
P        7.36958102      10.29681178       1.49781386      -0.67500000
P       10.36181486      10.36181480       4.40356239      -0.67500000
In       5.92005473       5.92005472       0.00544768       0.67500000
In       8.80054828       5.93384437       3.04903880       0.67500000
In       5.93384442       8.80054825       3.04903873       0.67500000
In       8.83835687       8.83835685      -0.00789650       0.67500000
P        7.37916704       7.37916687      10.28937573      -0.67500000
P       10.33875942       7.39577302       7.36392460      -0.67500000
P        7.39577312      10.33875932       7.36392455      -0.67500000
P       10.33624684      10.33624667      10.34514284      -0.67500000
In       8.78795304       5.88950908       8.74897114       0.67500000
In       5.88950926       8.78795285       8.74897107       0.67500000
In       8.85659454       8.85659443       5.86006723       0.67500000
63
Lattice="11.8016818 -7.6e-06 -7.6e-06 -7.6e-06 11.8016818 -7.8e-06 -7.6e-06 -7.8e-06 11.8016816" Properties=species:S:1:pos:R:3:mulliken_charges:R:1 virial="-0.001343979365248383 3.847269175329341e-05 3.847269175329341e-05 3.847269175329341e-05 -0.001345261788306826 3.847269175329341e-05 3.847269175329341e-05 3.847269175329341e-05 -0.0013426969421899398" fermi_energy=3.4539138232004998 core_to_fermi_energy=15.43004959127955 config_type=Accurate_Bulk energy=-61123.940851704465 pbc="T T T"
P        1.64887871       1.64887868       4.59994029      -0.67500000
P        4.41658005       1.42236138       1.45681444      -0.67500000
P        1.42236138       4.41658004       1.45681438      -0.67500000
P        4.63935481       4.63935477       4.21204435      -0.67500000
In       0.02488611       0.02488609      -0.00285794       0.67500000
In       2.92069289       0.07046485       3.05877152       0.67500000
In       0.07046490       2.92069284       3.05877147       0.67500000
In       2.96435089       2.96435087       0.02067046       0.67500000
P        1.49811830       1.49811813      10.30741344      -0.67500000
P        4.52031063       1.57112041       7.40136686      -0.67500000
P        1.57112051       4.52031052       7.40136680      -0.67500000
P        4.43500527       4.43500511      10.35789319      -0.67500000
In       0.05923276       0.05923264       5.83947691       0.67500000
In       2.95159333       0.06483318       8.76669140       0.67500000
In       0.06483337       2.95159314       8.76669135       0.67500000
In       3.44330009       3.44329997       6.04205053       0.67500000
P        1.48290898       7.40493646       4.39781613      -0.67500000
P        4.44668156       7.44293612       1.44951257      -0.67500000
P        1.50418698      10.38545044       1.50178364      -0.67500000
P        4.42282553      10.32924948       4.45713371      -0.67500000
In      -0.06846058       5.89190502      -0.00982281       0.67500000
In       2.91722776       5.94531957       2.86347831       0.67500000
In       0.00218798       8.86292158       2.91122009       0.67500000
In       3.00696755       8.95704216      -0.00637639       0.67500000
P        1.43300219       7.46312834      10.42821415      -0.67500000
P        4.44666371       7.22406524       7.32600456      -0.67500000
P        1.47749515      10.33239761       7.34442156      -0.67500000
P        4.44600647      10.34488366      10.20714799      -0.67500000
In       0.03464855       5.91417082       5.88913303       0.67500000
In       2.93353082       6.01612686       8.97005448       0.67500000
In      -0.00716622       8.87390021       8.84419090       0.67500000
In       3.01004290       8.78830393       5.94352687       0.67500000
P        7.40493651       1.48290893       4.39781623      -0.67500000
P       10.38545045       1.50418697       1.50178379      -0.67500000
P        7.44293613       4.44668155       1.44951262      -0.67500000
P       10.32924952       4.42282549       4.45713381      -0.67500000
In       5.89190504      -0.06846060      -0.00982272       0.67500000
In       8.86292164       0.00218792       2.91122024       0.67500000
In       5.94531963       2.91722771       2.86347837       0.67500000
In       8.95704217       3.00696753      -0.00637628       0.67500000
P        7.46312850       1.43300202      10.42821426      -0.67500000
P       10.33239773       1.47749503       7.34442172      -0.67500000
P        7.22406538       4.44666358       7.32600466      -0.67500000
P       10.34488384       4.44600630      10.20714810      -0.67500000
In       5.91417093       0.03464843       5.88913313       0.67500000
In       8.87390037      -0.00716640       8.84419106       0.67500000
In       6.01612703       2.93353065       8.97005454       0.67500000
In       8.78830406       3.01004277       5.94352698       0.67500000
P        7.28855384       7.28855383       4.59730408      -0.67500000
P       10.28240514       7.36269528       1.49998170      -0.67500000
P        7.36269530      10.28240514       1.49998164      -0.67500000
P       10.35408565      10.35408559       4.39529383      -0.67500000
In       5.91688399       5.91688397       0.00931935       0.67500000
In       8.79088894       5.93109277       3.06166663       0.67500000
In       5.93109283       8.79088891       3.06166655       0.67500000
In       8.82968737       8.82968735      -0.01441773       0.67500000
P        7.37108591       7.37108574      10.28038377      -0.67500000
P       10.33540617       7.38797600       7.35879821      -0.67500000
P        7.38797611      10.33540607       7.35879817      -0.67500000
P       10.33328297      10.33328280      10.34758199      -0.67500000
In       8.76702513       5.88328888       8.72689562       0.67500000
In       5.88328906       8.76702494       8.72689555       0.67500000
In       8.85112223       8.85112212       5.85687045       0.67500000
63
Lattice="11.8016818 -7.6e-06 -7.6e-06 -7.6e-06 11.8016818 -7.8e-06 -7.6e-06 -7.8e-06 11.8016816" Properties=species:S:1:pos:R:3:mulliken_charges:R:1 virial="-0.001343979365248383 3.847269175329341e-05 3.847269175329341e-05 3.847269175329341e-05 -0.001345261788306826 3.847269175329341e-05 3.847269175329341e-05 3.847269175329341e-05 -0.0013426969421899398" fermi_energy=3.4539138232004998 core_to_fermi_energy=15.43004959127955 config_type=Accurate_Bulk energy=-61123.560272819566 pbc="T T T"
P        1.64251004       1.64251001       4.61126390      -0.67500000
P        4.41179917       1.40766620       1.45093725      -0.67500000
P        1.40766621       4.41179916       1.45093719      -0.67500000
P        4.63599758       4.63599754       4.13853407      -0.67500000
In       0.02489403       0.02489401      -0.00642521       0.67500000
In       2.90663527       0.07633779       3.07114711       0.67500000
In       0.07633783       2.90663522       3.07114704       0.67500000
In       2.96430217       2.96430215       0.02555015       0.67500000
P        1.50047100       1.50047083      10.30517113      -0.67500000
P        4.52868895       1.59451250       7.40065180      -0.67500000
P        1.59451260       4.52868882       7.40065175      -0.67500000
P        4.43353461       4.43353445      10.35842898      -0.67500000
In       0.05355339       0.05355327       5.82320106       0.67500000
In       2.94778596       0.07795867       8.75121065       0.67500000
In       0.07795885       2.94778578       8.75121060       0.67500000
In       3.66959806       3.66959794       6.18151221       0.67500000
P        1.47631248       7.41038290       4.39812644      -0.67500000
P        4.44381237       7.44793352       1.44500736      -0.67500000
P        1.50311778      10.38590326       1.50043256      -0.67500000
P        4.42076304      10.32694415       4.45831727      -0.67500000
In      -0.08751888       5.88236440      -0.01267477       0.67500000
In       2.88956535       5.96047258       2.84336224       0.67500000
In      -0.00190385       8.86262371       2.90492721       0.67500000
In       3.01053255       8.96859554      -0.00848519       0.67500000
P        1.41293949       7.47673950      10.44886741      -0.67500000
P        4.42345674       7.19368683       7.32742300      -0.67500000
P        1.47390899      10.33316634       7.33944301      -0.67500000
P        4.44193199      10.34240182      10.18525996      -0.67500000
In       0.03899051       5.90871424       5.88785529       0.67500000
In       2.90598042       6.03291295       9.00458447       0.67500000
In      -0.01409707       8.87549942       8.83981304       0.67500000
In       3.01124581       8.78627269       5.94663286       0.67500000
P        7.41038295       1.47631243       4.39812654      -0.67500000
P       10.38590327       1.50311777       1.50043271      -0.67500000
P        7.44793353       4.44381236       1.44500741      -0.67500000
P       10.32694419       4.42076299       4.45831737      -0.67500000
In       5.88236442      -0.08751890      -0.01267467       0.67500000
In       8.86262377      -0.00190391       2.90492736       0.67500000
In       5.96047263       2.88956530       2.84336230       0.67500000
In       8.96859556       3.01053253      -0.00848509       0.67500000
P        7.47673965       1.41293933      10.44886751      -0.67500000
P       10.33316646       1.47390886       7.33944317      -0.67500000
P        7.19368698       4.42345661       7.32742309      -0.67500000
P       10.34240201       4.44193182      10.18526007      -0.67500000
In       5.90871436       0.03899039       5.88785540       0.67500000
In       8.87549959      -0.01409724       8.83981321       0.67500000
In       6.03291312       2.90598025       9.00458453       0.67500000
In       8.78627281       3.01124568       5.94663297       0.67500000
P        7.27515542       7.27515541       4.61052869      -0.67500000
P       10.27484845       7.35892278       1.50078031      -0.67500000
P        7.35892280      10.27484845       1.50078025      -0.67500000
P       10.34410873      10.34410868       4.39031942      -0.67500000
In       5.91329844       5.91329843       0.01371541       0.67500000
In       8.78412424       5.93198782       3.06761464       0.67500000
In       5.93198787       8.78412421       3.06761457       0.67500000
In       8.82471986       8.82471984      -0.01842640       0.67500000
P        7.36497797       7.36497781      10.27562698      -0.67500000
P       10.33196726       7.38111525       7.35561741      -0.67500000
P        7.38111536      10.33196715       7.35561736      -0.67500000
P       10.33107588      10.33107571      10.34732569      -0.67500000
In       8.75064143       5.87703842       8.71150597       0.67500000
In       5.87703861       8.75064123       8.71150590       0.67500000
In       8.84423756       8.84423745       5.85277664       0.67500000
63
Lattice="11.8016818 -7.6e-06 -7.6e-06 -7.6e-06 11.8016818 -7.8e-06 -7.6e-06 -7.8e-06 11.8016816" Properties=species:S:1:pos:R:3:mulliken_charges:R:1 virial="-0.001343979365248383 3.847269175329341e-05 3.847269175329341e-05 3.847269175329341e-05 -0.001345261788306826 3.847269175329341e-05 3.847269175329341e-05 3.847269175329341e-05 -0.0013426969421899398" fermi_energy=3.4539138232004998 core_to_fermi_energy=15.43004959127955 config_type=Accurate_Bulk energy=-61123.2018956664 pbc="T T T"
P        1.62914017       1.62914016       4.61726092      -0.67500000
P        4.40879679       1.39799282       1.44526295      -0.67500000
P        1.39799282       4.40879678       1.44526289      -0.67500000
P        4.60569524       4.60569520       4.08112472      -0.67500000
In       0.02410177       0.02410175      -0.01179669       0.67500000
In       2.90443813       0.07790598       3.07635212       0.67500000
In       0.07790601       2.90443808       3.07635205       0.67500000
In       2.96309046       2.96309044       0.02617446       0.67500000
P        1.50151879       1.50151862      10.30150934      -0.67500000
P        4.52485815       1.62619091       7.38839083      -0.67500000
P        1.62619101       4.52485803       7.38839077      -0.67500000
P        4.43131918       4.43131902      10.35686602      -0.67500000
In       0.04431579       0.04431566       5.81960040       0.67500000
In       2.94954411       0.09524992       8.73519343       0.67500000
In       0.09525010       2.94954393       8.73519337       0.67500000
In       3.91004392       3.91004380       6.32282750       0.67500000
P        1.46756727       7.41124927       4.39721640      -0.67500000
P        4.44114996       7.45098964       1.44287117      -0.67500000
P        1.50130213      10.38737244       1.50067982      -0.67500000
P        4.42005835      10.32602769       4.46049278      -0.67500000
In      -0.10283573       5.87401866      -0.01452707       0.67500000
In       2.86982736       5.97075695       2.82991003       0.67500000
In      -0.00491729       8.86136513       2.90082999       0.67500000
In       3.01051016       8.97611263      -0.00876122       0.67500000
P        1.39509620       7.48575956      10.46463402      -0.67500000
P        4.40200070       7.16127332       7.32670454      -0.67500000
P        1.47515394      10.33496334       7.33672671      -0.67500000
P        4.43719616      10.34016126      10.16950600      -0.67500000
In       0.04690772       5.89825746       5.89211298       0.67500000
In       2.87547965       6.03947572       9.02919879       0.67500000
In      -0.01822810       8.87737877       8.83559389       0.67500000
In       3.00872617       8.78079875       5.94485954       0.67500000
P        7.41124932       1.46756722       4.39721649      -0.67500000
P       10.38737244       1.50130212       1.50067997      -0.67500000
P        7.45098964       4.44114996       1.44287122      -0.67500000
P       10.32602773       4.42005831       4.46049288      -0.67500000
In       5.87401868      -0.10283574      -0.01452698       0.67500000
In       8.86136519      -0.00491735       2.90083014       0.67500000
In       5.97075700       2.86982731       2.82991009       0.67500000
In       8.97611264       3.01051015      -0.00876112       0.67500000
P        7.48575971       1.39509604      10.46463412      -0.67500000
P       10.33496346       1.47515381       7.33672687      -0.67500000
P        7.16127347       4.40200057       7.32670463      -0.67500000
P       10.34016144       4.43719598      10.16950611      -0.67500000
In       5.89825758       0.04690760       5.89211308       0.67500000
In       8.87737894      -0.01822827       8.83559405       0.67500000
In       6.03947589       2.87547948       9.02919884       0.67500000
In       8.78079888       3.00872603       5.94485964       0.67500000
P        7.26312305       7.26312303       4.62030407      -0.67500000
P       10.27006858       7.35640614       1.50134526      -0.67500000
P        7.35640616      10.27006858       1.50134520      -0.67500000
P       10.33821008      10.33821003       4.38612472      -0.67500000
In       5.90833254       5.90833252       0.02013043       0.67500000
In       8.77985291       5.93384010       3.07090717       0.67500000
In       5.93384015       8.77985288       3.07090710       0.67500000
In       8.82207120       8.82207118      -0.01978589       0.67500000
P        7.36010583       7.36010566      10.27658787      -0.67500000
P       10.33008137       7.37629663       7.35179777      -0.67500000
P        7.37629674      10.33008126       7.35179773      -0.67500000
P       10.32838337      10.32838320      10.34612922      -0.67500000
In       8.73777062       5.87316760       8.70131623       0.67500000
In       5.87316778       8.73777043       8.70131616       0.67500000
In       8.83876106       8.83876095       5.84553199       0.67500000
63