65
Lattice="11.801682 -8e-06 -8e-06 -8e-06 11.801682 -8e-06 -8e-06 -8e-06 11.801682" Properties=species:S:1:pos:R:3:mulliken_charges:R:1:hirshfeld_charges:R:1 fermi_energy=3.718544537463 core_to_fermi_energy=15.690571930710242 config_type=Interstitial energy=-63090.2449112123 pbc="T T T"
P        1.39920831       1.45247423       4.47448693      -0.64200000      -0.23000000
P        3.95366012       2.21009026       2.21009026      -0.45200000      -0.16000000
P        1.39920831       4.47448693       1.45247423      -0.64200000      -0.23000000
P        4.46393993       4.49500199       4.49500199      -0.66200000      -0.24000000
P        1.39917659       1.45251896      10.23218153      -0.64200000      -0.23000000
P        4.41344252       1.45250407       7.35334711      -0.67600000      -0.24000000
P        1.46344552       4.39848917       7.34102103      -0.67400000      -0.24000000
P        4.41234516       4.39469861      10.31198706      -0.67200000      -0.23000000
P        1.46344552       7.34102103       4.39848917      -0.67400000      -0.24000000
P        4.41344252       7.35334711       1.45250407      -0.67600000      -0.24000000
P        1.39917659      10.23218153       1.45251896      -0.64200000      -0.23000000
P        4.41234516      10.31198706       4.39469861      -0.67200000      -0.23000000
P        1.46343035       7.36565480      10.30819100      -0.67400000      -0.24000000
P        4.35663350       7.35335843       7.35335843      -0.68100000      -0.24000000
P        1.46343035      10.30819100       7.36565480      -0.67400000      -0.24000000
P        4.46390220      10.21173131      10.21173131      -0.66200000      -0.24000000
P        7.42367155       1.42372263       4.43606442      -0.67600000      -0.24000000
P       10.35507455       1.45250207       1.45250207      -0.67700000      -0.24000000
P        7.42367155       4.43606442       1.42372263      -0.67600000      -0.24000000
P       10.31557469       4.40975903       4.40975903      -0.67400000      -0.24000000
P        7.42364858       1.48128230      10.27064207      -0.67600000      -0.24000000
P       10.27527092       1.45249885       7.35334480      -0.68000000      -0.24000000
P        7.36354488       4.41319574       7.36558983      -0.67500000      -0.24000000
P       10.32958347       4.41359103      10.29309324      -0.67600000      -0.24000000
P        7.36354488       7.36558983       4.41319574      -0.67500000      -0.24000000
P       10.27527092       7.35334480       1.45249885      -0.68000000      -0.24000000
P        7.42364858      10.27064207       1.48128230      -0.67600000      -0.24000000
P       10.32958347      10.29309324       4.41359103      -0.67600000      -0.24000000
P        7.36352821       7.34110433      10.29349515      -0.67500000      -0.24000000
P       10.31346532       7.35333830       7.35333830      -0.67500000      -0.24000000
P        7.36352821      10.29349515       7.34110433      -0.67500000      -0.24000000
P       10.31554921      10.29691573      10.29691573      -0.67400000      -0.24000000
In       0.00573685      -0.03657439      -0.03657439       0.67600000       0.24000000
In       2.78606782      -0.11036745       3.01534704       0.73400000       0.26000000
In       0.00574803       2.94158773       2.94158773       0.67600000       0.24000000
In       2.78606782       3.01534704      -0.11036745       0.73400000       0.26000000
In      -0.04810107      -0.03046152       5.92895324       0.65600000       0.23000000
In       2.96339778      -0.03811373       8.84644434       0.68200000       0.25000000
In      -0.04811206       2.93549077       8.77774031       0.65600000       0.23000000
In       2.96341699       2.94311666       5.86022899       0.68200000       0.25000000
In      -0.04810107       5.92895324      -0.03046152       0.65600000       0.23000000
In       2.96341699       5.86022899       2.94311666       0.68200000       0.25000000
In      -0.04811206       8.77774031       2.93549077       0.65600000       0.23000000
In       2.96339778       8.84644434      -0.03811373       0.68200000       0.25000000
In      -0.00668079       5.88304552       5.88304552       0.68000000       0.24000000
In       2.91743305       5.86338313       8.84330059       0.68600000       0.24000000
In      -0.00669401       8.82365045       8.82365045       0.68000000       0.24000000
In       2.91743305       8.84330059       5.86338313       0.68600000       0.24000000
In       6.09246045      -0.17901033      -0.17901033       0.63300000       0.22000000
In       8.89475187      -0.01945496       2.92446348       0.68600000       0.24000000
In       6.09250901       3.08407316       3.08407316       0.63300000       0.22000000
In       8.89475187       2.92446348      -0.01945496       0.68600000       0.24000000
In       5.88188844      -0.02230381       5.88317834       0.68700000       0.24000000
In       8.84670801      -0.04416195       8.81560243       0.67800000       0.24000000
In       5.88188703       2.92731623       8.82351624       0.68700000       0.24000000
In       8.84672179       2.94917518       5.89109638       0.67800000       0.24000000
In       5.88188844       5.88317834      -0.02230381       0.68700000       0.24000000
In       8.84672179       5.89109638       2.94917518       0.67800000       0.24000000
In       5.88188703       8.82351624       2.92731623       0.68700000       0.24000000
In       8.84670801       8.81560243      -0.04416195       0.67800000       0.24000000
In       5.89930729       5.94677398       5.94677398       0.66100000       0.23000000
In       8.84561090       5.87358554       8.83311263       0.67900000       0.24000000
In       5.89928077       8.75995939       8.75995939       0.66100000       0.23000000
In       8.84561090       8.83311263       5.87358554       0.67900000       0.24000000
P        3.95365641       0.69505275       0.69505275      -0.45200000      -0.16000000
65
Lattice="11.801682 -8e-06 -8e-06 -8e-06 11.801682 -8e-06 -8e-06 -8e-06 11.801682" Properties=species:S:1:pos:R:3:mulliken_charges:R:1:hirshfeld_charges:R:1 fermi_energy=3.718544537463 core_to_fermi_energy=15.690571930710242 config_type=Interstitial energy=-63090.241726974156 pbc="T T T"
P        1.37375640       1.46139304       4.50730257      -0.64200000      -0.23000000
P        3.95953935       2.15447558       2.26127645      -0.45200000      -0.16000000
P        1.42720473       4.43772068       1.44097388      -0.64200000      -0.23000000
P        4.46339879       4.48980801       4.49499630      -0.66200000      -0.24000000
P        1.38111408       1.44373548      10.20039653      -0.64200000      -0.23000000
P        4.41390666       1.45437275       7.34976968      -0.67600000      -0.24000000
P        1.46077371       4.41150633       7.34563645      -0.67400000      -0.24000000
P        4.41516012       4.39535694      10.30862444      -0.67200000      -0.23000000
P        1.46617902       7.33476811       4.38522267      -0.67400000      -0.24000000
P        4.41165584       7.35582907       1.45017912      -0.67600000      -0.24000000
P        1.41993666      10.26421411       1.46455408      -0.64200000      -0.23000000
P        4.41513714      10.30267848       4.40694992      -0.67200000      -0.23000000
P        1.46687923       7.37296915      10.32199991      -0.67400000      -0.24000000
P        4.35963330       7.34861164       7.35682715      -0.68100000      -0.24000000
P        1.45472760      10.29339252       7.35684455      -0.67400000      -0.24000000
P        4.45883527      10.21996988      10.20212116      -0.66200000      -0.24000000
P        7.43347879       1.42069261       4.44082207      -0.67600000      -0.24000000
P       10.35315241       1.45426214       1.45030541      -0.67700000      -0.24000000
P        7.41879675       4.43585603       1.42808816      -0.67600000      -0.24000000
P       10.31770303       4.41192673       4.40595819      -0.67400000      -0.24000000
P        7.42705994       1.48981344      10.26554363      -0.67600000      -0.24000000
P       10.26564254       1.45271895       7.35748877      -0.68000000      -0.24000000
P        7.36644794       4.41771881       7.36156633      -0.67500000      -0.24000000
P       10.32960812       4.42045034      10.29663809      -0.67600000      -0.24000000
P        7.36216728       7.36800388       4.40920848      -0.67500000      -0.24000000
P       10.28794227       7.35089675       1.45076774      -0.68000000      -0.24000000
P        7.41309880      10.27816673       1.47177587      -0.67600000      -0.24000000
P       10.32522519      10.28807443       4.40473153      -0.67600000      -0.24000000
P        7.36282882       7.34375415      10.29521594      -0.67500000      -0.24000000
P       10.31273170       7.35523766       7.35216588      -0.67500000      -0.24000000
P        7.36506070      10.29475854       7.34317409      -0.67500000      -0.24000000
P       10.31649378      10.29612712      10.30369285      -0.67400000      -0.24000000
In       0.00863331      -0.03028249      -0.03758683       0.67600000       0.24000000
In       2.78112015      -0.09347192       3.07000295       0.73400000       0.26000000
In       0.00626993       2.93803876       2.94101973       0.67600000       0.24000000
In       2.79587617       2.97774694      -0.14562411       0.73400000       0.26000000
In      -0.06963455      -0.04168945       5.93852484       0.65600000       0.23000000
In       2.95382164      -0.04402463       8.82432038       0.68200000       0.25000000
In      -0.06033758       2.94700647       8.76833386       0.65600000       0.23000000
In       2.95796893       2.94978957       5.86962116       0.68200000       0.25000000
In      -0.02859636       5.91361183      -0.01958683       0.65600000       0.23000000
In       2.96810059       5.84903212       2.93428467       0.68200000       0.25000000
In      -0.03507048       8.78792403       2.92461789       0.65600000       0.23000000
In       2.96788076       8.86464017      -0.03158619       0.68200000       0.25000000
In      -0.00712162       5.88848799       5.87786927       0.68000000       0.24000000
In       2.91558396       5.87081114       8.85216729       0.68600000       0.24000000
In      -0.00939949       8.81892592       8.83123010       0.68000000       0.24000000
In       2.91625465       8.82718880       5.86344838       0.68600000       0.24000000
In       6.08684501      -0.16733810      -0.19454646       0.63300000       0.22000000
In       8.89141173      -0.02117854       2.91775285       0.68600000       0.24000000
In       6.09671927       3.07610319       3.09239633       0.63300000       0.22000000
In       8.89347305       2.93017289      -0.01860007       0.68600000       0.24000000
In       5.88504210      -0.02136800       5.88238313       0.68700000       0.24000000
In       8.84610694      -0.04624191       8.82214383       0.67800000       0.24000000
In       5.88409919       2.93219249       8.81757588       0.68700000       0.24000000
In       8.85008719       2.95256620       5.89028410       0.67800000       0.24000000
In       5.88139781       5.88536610      -0.02173439       0.68700000       0.24000000
In       8.84963032       5.89541106       2.94731804       0.67800000       0.24000000
In       5.88056890       8.82559298       2.92247332       0.68700000       0.24000000
In       8.84787440       8.81371285      -0.03873551       0.67800000       0.24000000
In       5.89881418       5.94664754       5.94143515       0.66100000       0.23000000
In       8.84504149       5.87774131       8.83360340       0.67900000       0.24000000
In       5.89889621       8.76224227       8.76042873       0.66100000       0.23000000
In       8.84318125       8.83369063       5.87240145       0.67900000       0.24000000
P        3.95140034       0.72860662       0.66833028      -0.45200000      -0.16000000
65
Lattice="11.801682 -8e-06 -8e-06 -8e-06 11.801682 -8e-06 -8e-06 -8e-06 11.801682" Properties=species:S:1:pos:R:3:mulliken_charges:R:1:hirshfeld_charges:R:1 fermi_energy=3.718544537463 core_to_fermi_energy=15.690571930710242 config_type=Interstitial energy=-63090.224322211 pbc="T T T"
P        1.35199934       1.45931066       4.52951578      -0.64200000      -0.23000000
P        3.98377900       2.07478851       2.34444144      -0.45200000      -0.16000000
P        1.45755387       4.40367643       1.43191175      -0.64200000      -0.23000000
P        4.46431930       4.48715479       4.49016572      -0.66200000      -0.24000000
P        1.36794548       1.44141164      10.17303320      -0.64200000      -0.23000000
P        4.41367920       1.45619428       7.34277224      -0.67600000      -0.24000000
P        1.46151519       4.41710107       7.34139734      -0.67400000      -0.24000000
P        4.42221639       4.40391907      10.29589155      -0.67200000      -0.23000000
P        1.46672111       7.33007092       4.37461874      -0.67400000      -0.24000000
P        4.41168090       7.35903334       1.44626475      -0.67600000      -0.24000000
P        1.43391475      10.28445782       1.47077643      -0.64200000      -0.23000000
P        4.42099409      10.27596223       4.43200989      -0.67200000      -0.23000000
P        1.46683836       7.37528933      10.33016373      -0.67400000      -0.24000000
P        4.36622916       7.34259020       7.36449522      -0.68100000      -0.24000000
P        1.44271790      10.28174695       7.34983313      -0.67400000      -0.24000000
P        4.44587941      10.23111085      10.19480658      -0.66200000      -0.24000000
P        7.44920172       1.42321939       4.44913019      -0.67600000      -0.24000000
P       10.35010581       1.45574661       1.44646591      -0.67700000      -0.24000000
P        7.41931409       4.44037030       1.42623604      -0.67600000      -0.24000000
P       10.32399221       4.41031542       4.39971174      -0.67400000      -0.24000000
P        7.42460485       1.49745816      10.26143930      -0.67600000      -0.24000000
P       10.25751846       1.45226725       7.36541941      -0.68000000      -0.24000000
P        7.37100255       4.42486451       7.35694509      -0.67500000      -0.24000000
P       10.32958856       4.42673077      10.29725421      -0.67600000      -0.24000000
P        7.36378873       7.36862927       4.40465298      -0.67500000      -0.24000000
P       10.29741403       7.34897338       1.44644706      -0.68000000      -0.24000000
P        7.39375463      10.29425106       1.46219888      -0.67600000      -0.24000000
P       10.31691449      10.28376519       4.39480071      -0.67600000      -0.24000000
P        7.36323380       7.35310144      10.29662781      -0.67500000      -0.24000000
P       10.31273098       7.35718248       7.34993655      -0.67500000      -0.24000000
P        7.36441735      10.29949313       7.34340309      -0.67500000      -0.24000000
P       10.31691779      10.29878614      10.31236642      -0.67400000      -0.24000000
In       0.01413394      -0.02014391      -0.03898813       0.67600000       0.24000000
In       2.77184488      -0.11434703       3.13280176       0.73400000       0.26000000
In       0.01063424       2.92956938       2.93643535       0.67600000       0.24000000
In       2.81002099       2.95749612      -0.18514971       0.73400000       0.26000000
In      -0.09424301      -0.05147300       5.94551906       0.65600000       0.23000000
In       2.94133974      -0.04574321       8.80289677       0.68200000       0.25000000
In      -0.06853744       2.95821146       8.75868959       0.65600000       0.23000000
In       2.95568268       2.94859190       5.86413244       0.68200000       0.25000000
In      -0.01037324       5.89624119      -0.00906667       0.65600000       0.23000000
In       2.97271454       5.84491456       2.92531567       0.68200000       0.25000000
In      -0.02799162       8.79481019       2.91545005       0.65600000       0.23000000
In       2.96852192       8.87389068      -0.02871385       0.68200000       0.25000000
In      -0.00761180       5.89079408       5.87257445       0.68000000       0.24000000
In       2.91023460       5.87638347       8.85281459       0.68600000       0.24000000
In      -0.01532043       8.81670178       8.83944333       0.68000000       0.24000000
In       2.91105148       8.80411821       5.87518841       0.68600000       0.24000000
In       6.06618350      -0.15003082      -0.20968253       0.63300000       0.22000000
In       8.88474055      -0.02040673       2.91088501       0.68600000       0.24000000
In       6.11369460       3.07787535       3.10169434       0.63300000       0.22000000
In       8.89240849       2.93403330      -0.02222286       0.68600000       0.24000000
In       5.88778190      -0.01634426       5.87549482       0.68700000       0.24000000
In       8.84260218      -0.04810761       8.82994631       0.67800000       0.24000000
In       5.88775997       2.93695255       8.80713548       0.68700000       0.24000000
In       8.85909450       2.95840650       5.89421127       0.67800000       0.24000000
In       5.88249071       5.89124716      -0.02505869       0.68700000       0.24000000
In       8.85652133       5.89900818       2.94604749       0.67800000       0.24000000
In       5.88201099       8.82568748       2.91805374       0.68700000       0.24000000
In       8.84523766       8.81961883      -0.02978890       0.67800000       0.24000000
In       5.89851194       5.94728774       5.93468049       0.66100000       0.23000000
In       8.84400198       5.88541223       8.83480582       0.67900000       0.24000000
In       5.89707022       8.77171043       8.76328539       0.66100000       0.23000000
In       8.83932846       8.83487750       5.87289134       0.67900000       0.24000000
P        3.94323332       0.78077604       0.65997287      -0.45200000      -0.16000000
65
Lattice="11.801682 -8e-06 -8e-06 -8e-06 11.801682 -8e-06 -8e-06 -8e-06 11.801682" Properties=species:S:1:pos:R:3:mulliken_charges:R:1:hirshfeld_charges:R:1 fermi_energy=3.718544537463 core_to_fermi_energy=15.690571930710242 config_type=Interstitial energy=-63090.18378922053 pbc="T T T"
P        1.33804697       1.45457893       4.53700209      -0.64200000      -0.23000000
P        4.05078667       1.96088248       2.43379246      -0.45200000      -0.16000000
P        1.47605440       4.38548969       1.42846191      -0.64200000      -0.23000000
P        4.46244640       4.48549451       4.47959000      -0.66200000      -0.24000000
P        1.36601191       1.44381006      10.16117624      -0.64200000      -0.23000000
P        4.41274174       1.45797612       7.33485457      -0.67600000      -0.24000000
P        1.46340038       4.41744844       7.33521516      -0.67400000      -0.24000000
P        4.42893858       4.41405520      10.28361469      -0.67200000      -0.23000000
P        1.46386548       7.32984699       4.37051040      -0.67400000      -0.24000000
P        4.41145507       7.36434679       1.44302226      -0.67600000      -0.24000000
P        1.43886191      10.29294097       1.47039952      -0.64200000      -0.23000000
P        4.42410035      10.24434243       4.45935202      -0.67200000      -0.23000000
P        1.46501901       7.37518513      10.33206151      -0.67400000      -0.24000000
P        4.37311115       7.33408084       7.37201433      -0.68100000      -0.24000000
P        1.43199780      10.27612932       7.34505623      -0.67400000      -0.24000000
P        4.43199817      10.23585080      10.18436268      -0.66200000      -0.24000000
P        7.46350698       1.43321612       4.45903433      -0.67600000      -0.24000000
P       10.34471084       1.45714711       1.44383895      -0.67700000      -0.24000000
P        7.42544656       4.45262241       1.41777994      -0.67600000      -0.24000000
P       10.32814210       4.40932625       4.39650110      -0.67400000      -0.24000000
P        7.41855882       1.50165063      10.25835645      -0.67600000      -0.24000000
P       10.25609356       1.45071723       7.37488893      -0.68000000      -0.24000000
P        7.37399284       4.43087041       7.35320884      -0.67500000      -0.24000000
P       10.32890319       4.42901132      10.29525664      -0.67600000      -0.24000000
P        7.36467049       7.36993600       4.40128036      -0.67500000      -0.24000000
P       10.30222923       7.34962210       1.44254003      -0.68000000      -0.24000000
P        7.37304535      10.31116831       1.45429879      -0.67600000      -0.24000000
P       10.30689958      10.28360980       4.38598633      -0.67600000      -0.24000000
P        7.36472363       7.36283895      10.29691756      -0.67500000      -0.24000000
P       10.31222476       7.35923943       7.34839601      -0.67500000      -0.24000000
P        7.36190529      10.30680133       7.33965685      -0.67500000      -0.24000000
P       10.31598749      10.30250195      10.31885610      -0.67400000      -0.24000000
In       0.01633587      -0.00980974      -0.04065909       0.67600000       0.24000000
In       2.75835642      -0.15403495       3.18336395       0.73400000       0.26000000
In       0.01126865       2.92417844       2.93177722       0.67600000       0.24000000
In       2.82452339       2.95443092      -0.20503342       0.73400000       0.26000000
In      -0.11254375      -0.05664285       5.94660431       0.65600000       0.23000000
In       2.93065615      -0.04393748       8.78633589       0.68200000       0.25000000
In      -0.06853971       2.96338683       8.75506048       0.65600000       0.23000000
In       2.95428892       2.94381489       5.85341407       0.68200000       0.25000000
In      -0.00227221       5.88637346      -0.00574743       0.65600000       0.23000000
In       2.97243872       5.85019911       2.91851912       0.68200000       0.25000000
In      -0.02740062       8.79998556       2.91037115       0.65600000       0.23000000
In       2.96676210       8.87740618      -0.02970365       0.68200000       0.25000000
In      -0.00840988       5.89115363       5.87040120       0.68000000       0.24000000
In       2.90490610       5.87835806       8.85052880       0.68600000       0.24000000
In      -0.02109567       8.81738833       8.84498240       0.68000000       0.24000000
In       2.90512983       8.78237912       5.89263008       0.68600000       0.24000000
In       6.04297867      -0.14080815      -0.22818327       0.63300000       0.22000000
In       8.87264396      -0.01561806       2.90697570       0.68600000       0.24000000
In       6.14103863       3.09664274       3.10927519       0.63300000       0.22000000
In       8.89048182       2.93481907      -0.02767237       0.68600000       0.24000000
In       5.88662985      -0.00858926       5.86217740       0.68700000       0.24000000
In       8.83815165      -0.04937163       8.83466610       0.67800000       0.24000000
In       5.88997362       2.94033037       8.79756738       0.68700000       0.24000000
In       8.87059790       2.96270874       5.90337401       0.67800000       0.24000000
In       5.88130987       5.90024930      -0.03032670       0.68700000       0.24000000
In       8.86349191       5.90487222       2.94693081       0.67800000       0.24000000
In       5.88275913       8.82777517       2.91576135       0.68700000       0.24000000
In       8.84069541       8.82825040      -0.02128721       0.67800000       0.24000000
In       5.89705772       5.94604542       5.92642975       0.66100000       0.23000000
In       8.84275560       5.89127374       8.83562046       0.67900000       0.24000000
In       5.89825963       8.77924348       8.76175049       0.66100000       0.23000000
In       8.83600903       8.83709559       5.87380043       0.67900000       0.24000000
P        3.93815076       0.82472195       0.65984859      -0.45200000      -0.16000000
65
Lattice="11.801682 -8e-06 -8e-06 -8e-06 11.801682 -8e-06 -8e-06 -8e-06 11.801682" Properties=species:S:1:pos:R:3:mulliken_charges:R:1:hirshfeld_charges:R:1 fermi_energy=3.718544537463 core_to_fermi_energy=15.690571930710242 config_type=Interstitial energy=-63090.12710396515 pbc="T T T"
P        1.33189485       1.45285839       4.53592033      -0.64200000      -0.23000000
P        4.14802196       1.83073691       2.50405182      -0.45200000      -0.16000000
P        1.48399601       4.37938208       1.42871008      -0.64200000      -0.23000000
P        4.45721126       4.48486657       4.47012375      -0.66200000      -0.24000000
P        1.36816238       1.44683944      10.15788146      -0.64200000      -0.23000000
P        4.41169489       1.45926994       7.32916334      -0.67600000      -0.24000000
P        1.46472667       4.41633520       7.33187709      -0.67400000      -0.24000000
P        4.43487588       4.42352933      10.27503001      -0.67200000      -0.23000000
P        1.45983175       7.33107277       4.36971732      -0.67400000      -0.24000000
P        4.41093782       7.37068687       1.44203934      -0.67600000      -0.24000000
P        1.43930756      10.29424891       1.46757493      -0.64200000      -0.23000000
P        4.42269949      10.22039768       4.48178234      -0.67200000      -0.23000000
P        1.46319291       7.37370095      10.33121975      -0.67400000      -0.24000000
P        4.37880818       7.32644632       7.37692778      -0.68100000      -0.24000000
P        1.42544731      10.27358899       7.34205787      -0.67400000      -0.24000000
P        4.42143535      10.23541552      10.17432237      -0.66200000      -0.24000000
P        7.46888578       1.44799249       4.46649802      -0.67600000      -0.24000000
P       10.33875228       1.45810704       1.44322748      -0.67700000      -0.24000000
P        7.43290617       4.46657628       1.40824747      -0.67600000      -0.24000000
P       10.33005846       4.40969036       4.39567064      -0.67400000      -0.24000000
P        7.41126536       1.50260350      10.25783016      -0.67600000      -0.24000000
P       10.25816516       1.44759492       7.38154407      -0.68000000      -0.24000000
P        7.37652101       4.43376668       7.35060049      -0.67500000      -0.24000000
P       10.32841190       4.42841889      10.29344238      -0.67600000      -0.24000000
P        7.36379506       7.37260798       4.39922246      -0.67500000      -0.24000000
P       10.30417278       7.35103340       1.44044609      -0.68000000      -0.24000000
P        7.35736462      10.32327694       1.44756256      -0.67600000      -0.24000000
P       10.29821914      10.28704718       4.37971351      -0.67600000      -0.24000000
P        7.36664406       7.36916454      10.29648395      -0.67500000      -0.24000000
P       10.31183232       7.36056232       7.34796622      -0.67500000      -0.24000000
P        7.36035832      10.31247708       7.33575190      -0.67500000      -0.24000000
P       10.31551844      10.30561304      10.32276014      -0.67400000      -0.24000000
In       0.01632237      -0.00205308      -0.04070160       0.67600000       0.24000000
In       2.74447110      -0.18824933       3.21451632       0.73400000       0.26000000
In       0.00933134       2.92219300       2.92837710       0.67600000       0.24000000
In       2.83154596       2.96428364      -0.21685063       0.73400000       0.26000000
In      -0.12084629      -0.05858980       5.94404487       0.65600000       0.23000000
In       2.92347199      -0.04142916       8.77554129       0.68200000       0.25000000
In      -0.06653080       2.96381039       8.75426277       0.65600000       0.23000000
In       2.95263312       2.93967658       5.84624691       0.68200000       0.25000000
In      -0.00047815       5.88238806      -0.00589674       0.65600000       0.23000000
In       2.96994529       5.85730606       2.91408686       0.68200000       0.25000000
In      -0.03017857       8.80411575       2.90877371       0.65600000       0.23000000
In       2.96449919       8.87737088      -0.03262716       0.68200000       0.25000000
In      -0.00890801       5.89062986       5.87057629       0.68000000       0.24000000
In       2.90219383       5.87898006       8.84800958       0.68600000       0.24000000
In      -0.02477995       8.81899623       8.84797155       0.68000000       0.24000000
In       2.90061725       8.76582584       5.90702812       0.68600000       0.24000000
In       6.02084860      -0.13655715      -0.24160589       0.63300000       0.22000000
In       8.85701016      -0.00820219       2.90677931       0.68600000       0.24000000
In       6.16129772       3.12497024       3.11253481       0.63300000       0.22000000
In       8.88838385       2.93371693      -0.03232590       0.68600000       0.24000000
In       5.88433085      -0.00242145       5.85065028       0.68700000       0.24000000
In       8.83434828      -0.04995317       8.83763990       0.67800000       0.24000000
In       5.89135569       2.94224492       8.79071283       0.68700000       0.24000000
In       8.88152011       2.96386267       5.91191224       0.67800000       0.24000000
In       5.87935043       5.90970013      -0.03345283       0.68700000       0.24000000
In       8.86782746       5.91124394       2.94931208       0.67800000       0.24000000
In       5.88141581       8.83443874       2.91629148       0.68700000       0.24000000
In       8.83739383       8.83479131      -0.01592702       0.67800000       0.24000000
In       5.89671265       5.94385760       5.92007042       0.66100000       0.23000000
In       8.84213160       5.89379420       8.83615810       0.67900000       0.24000000
In       5.90129851       8.78295899       8.75849379       0.66100000       0.23000000
In       8.83483906       8.83900069       5.87437039       0.67900000       0.24000000