63
Lattice="11.8016818 -7.6e-06 -7.6e-06 -7.6e-06 11.8016818 -7.8e-06 -7.6e-06 -7.8e-06 11.8016816" Properties=species:S:1:pos:R:3:mulliken_charges:R:1 virial="-0.001343979365248383 3.847269175329341e-05 3.847269175329341e-05 3.847269175329341e-05 -0.001345261788306826 3.847269175329341e-05 3.847269175329341e-05 3.847269175329341e-05 -0.0013426969421899398" fermi_energy=3.4539138232004998 core_to_fermi_energy=15.43004959127955 config_type=Accurate_Bulk energy=-62662.547369276515 pbc="T T T"
P        1.51235700       1.51235693       4.42678057      -0.67500000
P        4.42678068       1.51235705       1.51235702      -0.67500000
P        1.51235702       4.42678066       1.51235692      -0.67500000
In      -0.00098996      -0.00098997      -0.00098996       0.67500000
In       2.94799631       0.00303186       2.94799625       0.67500000
In       0.00303193       2.94799625       2.94799621       0.67500000
In       2.94799632       2.94799629       0.00303188       0.67500000
P        1.47617133       1.47617117      10.32289452      -0.67500000
P        4.42447329       1.51235058       7.33889819      -0.67500000
P        1.51235073       4.42447317       7.33889810      -0.67500000
P        4.42562086       4.42562069      10.32646429      -0.67500000
In       0.01681043       0.01681031       5.89575434       0.67500000
In       2.95550175       0.01680527       8.83444750       0.67500000
In       0.01680545       2.95550159       8.83444743       0.67500000
In       3.07144904       3.07144886       5.77980905       0.67500000
P        1.51235070       7.33889825       4.42447310      -0.67500000
P        4.42447329       7.33889830       1.51235055      -0.67500000
P        1.47617132      10.32289470       1.47617112      -0.67500000
P        4.42562085      10.32646446       4.42562061      -0.67500000
In       0.01681044       5.89575444       0.01681033       0.67500000
In       3.07144904       5.77980919       3.07144886       0.67500000
In       0.01680545       8.83444760       2.95550154       0.67500000
In       2.95550175       8.83444766       0.01680528       0.67500000
P        1.47616687       7.37507423      10.33004040      -0.67500000
P        4.42677306       7.33889072       7.33889061      -0.67500000
P        1.47616687      10.33004058       7.37507412      -0.67500000
P        4.42561709      10.32646110      10.32646092      -0.67500000
In       0.00302693       5.90326042       5.90326031       0.67500000
In       2.94798833       5.90325754       8.84822221       0.67500000
In      -0.00100194       8.85224700       8.85224684       0.67500000
In       2.94798832       8.84822239       5.90325743       0.67500000
P        7.33889829       1.51235066       4.42447320      -0.67500000
P       10.32289469       1.47617132       1.47617128      -0.67500000
P        7.33889827       4.42447326       1.51235064      -0.67500000
P       10.32646450       4.42562079       4.42562071      -0.67500000
In       5.89575446       0.01681045       0.01681045       0.67500000
In       8.83444765       0.01680539       2.95550169       0.67500000
In       5.77980916       3.07144908       3.07144907       0.67500000
In       8.83444765       2.95550174       0.01680540       0.67500000
P        7.37507438       1.47616671      10.33004053      -0.67500000
P       10.33004070       1.47616675       7.37507428      -0.67500000
P        7.33889087       4.42677293       7.33889069      -0.67500000
P       10.32646125       4.42561692      10.32646102      -0.67500000
In       5.90326054       0.00302679       5.90326041       0.67500000
In       8.85224717      -0.00100211       8.85224699       0.67500000
In       5.90325771       2.94798816       8.84822228       0.67500000
In       8.84822252       2.94798819       5.90325754       0.67500000
P        7.33889089       7.33889083       4.42677284      -0.67500000
P       10.33004070       7.37507439       1.47616671      -0.67500000
P        7.37507439      10.33004071       1.47616667      -0.67500000
P       10.32646126      10.32646120       4.42561685      -0.67500000
In       5.90326054       5.90326052       0.00302682       0.67500000
In       8.84822252       5.90325765       2.94798815       0.67500000
In       5.90325771       8.84822245       2.94798812       0.67500000
In       8.85224717       8.85224715      -0.00100210       0.67500000
P        7.37506977       7.37506960      10.32288473      -0.67500000
P       10.32288503       7.37506965       7.37506954      -0.67500000
P        7.37506977      10.32288490       7.37506950      -0.67500000
P       10.32645747      10.32645732      10.32645715      -0.67500000
In       5.77979287       5.77979268       5.77979253       0.67500000
In       8.83443806       5.89574307       8.83443779       0.67500000
In       5.89574323       8.83443788       8.83443773       0.67500000
In       8.83443807       8.83443796       5.89574297       0.67500000
63
Lattice="11.8016818 -7.6e-06 -7.6e-06 -7.6e-06 11.8016818 -7.8e-06 -7.6e-06 -7.8e-06 11.8016816" Properties=species:S:1:pos:R:3:mulliken_charges:R:1 virial="-0.001343979365248383 3.847269175329341e-05 3.847269175329341e-05 3.847269175329341e-05 -0.001345261788306826 3.847269175329341e-05 3.847269175329341e-05 3.847269175329341e-05 -0.0013426969421899398" fermi_energy=3.4539138232004998 core_to_fermi_energy=15.43004959127955 config_type=Accurate_Bulk energy=-62662.52062030246 pbc="T T T"
P        1.58480723       1.58480717       4.41439095      -0.67500000
P        4.46245779       1.52957826       1.47214278      -0.67500000
P        1.52957823       4.46245777       1.47214269      -0.67500000
In       0.01857674       0.01857673       0.01420423       0.67500000
In       3.00211252       0.04187931       2.94127264       0.67500000
In       0.04187937       3.00211245       2.94127260       0.67500000
In       2.96377641       2.96377638      -0.01919660       0.67500000
P        1.48485721       1.48485705      10.31883493      -0.67500000
P        4.47019763       1.49716585       7.39855327      -0.67500000
P        1.49716598       4.47019751       7.39855319      -0.67500000
P        4.45046059       4.45046043      10.32351258      -0.67500000
In       0.06924007       0.06923995       5.84773780       0.67500000
In       2.96858259       0.00476877       8.85453195       0.67500000
In       0.00476895       2.96858242       8.85453189       0.67500000
In       3.04917698       3.04917682       5.94418905       0.67500000
P        1.52949773       7.35116652       4.42129698      -0.67500000
P        4.45323323       7.36678225       1.51894499      -0.67500000
P        1.49978228      10.35752841       1.50088413      -0.67500000
P        4.44740693      10.34507081       4.42638189      -0.67500000
In       0.02611561       5.92975801      -0.01416499       0.67500000
In       3.08119993       5.80557503       3.04511429       0.67500000
In       0.03265597       8.85444212       2.96004411       0.67500000
In       2.97012095       8.86203418       0.04248300       0.67500000
P        1.49834772       7.42385721      10.32897778      -0.67500000
P        4.45441674       7.34280899       7.31205492      -0.67500000
P        1.49343838      10.36271625       7.35092113      -0.67500000
P        4.44667017      10.31976759      10.32915677      -0.67500000
In       0.01711605       5.92463635       5.90226038       0.67500000
In       2.98016392       5.95138803       8.86185359       0.67500000
In       0.02044095       8.89092335       8.83973916       0.67500000
In       2.96602705       8.86192792       5.90147950       0.67500000
P        7.35116657       1.52949768       4.42129709      -0.67500000
P       10.35752842       1.49978227       1.50088428      -0.67500000
P        7.36678223       4.45323322       1.51894508      -0.67500000
P       10.34507086       4.44740688       4.42638199      -0.67500000
In       5.92975801       0.02611561      -0.01416487       0.67500000
In       8.85444218       0.03265591       2.96004426       0.67500000
In       5.80557502       3.08119995       3.04511448       0.67500000
In       8.86203417       2.97012094       0.04248312       0.67500000
P        7.42385737       1.49834756      10.32897789      -0.67500000
P       10.36271637       1.49343826       7.35092129      -0.67500000
P        7.34280914       4.45441661       7.31205500      -0.67500000
P       10.31976774       4.44667000      10.32915687      -0.67500000
In       5.92463648       0.01711593       5.90226048       0.67500000
In       8.89092351       0.02044078       8.83973931       0.67500000
In       5.95138820       2.98016375       8.86185365       0.67500000
In       8.86192805       2.96602692       5.90147960       0.67500000
P        7.36391442       7.36391436       4.43745597      -0.67500000
P       10.35243535       7.39878122       1.46953838      -0.67500000
P        7.39878122      10.35243534       1.46953833      -0.67500000
P       10.35213806      10.35213800       4.43021220      -0.67500000
In       5.92212080       5.92212078       0.00996707       0.67500000
In       8.87181360       5.93796514       2.95459716       0.67500000
In       5.93796520       8.87181354       2.95459712       0.67500000
In       8.87126390       8.87126389      -0.00745953       0.67500000
P        7.39053741       7.39053725      10.32271294      -0.67500000
P       10.34393693       7.39537294       7.38229541      -0.67500000
P        7.39537305      10.34393681       7.38229536      -0.67500000
P       10.35093087      10.35093071      10.32947697      -0.67500000
In       5.75589137       5.75589118       5.70345247       0.67500000
In       8.83578866       5.91306326       8.82115377       0.67500000
In       5.91306342       8.83578848       8.82115370       0.67500000
In       8.85991398       8.85991386       5.90850857       0.67500000
63
Lattice="11.8016818 -7.6e-06 -7.6e-06 -7.6e-06 11.8016818 -7.8e-06 -7.6e-06 -7.8e-06 11.8016816" Properties=species:S:1:pos:R:3:mulliken_charges:R:1 virial="-0.001343979365248383 3.847269175329341e-05 3.847269175329341e-05 3.847269175329341e-05 -0.001345261788306826 3.847269175329341e-05 3.847269175329341e-05 3.847269175329341e-05 -0.0013426969421899398" fermi_energy=3.4539138232004998 core_to_fermi_energy=15.43004959127955 config_type=Accurate_Bulk energy=-62662.35197587748 pbc="T T T"
P        1.71645068       1.71645063       4.36458952      -0.67500000
P        4.48283285       1.51177084       1.40400489      -0.67500000
P        1.51177082       4.48283283       1.40400482      -0.67500000
In       0.01560583       0.01560582       0.03494086       0.67500000
In       3.05173199       0.06536261       2.92548588       0.67500000
In       0.06536266       3.05173194       2.92548583       0.67500000
In       2.95653255       2.95653252      -0.05074660       0.67500000
P        1.46749376       1.46749359      10.31314875      -0.67500000
P        4.49598774       1.45485733       7.46737375      -0.67500000
P        1.45485745       4.49598763       7.46737368      -0.67500000
P        4.45426964       4.45426948      10.31927926      -0.67500000
In       0.14112434       0.14112421       5.76045903       0.67500000
In       2.95628790      -0.03640861       8.87592352       0.67500000
In      -0.03640843       2.95628774       8.87592347       0.67500000
In       3.00910725       3.00910711       6.14190617       0.67500000
P        1.51999953       7.33812979       4.42164962      -0.67500000
P        4.45243006       7.36640899       1.53117631      -0.67500000
P        1.50018542      10.37530697       1.53827296      -0.67500000
P        4.44404682      10.34564306       4.43039275      -0.67500000
In       0.00654862       5.95322044      -0.06607459       0.67500000
In       3.04230178       5.80147586       3.00503355       0.67500000
In       0.02157062       8.85024531       2.96933712       0.67500000
In       2.96103974       8.86996383       0.08029736       0.67500000
P        1.50090432       7.46350389      10.32314480      -0.67500000
P        4.45553869       7.33519750       7.29677592      -0.67500000
P        1.48632141      10.38485949       7.31359588      -0.67500000
P        4.44145763      10.28579691      10.33432860      -0.67500000
In       0.00693759       5.92306534       5.90815822       0.67500000
In       2.98841543       5.97823970       8.87965975       0.67500000
In       0.01817541       8.91635830       8.82177190       0.67500000
In       2.95848640       8.85384948       5.89823930       0.67500000
P        7.33812985       1.51999948       4.42164973      -0.67500000
P       10.37530697       1.50018542       1.53827310      -0.67500000
P        7.36640897       4.45243006       1.53117639      -0.67500000
P       10.34564312       4.44404677       4.43039286      -0.67500000
In       5.95322045       0.00654861      -0.06607448       0.67500000
In       8.85024537       0.02157056       2.96933727       0.67500000
In       5.80147587       3.04230177       3.00503370       0.67500000
In       8.86996383       2.96103973       0.08029747       0.67500000
P        7.46350405       1.50090415      10.32314490      -0.67500000
P       10.38485961       1.48632128       7.31359604      -0.67500000
P        7.33519765       4.45553857       7.29677600      -0.67500000
P       10.28579707       4.44145747      10.33432871      -0.67500000
In       5.92306547       0.00693747       5.90815832       0.67500000
In       8.91635847       0.01817524       8.82177205       0.67500000
In       5.97823987       2.98841526       8.87965980       0.67500000
In       8.85384961       2.95848627       5.89823940       0.67500000
P        7.37814486       7.37814481       4.44003694      -0.67500000
P       10.35215430       7.39554838       1.46357803      -0.67500000
P        7.39554838      10.35215429       1.46357798      -0.67500000
P       10.36796134      10.36796129       4.43918232      -0.67500000
In       5.91718938       5.91718936       0.02336731       0.67500000
In       8.87472560       5.93988399       2.96068824       0.67500000
In       5.93988405       8.87472554       2.96068819       0.67500000
In       8.86676352       8.86676351      -0.00733815       0.67500000
P        7.38234114       7.38234098      10.32979972      -0.67500000
P       10.34082631       7.39404282       7.39390181      -0.67500000
P        7.39404293      10.34082620       7.39390176      -0.67500000
P       10.35251493      10.35251477      10.33723909      -0.67500000
In       5.74871138       5.74871120       5.66623562       0.67500000
In       8.81674860       5.90925354       8.81681943       0.67500000
In       5.90925370       8.81674842       8.81681937       0.67500000
In       8.86919225       8.86919213       5.92185563       0.67500000
63
Lattice="11.8016818 -7.6e-06 -7.6e-06 -7.6e-06 11.8016818 -7.8e-06 -7.6e-06 -7.8e-06 11.8016816" Properties=species:S:1:pos:R:3:mulliken_charges:R:1 virial="-0.001343979365248383 3.847269175329341e-05 3.847269175329341e-05 3.847269175329341e-05 -0.001345261788306826 3.847269175329341e-05 3.847269175329341e-05 3.847269175329341e-05 -0.0013426969421899398" fermi_energy=3.4539138232004998 core_to_fermi_energy=15.43004959127955 config_type=Accurate_Bulk energy=-62661.882717067565 pbc="T T T"
P        1.92429598       1.92429594       4.24675549      -0.67500000
P        4.49510273       1.48675662       1.35502206      -0.67500000
P        1.48675661       4.49510271       1.35502199      -0.67500000
In       0.01155532       0.01155531       0.04559649       0.67500000
In       3.07488842       0.08181127       2.92161056       0.67500000
In       0.08181132       3.07488838       2.92161050       0.67500000
In       2.95164514       2.95164511      -0.06291181       0.67500000
P        1.45730323       1.45730306      10.31208791      -0.67500000
P        4.50467331       1.43460569       7.49993115      -0.67500000
P        1.43460581       4.50467320       7.49993109      -0.67500000
P        4.45483043       4.45483026      10.32083235      -0.67500000
In       0.16239199       0.16239185       5.72493438       0.67500000
In       2.94936073      -0.05585040       8.88913023       0.67500000
In      -0.05585023       2.94936056       8.88913018       0.67500000
In       2.96754391       2.96754378       6.25714368       0.67500000
P        1.51209826       7.32938406       4.42491811      -0.67500000
P        4.44692745       7.36134520       1.54083198      -0.67500000
P        1.49810000      10.38747088       1.56422376      -0.67500000
P        4.43614179      10.34942089       4.43428398      -0.67500000
In      -0.00935405       5.96407979      -0.09998805       0.67500000
In       3.00387130       5.79410687       2.97539750       0.67500000
In       0.01406118       8.84211836       2.97307014       0.67500000
In       2.95664239       8.87309583       0.10417441       0.67500000
P        1.50267826       7.48072487      10.32195895      -0.67500000
P        4.45332030       7.33345033       7.29533189      -0.67500000
P        1.48469761      10.38904852       7.30082493      -0.67500000
P        4.43489998      10.26507317      10.33567647      -0.67500000
In      -0.00059311       5.91899203       5.91509000       0.67500000
In       2.99167769       5.98631626       8.89022913       0.67500000
In       0.01298257       8.92052229       8.81944823       0.67500000
In       2.95497550       8.84742535       5.89603904       0.67500000
P        7.32938412       1.51209820       4.42491821      -0.67500000
P       10.38747088       1.49810001       1.56422390      -0.67500000
P        7.36134518       4.44692745       1.54083205      -0.67500000
P       10.34942094       4.43614175       4.43428409      -0.67500000
In       5.96407980      -0.00935405      -0.09998794       0.67500000
In       8.84211843       0.01406112       2.97307029       0.67500000
In       5.79410689       3.00387129       2.97539763       0.67500000
In       8.87309582       2.95664238       0.10417452       0.67500000
P        7.48072502       1.50267810      10.32195904      -0.67500000
P       10.38904866       1.48469749       7.30082507      -0.67500000
P        7.33345048       4.45332017       7.29533196      -0.67500000
P       10.26507332       4.43489981      10.33567658      -0.67500000
In       5.91899216      -0.00059323       5.91509010       0.67500000
In       8.92052246       0.01298241       8.81944838       0.67500000
In       5.98631643       2.99167751       8.89022918       0.67500000
In       8.84742548       2.95497537       5.89603914       0.67500000
P        7.38393544       7.38393539       4.43459604      -0.67500000
P       10.34968963       7.38836328       1.45981020      -0.67500000
P        7.38836329      10.34968962       1.45981015      -0.67500000
P       10.36223505      10.36223500       4.43810233      -0.67500000
In       5.91349861       5.91349860       0.03344569       0.67500000
In       8.87676951       5.93178484       2.96308182       0.67500000
In       5.93178489       8.87676944       2.96308177       0.67500000
In       8.86197473       8.86197472      -0.00391770       0.67500000
P        7.37642681       7.37642665      10.33545199      -0.67500000
P       10.33608912       7.38988047       7.40112680      -0.67500000
P        7.38988057      10.33608901       7.40112675      -0.67500000
P       10.35001514      10.35001498      10.34306685      -0.67500000
In       5.76252663       5.76252646       5.66725740       0.67500000
In       8.80620102       5.90559188       8.81811326       0.67500000
In       5.90559205       8.80620084       8.81811320       0.67500000
In       8.86353189       8.86353178       5.92991134       0.67500000
63
Lattice="11.8016818 -7.6e-06 -7.6e-06 -7.6e-06 11.8016818 -7.8e-06 -7.6e-06 -7.8e-06 11.8016816" Properties=species:S:1:pos:R:3:mulliken_charges:R:1 virial="-0.001343979365248383 3.847269175329341e-05 3.847269175329341e-05 3.847269175329341e-05 -0.001345261788306826 3.847269175329341e-05 3.847269175329341e-05 3.847269175329341e-05 -0.0013426969421899398" fermi_energy=3.4539138232004998 core_to_fermi_energy=15.43004959127955 config_type=Accurate_Bulk energy=-62661.27928406453 pbc="T T T"
P        2.13404704       2.13404700       4.11686638      -0.67500000
P        4.50007578       1.47036484       1.33264497      -0.67500000
P        1.47036483       4.50007576       1.33264490      -0.67500000
In       0.00944455       0.00944454       0.05018430       0.67500000
In       3.06896286       0.09953022       2.93602525       0.67500000
In       0.09953026       3.06896282       2.93602519       0.67500000
In       2.95067303       2.95067300      -0.06647413       0.67500000
P        1.45345769       1.45345753      10.31205188      -0.67500000
P        4.50472753       1.42917000       7.51075540      -0.67500000
P        1.42917012       4.50472742       7.51075535      -0.67500000
P        4.45546463       4.45546447      10.32116356      -0.67500000
In       0.12761841       0.12761827       5.74306469       0.67500000
In       2.94692129      -0.06156959       8.89549546       0.67500000
In      -0.06156942       2.94692112       8.89549541       0.67500000
In       2.93343584       2.93343571       6.29261286       0.67500000
P        1.50878462       7.32522513       4.42735373      -0.67500000
P        4.44393585       7.35639271       1.54719810      -0.67500000
P        1.49751795      10.39383561       1.57686484      -0.67500000
P        4.42999996      10.35309572       4.43557338      -0.67500000
In      -0.01651826       5.96604750      -0.11270288       0.67500000
In       2.98188018       5.78697196       2.96223720       0.67500000
In       0.01112448       8.83629277       2.97336556       0.67500000
In       2.95653061       8.87322497       0.11426884       0.67500000
P        1.50292840       7.48490858      10.32314042      -0.67500000
P        4.45203077       7.33314681       7.29589642      -0.67500000
P        1.48615743      10.38278672       7.30351137      -0.67500000
P        4.43161172      10.25626849      10.33524636      -0.67500000
In      -0.00437459       5.91525237       5.91932125       0.67500000
In       2.99276150       5.98789661       8.89385117       0.67500000
In       0.00998228       8.91795339       8.82188377       0.67500000
In       2.95505282       8.84436292       5.89495870       0.67500000
P        7.32522519       1.50878456       4.42735383      -0.67500000
P       10.39383561       1.49751796       1.57686498      -0.67500000
P        7.35639270       4.44393585       1.54719817      -0.67500000
P       10.35309577       4.42999991       4.43557348      -0.67500000
In       5.96604751      -0.01651827      -0.11270277       0.67500000
In       8.83629284       0.01112442       2.97336571       0.67500000
In       5.78697198       2.98188017       2.96223732       0.67500000
In       8.87322496       2.95653060       0.11426895       0.67500000
P        7.48490874       1.50292824      10.32314051      -0.67500000
P       10.38278686       1.48615731       7.30351151      -0.67500000
P        7.33314696       4.45203064       7.29589649      -0.67500000
P       10.25626865       4.43161155      10.33524647      -0.67500000
In       5.91525250      -0.00437471       5.91932134       0.67500000
In       8.91795356       0.00998211       8.82188391       0.67500000
In       5.98789678       2.99276132       8.89385122       0.67500000
In       8.84436306       2.95505268       5.89495880       0.67500000
P        7.38478476       7.38478471       4.43253600      -0.67500000
P       10.34833372       7.38480468       1.45816670      -0.67500000
P        7.38480468      10.34833372       1.45816666      -0.67500000
P       10.34626003      10.34625998       4.43345598      -0.67500000
In       5.91200201       5.91200199       0.03754152       0.67500000
In       8.87811503       5.92720328       2.96384126       0.67500000
In       5.92720334       8.87811496       2.96384121       0.67500000
In       8.86001924       8.86001923      -0.00228470       0.67500000
P        7.37413415       7.37413399      10.33749064      -0.67500000
P       10.33385125       7.38734834       7.40393828      -0.67500000
P        7.38734845      10.33385115       7.40393823      -0.67500000
P       10.34857632      10.34857616      10.34522506      -0.67500000
In       5.77062130       5.77062112       5.67093208       0.67500000
In       8.80207883       5.90397742       8.81866298       0.67500000
In       5.90397758       8.80207865       8.81866292       0.67500000
In       8.85767663       8.85767652       5.93366236       0.67500000
63
Lattice="11.8016818 -7.6e-06 -7.6e-06 -7.6e-06 11.8016818 -7.8e-06 -7.6e-06 -7.8e-06 11.8016816" Properties=species:S:1:pos:R:3:mulliken_charges:R:1 virial="-0.001343979365248383 3.847269175329341e-05 3.847269175329341e-05 3.847269175329341e-05 -0.001345261788306826 3.847269175329341e-05 3.847269175329341e-05 3.847269175329341e-05 -0.0013426969421899398" fermi_energy=3.4539138232004998 core_to_fermi_energy=15.43004959127955 config_type=Accurate_Bulk energy=-62660.84321897676 pbc="T T T"
P        2.37258994       2.37258991       3.98252446      -0.67500000
P        4.50288490       1.45188879       1.30862763      -0.67500000
P        1.45188878       4.50288489       1.30862755      -0.67500000
In       0.00722411       0.00722410       0.05494072       0.67500000
In       3.05407576       0.13431392       2.95938103       0.67500000
In       0.13431396       3.05407572       2.95938096       0.67500000
In       2.95014441       2.95014438      -0.07091970       0.67500000
P        1.44937398       1.44937381      10.31173927      -0.67500000
P        4.50179216       1.42356583       7.52178744      -0.67500000
P        1.42356595       4.50179205       7.52178739      -0.67500000
P        4.45671090       4.45671074      10.32005335      -0.67500000
In       0.09879880       0.09879864       5.75218851       0.67500000
In       2.94178889      -0.06918100       8.90046697       0.67500000
In      -0.06918083       2.94178873       8.90046692       0.67500000
In       2.90072821       2.90072808       6.30882613       0.67500000
P        1.50530618       7.32057126       4.42995445      -0.67500000
P        4.43920449       7.34681223       1.55788307      -0.67500000
P        1.49770991      10.40256431       1.59108793      -0.67500000
P        4.42066538      10.36049514       4.43578020      -0.67500000
In      -0.02668050       5.96715442      -0.12553685       0.67500000
In       2.95178969       5.77483080       2.95021244       0.67500000
In       0.00750936       8.83372113       2.97482826       0.67500000
In       2.95627613       8.87220323       0.12544413       0.67500000
P        1.50208143       7.48786163      10.32539707      -0.67500000
P        4.44991745       7.33235977       7.29588772      -0.67500000
P        1.48313153      10.37640984       7.30512228      -0.67500000
P        4.42708905      10.24612118      10.33434058      -0.67500000
In      -0.00690147       5.91004604       5.92376555       0.67500000
In       2.99251318       5.98916240       8.89684792       0.67500000
In       0.00790587       8.91637472       8.82287333       0.67500000
In       2.95430050       8.84277121       5.89548339       0.67500000
P        7.32057131       1.50530613       4.42995455      -0.67500000
P       10.40256431       1.49770992       1.59108807      -0.67500000
P        7.34681221       4.43920449       1.55788314      -0.67500000
P       10.36049519       4.42066533       4.43578030      -0.67500000
In       5.96715444      -0.02668051      -0.12553674       0.67500000
In       8.83372119       0.00750930       2.97482840       0.67500000
In       5.77483083       2.95178967       2.95021255       0.67500000
In       8.87220321       2.95627612       0.12544423       0.67500000
P        7.48786179       1.50208126      10.32539717      -0.67500000
P       10.37640999       1.48313141       7.30512241      -0.67500000
P        7.33235992       4.44991732       7.29588779      -0.67500000
P       10.24612134       4.42708888      10.33434069      -0.67500000
In       5.91004616      -0.00690159       5.92376564       0.67500000
In       8.91637489       0.00790571       8.82287347       0.67500000
In       5.98916257       2.99251301       8.89684797       0.67500000
In       8.84277135       2.95430036       5.89548349       0.67500000
P        7.38494541       7.38494536       4.43180208      -0.67500000
P       10.34665670       7.38147490       1.45760170      -0.67500000
P        7.38147490      10.34665669       1.45760166      -0.67500000
P       10.33097140      10.33097135       4.43276603      -0.67500000
In       5.91000892       5.91000891       0.04252857       0.67500000
In       8.87966456       5.92213851       2.96571826       0.67500000
In       5.92213856       8.87966450       2.96571822       0.67500000
In       8.85781912       8.85781911      -0.00048798       0.67500000
P        7.37148468       7.37148452      10.33981849      -0.67500000
P       10.33183382       7.38426853       7.40640123      -0.67500000
P        7.38426863      10.33183371       7.40640118      -0.67500000
P       10.34666059      10.34666043      10.34720499      -0.67500000
In       5.77624853       5.77624835       5.67486302       0.67500000
In       8.79773505       5.90205618       8.81869188       0.67500000
In       5.90205634       8.79773487       8.81869182       0.67500000
In       8.85328097       8.85328086       5.93708248       0.67500000
63