63
Lattice="11.8016818 -7.6e-06 -7.6e-06 -7.6e-06 11.8016818 -7.8e-06 -7.6e-06 -7.8e-06 11.8016816" Properties=species:S:1:pos:R:3:mulliken_charges:R:1 virial="-0.001343979365248383 3.847269175329341e-05 3.847269175329341e-05 3.847269175329341e-05 -0.001345261788306826 3.847269175329341e-05 3.847269175329341e-05 3.847269175329341e-05 -0.0013426969421899398" fermi_energy=3.4539138232004998 core_to_fermi_energy=15.43004959127955 config_type=Accurate_Bulk energy=-62662.547369276515 pbc="T T T"
P        1.51235700       1.51235693       4.42678057      -0.67500000
P        4.42678068       1.51235705       1.51235702      -0.67500000
P        1.51235702       4.42678066       1.51235692      -0.67500000
In      -0.00098996      -0.00098997      -0.00098996       0.67500000
In       2.94799631       0.00303186       2.94799625       0.67500000
In       0.00303193       2.94799625       2.94799621       0.67500000
In       2.94799632       2.94799629       0.00303188       0.67500000
P        1.47617133       1.47617117      10.32289452      -0.67500000
P        4.42447329       1.51235058       7.33889819      -0.67500000
P        1.51235073       4.42447317       7.33889810      -0.67500000
P        4.42562086       4.42562069      10.32646429      -0.67500000
In       0.01681043       0.01681031       5.89575434       0.67500000
In       2.95550175       0.01680527       8.83444750       0.67500000
In       0.01680545       2.95550159       8.83444743       0.67500000
In       3.07144904       3.07144886       5.77980905       0.67500000
P        1.51235070       7.33889825       4.42447310      -0.67500000
P        4.42447329       7.33889830       1.51235055      -0.67500000
P        1.47617132      10.32289470       1.47617112      -0.67500000
P        4.42562085      10.32646446       4.42562061      -0.67500000
In       0.01681044       5.89575444       0.01681033       0.67500000
In       3.07144904       5.77980919       3.07144886       0.67500000
In       0.01680545       8.83444760       2.95550154       0.67500000
In       2.95550175       8.83444766       0.01680528       0.67500000
P        1.47616687       7.37507423      10.33004040      -0.67500000
P        4.42677306       7.33889072       7.33889061      -0.67500000
P        1.47616687      10.33004058       7.37507412      -0.67500000
P        4.42561709      10.32646110      10.32646092      -0.67500000
In       0.00302693       5.90326042       5.90326031       0.67500000
In       2.94798833       5.90325754       8.84822221       0.67500000
In      -0.00100194       8.85224700       8.85224684       0.67500000
In       2.94798832       8.84822239       5.90325743       0.67500000
P        7.33889829       1.51235066       4.42447320      -0.67500000
P       10.32289469       1.47617132       1.47617128      -0.67500000
P        7.33889827       4.42447326       1.51235064      -0.67500000
P       10.32646450       4.42562079       4.42562071      -0.67500000
In       5.89575446       0.01681045       0.01681045       0.67500000
In       8.83444765       0.01680539       2.95550169       0.67500000
In       5.77980916       3.07144908       3.07144907       0.67500000
In       8.83444765       2.95550174       0.01680540       0.67500000
P        7.37507438       1.47616671      10.33004053      -0.67500000
P       10.33004070       1.47616675       7.37507428      -0.67500000
P        7.33889087       4.42677293       7.33889069      -0.67500000
P       10.32646125       4.42561692      10.32646102      -0.67500000
In       5.90326054       0.00302679       5.90326041       0.67500000
In       8.85224717      -0.00100211       8.85224699       0.67500000
In       5.90325771       2.94798816       8.84822228       0.67500000
In       8.84822252       2.94798819       5.90325754       0.67500000
P        7.33889089       7.33889083       4.42677284      -0.67500000
P       10.33004070       7.37507439       1.47616671      -0.67500000
P        7.37507439      10.33004071       1.47616667      -0.67500000
P       10.32646126      10.32646120       4.42561685      -0.67500000
In       5.90326054       5.90326052       0.00302682       0.67500000
In       8.84822252       5.90325765       2.94798815       0.67500000
In       5.90325771       8.84822245       2.94798812       0.67500000
In       8.85224717       8.85224715      -0.00100210       0.67500000
P        7.37506977       7.37506960      10.32288473      -0.67500000
P       10.32288503       7.37506965       7.37506954      -0.67500000
P        7.37506977      10.32288490       7.37506950      -0.67500000
P       10.32645747      10.32645732      10.32645715      -0.67500000
In       5.77979287       5.77979268       5.77979253       0.67500000
In       8.83443806       5.89574307       8.83443779       0.67500000
In       5.89574323       8.83443788       8.83443773       0.67500000
In       8.83443807       8.83443796       5.89574297       0.67500000
63
Lattice="11.8016818 -7.6e-06 -7.6e-06 -7.6e-06 11.8016818 -7.8e-06 -7.6e-06 -7.8e-06 11.8016816" Properties=species:S:1:pos:R:3:mulliken_charges:R:1 virial="-0.001343979365248383 3.847269175329341e-05 3.847269175329341e-05 3.847269175329341e-05 -0.001345261788306826 3.847269175329341e-05 3.847269175329341e-05 3.847269175329341e-05 -0.0013426969421899398" fermi_energy=3.4539138232004998 core_to_fermi_energy=15.43004959127955 config_type=Accurate_Bulk energy=-62662.48219217198 pbc="T T T"
P        1.49308981       1.61720687       4.48421149      -0.67500000
P        4.48421140       1.61720691       1.49309029      -0.67500000
P        1.52760763       4.46507700       1.52760758      -0.67500000
In       0.02835227       0.03149868       0.02835224       0.67500000
In       2.99907807       0.19106869       2.99907735       0.67500000
In      -0.01325696       3.01445758       2.95311523       0.67500000
In       2.95311539       3.01445761      -0.01325702       0.67500000
P        1.49638622       1.50155957      10.33326929      -0.67500000
P        4.43811083       1.52798600       7.38553279      -0.67500000
P        1.48045883       4.53235919       7.42688878      -0.67500000
P        4.43499393       4.49386349      10.31957048      -0.67500000
In       0.02495293       0.03560120       5.90036251       0.67500000
In       2.97148864       0.01684744       8.86347745       0.67500000
In       0.02228467       2.98329466       8.86522275       0.67500000
In       2.99342401       3.10110869       5.96019932       0.67500000
P        1.55111855       7.35779283       4.41812988      -0.67500000
P        4.41813008       7.35779288       1.55111839      -0.67500000
P        1.54358656      10.44482660       1.54358639      -0.67500000
P        4.42119504      10.40855165       4.42119483      -0.67500000
In       0.02983826       5.92698493       0.02983812       0.67500000
In       3.14021218       5.73782109       3.14021200       0.67500000
In       0.08602707       8.88898686       2.95314636       0.67500000
In       2.95314659       8.88898689       0.08602689       0.67500000
P        1.48058534       7.44646844      10.37358894      -0.67500000
P        4.45232345       7.39603525       7.31437148      -0.67500000
P        1.48368962      10.35498217       7.38564589      -0.67500000
P        4.43687790      10.32879373      10.35273913      -0.67500000
In       0.01097984       5.96520315       5.90067861       0.67500000
In       2.97600098       6.02100468       8.87202974       0.67500000
In      -0.00328772       8.88970496       8.86934117       0.67500000
In       2.95647258       8.89995588       5.88994461       0.67500000
P        7.38553289       1.52798614       4.43811075      -0.67500000
P       10.33326946       1.50155972       1.49638621      -0.67500000
P        7.42688902       4.53235934       1.48045875      -0.67500000
P       10.31957073       4.49386355       4.43499379      -0.67500000
In       5.90036262       0.03560131       0.02495293       0.67500000
In       8.86347754       0.01684758       2.97148859       0.67500000
In       5.96019924       3.10110910       2.99342415       0.67500000
In       8.86522291       2.98329480       0.02228461       0.67500000
P        7.38055606       1.51579599      10.35364939      -0.67500000
P       10.35364964       1.51579602       7.38055589      -0.67500000
P        7.32570354       4.45921044       7.32570334      -0.67500000
P       10.33622008       4.45852335      10.33621989      -0.67500000
In       5.91098443       0.04156058       5.91098428       0.67500000
In       8.86919665       0.06053309       8.86919651       0.67500000
In       5.91844524       2.99194022       8.86879443       0.67500000
In       8.86879463       2.99194021       5.91844508       0.67500000
P        7.31437182       7.39603537       4.45232319      -0.67500000
P       10.37358928       7.44646861       1.48058517      -0.67500000
P        7.38564617      10.35498228       1.48368941      -0.67500000
P       10.35273942      10.32879383       4.43687762      -0.67500000
In       5.90067884       5.96520325       0.01097973       0.67500000
In       8.87203006       6.02100479       2.97600071       0.67500000
In       5.88994488       8.89995592       2.95647233       0.67500000
In       8.86934148       8.88970515      -0.00328788       0.67500000
P        7.39226553       7.40924998      10.32326943      -0.67500000
P       10.32326972       7.40925001       7.39226531      -0.67500000
P        7.39283619      10.38159011       7.39283590      -0.67500000
P       10.34234871      10.38104105      10.34234836      -0.67500000
In       5.72614047       5.76854711       5.72614005       0.67500000
In       8.83147359       5.91038405       8.83147332       0.67500000
In       5.92000569       8.86922316       8.83343037       0.67500000
In       8.83343072       8.86922322       5.92000547       0.67500000
63
Lattice="11.8016818 -7.6e-06 -7.6e-06 -7.6e-06 11.8016818 -7.8e-06 -7.6e-06 -7.8e-06 11.8016816" Properties=species:S:1:pos:R:3:mulliken_charges:R:1 virial="-0.001343979365248383 3.847269175329341e-05 3.847269175329341e-05 3.847269175329341e-05 -0.001345261788306826 3.847269175329341e-05 3.847269175329341e-05 3.847269175329341e-05 -0.0013426969421899398" fermi_energy=3.4539138232004998 core_to_fermi_energy=15.43004959127955 config_type=Accurate_Bulk energy=-62662.249848476764 pbc="T T T"
P        1.44515569       1.68556030       4.54295466      -0.67500000
P        4.54296297       1.68556569       1.44514359      -0.67500000
P        1.51214243       4.44004562       1.51214176      -0.67500000
In       0.05108879      -0.00654913       0.05108914       0.67500000
In       3.05277469       0.40702233       3.05279176       0.67500000
In      -0.05684463       3.02531066       2.94470084       0.67500000
In       2.94470025       3.02531071      -0.05684415       0.67500000
P        1.49084538       1.47577416      10.32889119      -0.67500000
P        4.44183413       1.49812316       7.40165687      -0.67500000
P        1.45414235       4.56347586       7.47148607      -0.67500000
P        4.43036189       4.51121288      10.29295076      -0.67500000
In       0.01844302      -0.00477471       5.89626005       0.67500000
In       2.96980487      -0.01381081       8.87034482       0.67500000
In       0.01539870       2.96256779       8.86917704       0.67500000
In       2.96656274       3.10605487       6.05911639       0.67500000
P        1.56126021       7.33863910       4.40038517      -0.67500000
P        4.40038535       7.33863897       1.56125978      -0.67500000
P        1.61254094      10.52459915       1.61253954      -0.67500000
P        4.38939030      10.46991309       4.38938929      -0.67500000
In       0.01940438       5.91009955       0.01940427       0.67500000
In       3.13520735       5.69107270       3.13520740       0.67500000
In       0.13431190       8.90016765       2.92653382       0.67500000
In       2.92653327       8.90016787       0.13431208       0.67500000
P        1.47180012       7.45823219      10.39449220      -0.67500000
P        4.45102706       7.41404811       7.28419658      -0.67500000
P        1.48476338      10.32959534       7.38233760      -0.67500000
P        4.42298059      10.29157345      10.36138170      -0.67500000
In       0.01015047       5.96470619       5.88960191       0.67500000
In       2.97839154       6.06804599       8.86907320       0.67500000
In      -0.01471983       8.87693265       8.87030009       0.67500000
In       2.95578394       8.91534418       5.84697984       0.67500000
P        7.40165610       1.49812329       4.44183357      -0.67500000
P       10.32889079       1.47577446       1.49084440      -0.67500000
P        7.47148429       4.56347424       1.45414180      -0.67500000
P       10.29294971       4.51121419       4.43036104      -0.67500000
In       5.89626044      -0.00477357       0.01844341       0.67500000
In       8.87034529      -0.01381067       2.96980505       0.67500000
In       6.05911786       3.10605640       2.96656406       0.67500000
In       8.86917812       2.96256762       0.01539915       0.67500000
P        7.37002604       1.49972075      10.36070242      -0.67500000
P       10.36070104       1.49972044       7.37002776      -0.67500000
P        7.32368860       4.43460195       7.32368863      -0.67500000
P       10.32880476       4.43862570      10.32880438      -0.67500000
In       5.91074535       0.01450025       5.91074504       0.67500000
In       8.86942372       0.06907936       8.86942201       0.67500000
In       5.91459261       2.97801926       8.87484718       0.67500000
In       8.87484831       2.97801947       5.91459246       0.67500000
P        7.28419684       7.41404818       4.45102651      -0.67500000
P       10.39449251       7.45823260       1.47179964      -0.67500000
P        7.38233760      10.32959571       1.48476319      -0.67500000
P       10.36138192      10.29157330       4.42298067      -0.67500000
In       5.88960245       5.96470672       0.01015040       0.67500000
In       8.86907472       6.06804612       2.97839308       0.67500000
In       5.84698011       8.91534431       2.95578456       0.67500000
In       8.87030069       8.87693261      -0.01472024       0.67500000
P        7.38965401       7.39504656      10.31656526      -0.67500000
P       10.31656545       7.39504646       7.38965404      -0.67500000
P        7.39875788      10.37446427       7.39875799      -0.67500000
P       10.34276182      10.37992244      10.34276171      -0.67500000
In       5.72805795       5.75496457       5.72805744       0.67500000
In       8.82561406       5.89048119       8.82561365       0.67500000
In       5.91968042       8.85711037       8.82867144       0.67500000
In       8.82867212       8.85711062       5.91967968       0.67500000
63
Lattice="11.8016818 -7.6e-06 -7.6e-06 -7.6e-06 11.8016818 -7.8e-06 -7.6e-06 -7.8e-06 11.8016816" Properties=species:S:1:pos:R:3:mulliken_charges:R:1 virial="-0.001343979365248383 3.847269175329341e-05 3.847269175329341e-05 3.847269175329341e-05 -0.001345261788306826 3.847269175329341e-05 3.847269175329341e-05 3.847269175329341e-05 -0.0013426969421899398" fermi_energy=3.4539138232004998 core_to_fermi_energy=15.43004959127955 config_type=Accurate_Bulk energy=-62661.766330085724 pbc="T T T"
P        1.38980081       1.73635265       4.59654312      -0.67500000
P        4.59648964       1.73632320       1.38988548      -0.67500000
P        1.49912915       4.41996106       1.49913221      -0.67500000
In       0.07049679      -0.04732224       0.07049489       0.67500000
In       3.14740655       0.67603720       3.14728278       0.67500000
In      -0.09186127       3.03202327       2.93427136       0.67500000
In       2.93427622       3.03202258      -0.09186383       0.67500000
P        1.48147714       1.45799983      10.32761923      -0.67500000
P        4.44869502       1.47499712       7.41237990      -0.67500000
P        1.44117609       4.57560441       7.49338629      -0.67500000
P        4.42909201       4.52019634      10.27598897      -0.67500000
In       0.00848891      -0.04677766       5.89855626       0.67500000
In       2.96735922      -0.02972723       8.87826885       0.67500000
In       0.00977452       2.94914205       8.86972697       0.67500000
In       2.95686390       3.10243111       6.12054987       0.67500000
P        1.57038124       7.32569948       4.38918578      -0.67500000
P        4.38918544       7.32570060       1.57038336      -0.67500000
P        1.66224939      10.57251759       1.66225658      -0.67500000
P        4.34928876      10.53553434       4.34929255      -0.67500000
In       0.01027908       5.90045668       0.01027860       0.67500000
In       3.12750274       5.65893979       3.12750090       0.67500000
In       0.16679398       8.90146856       2.89948897       0.67500000
In       2.89949323       8.90146743       0.16679147       0.67500000
P        1.46604598       7.45652105      10.39995111      -0.67500000
P        4.44797120       7.42611514       7.26497519      -0.67500000
P        1.49137112      10.31094264       7.38135648      -0.67500000
P        4.40915537      10.26200001      10.36610153      -0.67500000
In       0.01292460       5.96306253       5.88300559       0.67500000
In       2.97959096       6.08758243       8.86269896       0.67500000
In      -0.01991273       8.86845528       8.87002051       0.67500000
In       2.96059793       8.93153390       5.81112766       0.67500000
P        7.41238420       1.47499700       4.44869727      -0.67500000
P       10.32762267       1.45799868       1.48148265      -0.67500000
P        7.49339787       4.57561472       1.44117994      -0.67500000
P       10.27599717       4.52018884       4.42909701      -0.67500000
In       5.89855421      -0.04678202       0.00848693       0.67500000
In       8.87826640      -0.02972712       2.96735767       0.67500000
In       6.12053958       3.10242410       2.95685672       0.67500000
In       8.86972195       2.94914376       0.00977127       0.67500000
P        7.36248619       1.48587755      10.36576570      -0.67500000
P       10.36577568       1.48587994       7.36247494      -0.67500000
P        7.32587700       4.41998716       7.32587488      -0.67500000
P       10.32242869       4.42614464      10.32242927      -0.67500000
In       5.90426728      -0.01539295       5.90426808       0.67500000
In       8.86598653       0.07471559       8.86599591       0.67500000
In       5.91437461       2.96800521       8.87918320       0.67500000
In       8.87917813       2.96800469       5.91437468       0.67500000
P        7.26497659       7.42611533       4.44797252      -0.67500000
P       10.39995155       7.45652013       1.46604734      -0.67500000
P        7.38135842      10.31094097       1.49137163      -0.67500000
P       10.36610272      10.26200218       4.40915364      -0.67500000
In       5.88300452       5.96306058       0.01292382       0.67500000
In       8.86269202       6.08758238       2.97957971       0.67500000
In       5.81112780       8.93153382       2.96059287       0.67500000
In       8.87001886       8.86845637      -0.01991179       0.67500000
P        7.38656773       7.38623637      10.31464138      -0.67500000
P       10.31464195       7.38623705       7.38656582      -0.67500000
P        7.39952098      10.36661138       7.39951856      -0.67500000
P       10.33878592      10.37645811      10.33878415      -0.67500000
In       5.73497206       5.75184988       5.73497225       0.67500000
In       8.82323316       5.88184009       8.82323430       0.67500000
In       5.91793040       8.84822665       8.82611478       0.67500000
In       8.82611308       8.84822571       5.91793303       0.67500000
63
Lattice="11.8016818 -7.6e-06 -7.6e-06 -7.6e-06 11.8016818 -7.8e-06 -7.6e-06 -7.8e-06 11.8016816" Properties=species:S:1:pos:R:3:mulliken_charges:R:1 virial="-0.001343979365248383 3.847269175329341e-05 3.847269175329341e-05 3.847269175329341e-05 -0.001345261788306826 3.847269175329341e-05 3.847269175329341e-05 3.847269175329341e-05 -0.0013426969421899398" fermi_energy=3.4539138232004998 core_to_fermi_energy=15.43004959127955 config_type=Accurate_Bulk energy=-62661.02650205012 pbc="T T T"
P        1.34291598       1.75714938       4.62867412      -0.67500000
P        4.62877018       1.75718636       1.34274468      -0.67500000
P        1.48862351       4.40535984       1.48861977      -0.67500000
In       0.07838077      -0.07259694       0.07838397       0.67500000
In       3.26749002       0.97638536       3.26773619       0.67500000
In      -0.11269280       3.03361434       2.92838585       0.67500000
In       2.92837807       3.03361728      -0.11268966       0.67500000
P        1.47503867       1.44958564      10.32715083      -0.67500000
P        4.45429367       1.45950993       7.42214096      -0.67500000
P        1.43768281       4.57671717       7.49985231      -0.67500000
P        4.42872282       4.52320812      10.26735905      -0.67500000
In       0.00075405      -0.07710413       5.90240468       0.67500000
In       2.96414211      -0.03882236       8.88485886       0.67500000
In       0.00631519       2.94254671       8.86875913       0.67500000
In       2.95442959       3.09174634       6.15248289       0.67500000
P        1.57802263       7.31540625       4.38491317      -0.67500000
P        4.38491449       7.31540477       1.57801889      -0.67500000
P        1.67206311      10.56912567       1.67205142      -0.67500000
P        4.30846419      10.59164408       4.30845741      -0.67500000
In       0.00379459       5.89728499       0.00379485       0.67500000
In       3.12065895       5.63093461       3.12066173       0.67500000
In       0.18027743       8.89326519       2.88510834       0.67500000
In       2.88510276       8.89326656       0.18028083       0.67500000
P        1.46193718       7.45048855      10.39748088      -0.67500000
P        4.44584493       7.43074584       7.25799623      -0.67500000
P        1.49749510      10.29963211       7.37996700      -0.67500000
P        4.40159992      10.24408449      10.36798320      -0.67500000
In       0.01471252       5.96044650       5.88047150       0.67500000
In       2.97813890       6.09303334       8.86011185       0.67500000
In      -0.02160780       8.86432495       8.86768139       0.67500000
In       2.96950927       8.94392499       5.78731076       0.67500000
P        7.42213525       1.45951163       4.45429023      -0.67500000
P       10.32714657       1.44958792       1.47502993      -0.67500000
P        7.49983459       4.57670159       1.43767725      -0.67500000
P       10.26734787       4.52321988       4.42871458      -0.67500000
In       5.90240773      -0.07709614       0.00075827       0.67500000
In       8.88486245      -0.03882189       2.96414476       0.67500000
In       6.15250694       3.09176356       2.95444526       0.67500000
In       8.86876667       2.94254489       0.00632006       0.67500000
P        7.35838937       1.47683206      10.36887608      -0.67500000
P       10.36886200       1.47682825       7.35840591      -0.67500000
P        7.32882029       4.41210144       7.32882358      -0.67500000
P       10.31846411       4.42000273      10.31846297      -0.67500000
In       5.89304140      -0.03833855       5.89303958       0.67500000
In       8.86267340       0.07642656       8.86265908       0.67500000
In       5.91523236       2.96188861       8.88228723       0.67500000
In       8.88229468       2.96188825       5.91523113       0.67500000
P        7.25799505       7.43074603       4.44584267      -0.67500000
P       10.39748082       7.45049002       1.46193504      -0.67500000
P        7.37996430      10.29963521       1.49749367      -0.67500000
P       10.36798148      10.24408010       4.40160177      -0.67500000
In       5.88047385       5.96044918       0.01471392       0.67500000
In       8.86012323       6.09303385       2.97815462       0.67500000
In       5.78731082       8.94392535       2.96951607       0.67500000
In       8.86768467       8.86432421      -0.02160958       0.67500000
P        7.38465922       7.38142755      10.31425792      -0.67500000
P       10.31425801       7.38142680       7.38466134      -0.67500000
P        7.39705141      10.36262900       7.39705422      -0.67500000
P       10.33313883      10.37224884      10.33314072      -0.67500000
In       5.73951812       5.74954799       5.73951627       0.67500000
In       8.82230479       5.87861657       8.82230242       0.67500000
In       5.91770309       8.84375694       8.82483424       0.67500000
In       8.82483771       8.84375849       5.91769843       0.67500000
63
Lattice="11.8016818 -7.6e-06 -7.6e-06 -7.6e-06 11.8016818 -7.8e-06 -7.6e-06 -7.8e-06 11.8016816" Properties=species:S:1:pos:R:3:mulliken_charges:R:1 virial="-0.001343979365248383 3.847269175329341e-05 3.847269175329341e-05 3.847269175329341e-05 -0.001345261788306826 3.847269175329341e-05 3.847269175329341e-05 3.847269175329341e-05 -0.0013426969421899398" fermi_energy=3.4539138232004998 core_to_fermi_energy=15.43004959127955 config_type=Accurate_Bulk energy=-62660.19718718677 pbc="T T T"
P        1.30272755       1.75668303       4.64587350      -0.67500000
P        4.64581397       1.75668093       1.30285199      -0.67500000
P        1.47873697       4.39313906       1.47873825      -0.67500000
In       0.07955087      -0.08544754       0.07954911       0.67500000
In       3.37278038       1.32423308       3.37260608       0.67500000
In      -0.12480789       3.03002794       2.92826569       0.67500000
In       2.92827089       3.03002496      -0.12480872       0.67500000
P        1.47064940       1.44435795      10.32719106      -0.67500000
P        4.45823812       1.44621528       7.43342801      -0.67500000
P        1.43681808       4.57518553       7.50201483      -0.67500000
P        4.42841982       4.52416653      10.26199122      -0.67500000
In      -0.00371170      -0.09928186       5.90446580       0.67500000
In       2.96071436      -0.04677632       8.89052396       0.67500000
In       0.00333744       2.93796894       8.86708868       0.67500000
In       2.95385329       3.07361644       6.16725550       0.67500000
P        1.58351715       7.30519465       4.38399444      -0.67500000
P        4.38399428       7.30519477       1.58351859      -0.67500000
P        1.67068485      10.55005951       1.67069062      -0.67500000
P        4.27439137      10.62880386       4.27439615      -0.67500000
In      -0.00258200       5.89595689      -0.00258257       0.67500000
In       3.11416023       5.60042733       3.11415891       0.67500000
In       0.18597240       8.88174096       2.88194209       0.67500000
In       2.88194505       8.88174003       0.18597001       0.67500000
P        1.45806806       7.44632753      10.39549139      -0.67500000
P        4.44375440       7.43155451       7.25919822      -0.67500000
P        1.50251659      10.29065761       7.37745324      -0.67500000
P        4.39687909      10.23136115      10.36961661      -0.67500000
In       0.01526008       5.95674730       5.87966206       0.67500000
In       2.97471562       6.09407960       8.86174573       0.67500000
In      -0.02201702       8.86150659       8.86353640       0.67500000
In       2.98110261       8.95309053       5.76872689       0.67500000
P        7.43343138       1.44621349       4.45824030      -0.67500000
P       10.32719298       1.44435697       1.47065441      -0.67500000
P        7.50202507       4.57519416       1.43681956      -0.67500000
P       10.26199549       4.52416058       4.42842370      -0.67500000
In       5.90446613      -0.09928888      -0.00371586       0.67500000
In       8.89052182      -0.04677653       2.96071232       0.67500000
In       6.16723522       3.07360265       2.95384147       0.67500000
In       8.86708557       2.93796966       0.00333434       0.67500000
P        7.35586865       1.46916453      10.37098928      -0.67500000
P       10.37099654       1.46916662       7.35585962      -0.67500000
P        7.33202177       4.40601693       7.33201927      -0.67500000
P       10.31494731       4.41586085      10.31494770      -0.67500000
In       5.87788346      -0.05679743       5.87788458       0.67500000
In       8.86031884       0.07552215       8.86032579       0.67500000
In       5.91562809       2.95632246       8.88489686       0.67500000
In       8.88489393       2.95632355       5.91562922       0.67500000
P        7.25919960       7.43155441       4.44375454      -0.67500000
P       10.39549173       7.44632697       1.45806872      -0.67500000
P        7.37745487      10.29065671       1.50251728      -0.67500000
P       10.36961828      10.23136453       4.39687758      -0.67500000
In       5.87966017       5.95674652       0.01525900       0.67500000
In       8.86174112       6.09407988       2.97470804       0.67500000
In       5.76872798       8.95308945       2.98109886       0.67500000
In       8.86353506       8.86150717      -0.02201637       0.67500000
P        7.38314888       7.37751643      10.31374610      -0.67500000
P       10.31374632       7.37751681       7.38314733      -0.67500000
P        7.39392192      10.36020729       7.39391973      -0.67500000
P       10.32933376      10.36728909      10.32933222      -0.67500000
In       5.74860471       5.75585976       5.74860562       0.67500000
In       8.82173345       5.87694443       8.82173422       0.67500000
In       5.91867378       8.84167806       8.82459074       0.67500000
In       8.82458924       8.84167726       5.91867631       0.67500000
63