 +-------------------------------------------------+
 |                                                 |
 |      CCC   AA    SSS  TTTTT  EEEEE  PPPP        |
 |     C     A  A  S       T    E      P   P       |
 |     C     AAAA   SS     T    EEE    PPPP        |
 |     C     A  A     S    T    E      P           |
 |      CCC  A  A  SSS     T    EEEEE  P           |
 |                                                 |
 +-------------------------------------------------+
 |                                                 |
 | Welcome to Academic Release CASTEP version 24.1 |
 | Ab Initio Total Energy Program                  |
 |                                                 |
 | Authors:                                        |
 | M. Segall, M. Probert, C. Pickard, P. Hasnip,   |
 | S. Clark, K. Refson, J. R. Yates,               |
 | A. Bartok-Partay, M. Payne                      |
 |                                                 |
 | Contributors:                                   |
 | P. Lindan, P. Haynes, J. White, V. Milman,      |
 | N. Govind, M. Gibson, P. Tulip, V. Cocula,      |
 | B. Montanari, D. Quigley, M. Glover,            |
 | L. Bernasconi, A. Perlov, M. Plummer,           |
 | E. McNellis, J. Meyer, J. Gale, D. Jochym       |
 | J. Aarons, B. Walker, R. Gillen, D. Jones       |
 | T. Green, I. J. Bush, C. J. Armstrong,          |
 | E. J. Higgins, E. L. Brown, M. S. McFly,        |
 | J. Wilkins, B-C. Shih, P. J. P. Byrne,          |
 | R. J. Maurer, J. C. Womack, J. Dziedzic,        |
 | L. LeBlanc, T. K. Stenczel, J. Kermode,         |
 | S. Sturniolo, B. Shi, B. Durham, M. Evans,      |
 | M. J. Smith, A. Tamerus, Z. Hawkhead,           |
 | V. Ravindran, T. Hollins, S. A. Joyce,          |
 | R. T. Strong, A. M. Reilly, S. J. Donaldson     |
 |                                                 |
 | Copyright (c) 2000 - 2023                       |
 |                                                 |
 |     Distributed under license from Cambridge    |
 |     Enterprise for academic use only.           |
 |                                                 |
 | Please cite                                     |
 |                                                 |
 |     "First principles methods using CASTEP"     |
 |                                                 |
 |         Zeitschrift fuer Kristallographie       |
 |           220(5-6) pp. 567-570 (2005)           |
 |                                                 |
 | S. J. Clark, M. D. Segall, C. J. Pickard,       |
 | P. J. Hasnip, M. J. Probert, K. Refson,         |
 | M. C. Payne                                     |
 |                                                 |
 |       in all publications arising from          |
 |              your use of CASTEP                 |
 |                                                 |
 +-------------------------------------------------+
 |                                                 |
 |              http://www.castep.org              |
 |                                                 |
 +-------------------------------------------------+



 Compiled for  GNU 11.2.0 on 04-04-2024 18:39:17
 from code version 6355fd106 Castep241_branch Thu Mar 7 17:56:19 2024 +0000
 Compiler: GNU Fortran 11.2.0; Optimisation: FAST
 Comms   : MPI VERSION : CRAY MPICH version 8.1.23.14 (ANL base 3.4a2)
 MATHLIBS: default (LAPACK version 3.10.1)
 FFT Lib : fftw3 version commercial-fftw-3.3.10-sse2-avx-avx2-avx2_128
 Fundamental constants values: CODATA 2018

 Run started: Tue, 29 Jul 2025 23:12:04 +0100

 Atomic calculation performed for P: 1s2 2s2 2p6 3s2 3p3

 Converged in 47 iterations to an ae energy of -9309.074 eV

   ============================================================                
   | Pseudopotential Report - Date of generation 29-07-2025   |                
   ------------------------------------------------------------                
   | Element: P Ionic charge:  5.00 Level of theory: RSCAN    |                
   | Atomic Solver: Koelling-Harmon                           |                
   |                                                          |                
   |               Reference Electronic Structure             |                
   |         Orbital         Occupation         Energy        |                
   |            3s              2.000           -0.535        |                
   |            3p              3.000           -0.209        |                
   |                                                          |                
   |                 Pseudopotential Definition               |                
   |        Beta     l      e      Rc     scheme   norm       |                
   |          1      0   -0.535   1.807     qc      0         |                
   |          2      0    0.250   1.807     qc      0         |                
   |          3      1   -0.209   1.807     qc      0         |                
   |          4      1    0.250   1.807     qc      0         |                
   |          5      2    0.000   1.807     qc      0         |                
   |          6      2    0.250   1.807     qc      0         |                
   |         loc     3    0.000   1.807     pn      0         |                
   |                                                          |                
   | Augmentation charge Rinner = 1.263                       |                
   | Partial core correction Rc = 1.263                       |                
   ------------------------------------------------------------                
   | "3|1.8|4|4|5|30:31:32"                                   |                
   ------------------------------------------------------------                
   |      Author: Chris J. Pickard, Cambridge University      |                
   ============================================================                
 Warning: otfg_output_psp cannot write out meta-GGA pseudopotentials presently.

 Atomic calculation performed for In:
 1s2 2s2 2p6 3s2 3p6 3d10 4s2 4p6 4d10 5s2 5p1

 Converged in 84 iterations to an ae energy of -160093.328 eV

   ============================================================                
   | Pseudopotential Report - Date of generation 29-07-2025   |                
   ------------------------------------------------------------                
   | Element: In Ionic charge: 13.00 Level of theory: RSCAN   |                
   | Atomic Solver: Koelling-Harmon                           |                
   |                                                          |                
   |               Reference Electronic Structure             |                
   |         Orbital         Occupation         Energy        |                
   |            4d             10.000           -0.711        |                
   |            5s              2.000           -0.313        |                
   |            5p              1.000           -0.095        |                
   |                                                          |                
   |                 Pseudopotential Definition               |                
   |        Beta     l      e      Rc     scheme   norm       |                
   |          1      0   -0.313   2.501     qc      0         |                
   |          2      0    0.250   2.501     qc      0         |                
   |          3      1   -0.095   2.501     qc      0         |                
   |          4      1    0.250   2.501     qc      0         |                
   |          5      2   -0.711   2.207     qc      0         |                
   |          6      2    0.250   2.207     qc      0         |                
   |         loc     3    0.000   2.501     pn      0         |                
   |                                                          |                
   | Augmentation charge Rinner = 1.504                       |                
   | Partial core correction Rc = 1.504                       |                
   ------------------------------------------------------------                
   | "3|2.5|2.5|1.5|7|8|9|50:51:42U2.2U2.2"                   |                
   ------------------------------------------------------------                
   |      Author: Chris J. Pickard, Cambridge University      |                
   ============================================================                
 Warning: otfg_output_psp cannot write out meta-GGA pseudopotentials presently.

 Pseudo atomic calculation performed for P 3s2 3p3

 Converged in 23 iterations to a total energy of -208.0292 eV

 Pseudo atomic calculation performed for In 4d10 5s2 5p1

 Converged in 42 iterations to a total energy of -1747.4501 eV
 Calculation parallelised over 108 processes.
 Data is distributed by G-vector(3-way) and k-point(36-way)
 Each process may use up to 16 threads.

 ************************************ Title ************************************
 

 ***************************** General Parameters ******************************
  
 output verbosity                               : normal  (1)
 write checkpoint data to                       : P_Vacancy_Migration_5->3_Singlepoints_4.check
 type of calculation                            : single point energy
 stress calculation                             : off
 density difference calculation                 : off
 electron localisation func (ELF) calculation   : off
 Hirshfeld analysis                             : on
 polarisation (Berry phase) analysis            : off
 molecular orbital projected DOS                : off
 deltaSCF calculation                           : off
 unlimited duration calculation
 timing information                             : on
 memory usage estimate                          : on
 write extra output files                       : on
 write final potential to formatted file        : off
 write final density to formatted file          : off
 write BibTeX reference list                    : on
 write OTFG pseudopotential files               : on
 write electrostatic potential file             : on
 write bands file                               : on
 checkpoint writing                             : off
  
 output         length unit                     : A
 output           mass unit                     : amu
 output           time unit                     : ps
 output         charge unit                     : e
 output           spin unit                     : hbar/2
 output         energy unit                     : eV
 output          force unit                     : eV/A
 output       velocity unit                     : A/ps
 output       pressure unit                     : GPa
 output     inv_length unit                     : 1/A
 output      frequency unit                     : cm-1
 output force constant unit                     : eV/A**2
 output         volume unit                     : A**3
 output   IR intensity unit                     : (D/A)**2/amu
 output         dipole unit                     : D
 output         efield unit                     : eV/A/e
 output        entropy unit                     : J/mol/K
 output    efield chi2 unit                     : pm/V
  
 wavefunctions paging                           : none
 random number generator seed                   :  231204510
 data distribution                              : optimal for this architecture
 optimization strategy                          : balance speed and memory

 *********************** Exchange-Correlation Parameters ***********************
  
 using functional                               : RSCAN
 relativistic treatment                         : Koelling-Harmon
 DFT+D: Semi-empirical dispersion correction    : off

 ************************* Pseudopotential Parameters **************************
  
 pseudopotential representation                 : reciprocal space
 <beta|phi> representation                      : reciprocal space
 spin-orbit coupling                            : off

 **************************** Basis Set Parameters *****************************
  
 plane wave basis set cut-off                   :   900.0000   eV
 size of standard grid                          :     2.0000
 size of   fine   gmax                          :    30.7390   1/A
 finite basis set correction                    : none

 **************************** Electronic Parameters ****************************
  
 number of  electrons                           :  571.0    
 net charge of system                           :  0.000    
 net spin   of system                           :  1.000    
 number of  up  spins                           :  286.0    
 number of down spins                           :  285.0    
 treating system as spin-polarized
 number of bands                                :        343

 ********************* Electronic Minimization Parameters **********************
  
 Method: Treating system as metallic with density mixing treatment of electrons,
         and number of  SD  steps               :          1
         and number of  CG  steps               :          4
  
 total energy / atom convergence tol.           : 0.1000E-07   eV
 eigen-energy convergence tolerance             : 0.2203E-08   eV
 max force / atom convergence tol.              : ignored
 convergence tolerance window                   :          3   cycles
 max. number of SCF cycles                      :        100
 number of fixed-spin iterations                :         10
 smearing scheme                                : Gaussian
 smearing width                                 : 0.2000       eV
 Fermi energy convergence tolerance             : 0.2721E-13   eV
 periodic dipole correction                     : NONE

 ************************** Density Mixing Parameters **************************
  
 density-mixing scheme                          : Pulay
 max. length of mixing history                  :         20
 charge density mixing amplitude                : 0.5000    
   spin density mixing amplitude                :  2.000    
 cut-off energy for mixing                      :  900.0       eV

 *********************** Population Analysis Parameters ************************
  
 Population analysis with cutoff                :  3.000       A
 Population analysis output                     : summary and pdos components

 *******************************************************************************
  

                           -------------------------------
                                      Unit Cell
                           -------------------------------
        Real Lattice(A)                      Reciprocal Lattice(1/A)
    11.8016820    -0.0000080    -0.0000080        0.532397442   0.000000361   0.000000361
    -0.0000080    11.8016820    -0.0000080        0.000000361   0.532397442   0.000000361
    -0.0000080    -0.0000080    11.8016820        0.000000361   0.000000361   0.532397442

                       Lattice parameters(A)       Cell Angles
                    a =     11.801682          alpha =   90.000078
                    b =     11.801682          beta  =   90.000078
                    c =     11.801682          gamma =   90.000078

                       Current cell volume =          1643.734705       A**3
                                   density =             2.819410   AMU/A**3
                                           =             4.681741     g/cm^3

                           -------------------------------
                                     Cell Contents
                           -------------------------------
                         Total number of ions in cell =   63
                      Total number of species in cell =    2
                        Max number of any one species =   32

            xxxxxxxxxxxxxxxxxxxxxxxxxxxxxxxxxxxxxxxxxxxxxxxxxxxxxxxxxxxx
            x  Element    Atom        Fractional coordinates of atoms  x
            x            Number           u          v          w      x
            x----------------------------------------------------------x
            x  P            1         0.114882   0.146486   0.390307   x 
            x  P            2         0.390307   0.146486   0.114882   x 
            x  P            3         0.120075   0.372300   0.120075   x 
            x  P            4         0.124424   0.121435   0.875337   x 
            x  P            5         0.379856   0.117329   0.633111   x 
            x  P            6         0.120721   0.385333   0.636799   x 
            x  P            7         0.375325   0.381419   0.868863   x 
            x  P            8         0.132339   0.616893   0.373499   x 
            x  P            9         0.373499   0.616893   0.132339   x 
            x  P           10         0.138687   0.885831   0.138687   x 
            x  P           11         0.361273   0.892933   0.361273   x 
            x  P           12         0.122531   0.629717   0.879144   x 
            x  P           13         0.376221   0.627980   0.618054   x 
            x  P           14         0.127726   0.871013   0.623595   x 
            x  P           15         0.373306   0.865966   0.879523   x 
            x  P           16         0.633111   0.117329   0.379856   x 
            x  P           17         0.875337   0.121435   0.124424   x 
            x  P           18         0.636799   0.385333   0.120721   x 
            x  P           19         0.868863   0.381419   0.375325   x 
            x  P           20         0.623145   0.122473   0.879702   x 
            x  P           21         0.879702   0.122473   0.623145   x 
            x  P           22         0.621104   0.371849   0.621103   x 
            x  P           23         0.871846   0.373907   0.871846   x 
            x  P           24         0.618054   0.627980   0.376221   x 
            x  P           25         0.879144   0.629717   0.122531   x 
            x  P           26         0.623595   0.871013   0.127726   x 
            x  P           27         0.879523   0.865966   0.373306   x 
            x  P           28         0.625179   0.624059   0.874022   x 
            x  P           29         0.874022   0.624059   0.625179   x 
            x  P           30         0.625924   0.876410   0.625924   x 
            x  P           31         0.874895   0.877243   0.874895   x 
            x  In           1         0.006221  -0.007589   0.006221   x 
            x  In           2         0.291073   0.234871   0.291073   x 
            x  In           3        -0.010086   0.254612   0.249829   x 
            x  In           4         0.249829   0.254612  -0.010086   x 
            x  In           5         0.003299  -0.007462   0.496817   x 
            x  In           6         0.250167  -0.007242   0.754896   x 
            x  In           7        -0.001348   0.247734   0.752362   x 
            x  In           8         0.247208   0.250898   0.533048   x 
            x  In           9        -0.003448   0.499486  -0.003448   x 
            x  In          10         0.255887   0.479300   0.255887   x 
            x  In          11         0.013235   0.748579   0.245953   x 
            x  In          12         0.245953   0.748579   0.013235   x 
            x  In          13         0.000352   0.501771   0.498961   x 
            x  In          14         0.250880   0.513818   0.751608   x 
            x  In          15        -0.001756   0.750862   0.749418   x 
            x  In          16         0.254480   0.755569   0.489364   x 
            x  In          17         0.496817  -0.007462   0.003299   x 
            x  In          18         0.754896  -0.007242   0.250167   x 
            x  In          19         0.533048   0.250898   0.247208   x 
            x  In          20         0.752362   0.247734  -0.001348   x 
            x  In          21         0.496156  -0.008402   0.496156   x 
            x  In          22         0.750217   0.004813   0.750217   x 
            x  In          23         0.502235   0.248469   0.753389   x 
            x  In          24         0.753389   0.248469   0.502235   x 
            x  In          25         0.498961   0.501771   0.000352   x 
            x  In          26         0.751608   0.513818   0.250880   x 
            x  In          27         0.489364   0.755569   0.254480   x 
            x  In          28         0.749418   0.750862  -0.001756   x 
            x  In          29         0.490497   0.491777   0.490497   x 
            x  In          30         0.746248   0.498421   0.746248   x 
            x  In          31         0.501852   0.748846   0.748324   x 
            x  In          32         0.748324   0.748846   0.501852   x 
            xxxxxxxxxxxxxxxxxxxxxxxxxxxxxxxxxxxxxxxxxxxxxxxxxxxxxxxxxxxx


                         No user defined ionic velocities

                           -------------------------------
                                   Details of Species
                           -------------------------------

                               Mass of species in AMU
                                    P   30.9737600
                                    In  114.8180000

                          Electric Quadrupole Moment (Barn)
                                    P    1.0000000 No Isotope Defined
                                    In    0.7700000 Isotope115

                          Files used for pseudopotentials:
                                    P 3|1.8|4|4|5|30:31:32
                                    In 3|2.5|2.5|1.5|7|8|9|50:51:42U2.2U2.2

                           -------------------------------
                              k-Points For BZ Sampling
                           -------------------------------
                       MP grid size for SCF calculation is  4  4  4
                            with an offset of   0.125  0.125  0.125
                       Number of kpoints used =            36

                           -------------------------------
                               Symmetry and Constraints
                           -------------------------------

                      Maximum deviation from symmetry =  0.00000         ANG

                      Number of symmetry operations   =           1
                      Number of ionic constraints     =           3
                      Point group of crystal =     1: C1, 1, 1
                      Space group of crystal =     8: Cm, C -2y

             Set iprint > 1 for details on symmetry rotations/translations

                         Centre of mass is constrained
             Set iprint > 1 for details of linear ionic constraints

                         Number of cell constraints= 0
                         Cell constraints are:  1 2 3 4 5 6

                         External pressure/stress (GPa)
                          0.00000   0.00000   0.00000
                                    0.00000   0.00000
                                              0.00000
 
+---------------- MEMORY AND SCRATCH DISK ESTIMATES PER PROCESS --------------+
|                                                     Memory          Disk    |
| Baseline code, static data and system overhead      368.0 MB         0.0 MB |
| BLAS internal memory storage                          0.0 MB         0.0 MB |
| Model and support data                             4302.1 MB         0.0 MB |
| Electronic energy minimisation requirements        1320.9 MB         0.0 MB |
| Force calculation requirements                      127.4 MB         0.0 MB |
|                                               ----------------------------- |
| Approx. total storage required per process         5991.0 MB         0.0 MB |
|                                                                             |
| Requirements will fluctuate during execution and may exceed these estimates |
+-----------------------------------------------------------------------------+
Calculating approximate eigenstates for fixed initial Hamiltonian
Cut-off for approx. calculation is   89.988 eV
Improving approx. states at cut-off of  450.000 eV
Resetting cut-off to  900.000 eV
Calculating total energy with cut-off of  900.000 eV.
------------------------------------------------------------------------ <-- SCF
SCF loop      Energy           Fermi           Energy gain       Timer   <-- SCF
                               energy          per atom          (sec)   <-- SCF
------------------------------------------------------------------------ <-- SCF
Initial  -6.28298487E+004  0.00000000E+000                       429.01  <-- SCF
      1  -6.25836317E+004  2.78957154E+000  -3.90820551E+000     869.92  <-- SCF
      2  -6.25839083E+004  2.78931761E+000   4.38993457E-003    1176.47  <-- SCF
      3  -6.26504608E+004  2.89909535E+000   1.05638858E+000    1518.40  <-- SCF
      4  -6.26625486E+004  2.93659494E+000   1.91870723E-001    2005.86  <-- SCF
      5  -6.26697210E+004  3.02107798E+000   1.13847703E-001    2355.15  <-- SCF
      6  -6.26587391E+004  3.17246964E+000  -1.74316093E-001    2707.77  <-- SCF
      7  -6.26573554E+004  3.22404182E+000  -2.19643455E-002    3065.84  <-- SCF
      8  -6.26571854E+004  3.24379822E+000  -2.69742969E-003    3430.14  <-- SCF
      9  -6.26582040E+004  3.24869957E+000   1.61678918E-002    3781.30  <-- SCF
     10  -6.26585415E+004  3.25595222E+000   5.35746273E-003    4132.48  <-- SCF
     11  -6.26586219E+004  3.25475124E+000   1.27583689E-003    4481.17  <-- SCF
     12  -6.26586486E+004  3.25351118E+000   4.23552473E-004    4844.77  <-- SCF
     13  -6.26586558E+004  3.25277960E+000   1.13984144E-004    5213.79  <-- SCF
     14  -6.26586588E+004  3.25240269E+000   4.80987387E-005    5570.55  <-- SCF
     15  -6.26586592E+004  3.25247342E+000   5.85613531E-006    5934.34  <-- SCF
     16  -6.26586595E+004  3.25261985E+000   5.47221265E-006    6308.26  <-- SCF
     17  -6.26586596E+004  3.25291341E+000   1.62201693E-006    6652.86  <-- SCF
     18  -6.26586597E+004  3.25329350E+000   1.22030945E-006    6988.22  <-- SCF
     19  -6.26586597E+004  3.25351905E+000   4.59891468E-007    7317.65  <-- SCF
     20  -6.26586597E+004  3.25369725E+000   1.78148952E-007    7633.73  <-- SCF
     21  -6.26586597E+004  3.25375318E+000   3.40210914E-008    7912.93  <-- SCF
     22  -6.26586597E+004  3.25374739E+000   5.67273533E-009    8161.95  <-- SCF
     23  -6.26586597E+004  3.25374042E+000   2.48153936E-009    8405.72  <-- SCF
------------------------------------------------------------------------ <-- SCF
 
Integrated Spin Density     =    0.446926     hbar/2
Integrated |Spin Density|   =    0.540926     hbar/2
 
Final energy, E             =  -62658.53175475     eV
Final free energy (E-TS)    =  -62658.65973674     eV
(energies not corrected for finite basis set)
 
NB est. 0K energy (E-0.5TS)      =  -62658.59574574     eV
 

 ************************** Forces **************************
 *                                                          *
 *               Cartesian components (eV/A)                *
 * -------------------------------------------------------- *
 *                         x            y            z      *
 *                                                          *
 * P               1      0.49491      0.13252     -0.17916 *
 * P               2     -0.17916      0.13252      0.49491 *
 * P               3      0.11143     -0.15946      0.11143 *
 * P               4      0.04433      0.03347      0.00744 *
 * P               5      0.07667      0.18820     -0.17713 *
 * P               6      0.21933      0.10187     -0.07931 *
 * P               7      0.01844      0.02007      0.03234 *
 * P               8      0.04381     -0.15275      0.08859 *
 * P               9      0.08860     -0.15275      0.04381 *
 * P              10      0.05809      0.05248      0.05810 *
 * P              11      0.01018     -0.07332      0.01017 *
 * P              12      0.08872     -0.08817     -0.06722 *
 * P              13     -0.12871     -0.14906      0.02615 *
 * P              14     -0.02447     -0.00581      0.02253 *
 * P              15      0.05093      0.04963     -0.04370 *
 * P              16     -0.17713      0.18820      0.07667 *
 * P              17      0.00743      0.03347      0.04433 *
 * P              18     -0.07930      0.10187      0.21932 *
 * P              19      0.03234      0.02006      0.01844 *
 * P              20     -0.04912      0.02945     -0.02074 *
 * P              21     -0.02075      0.02945     -0.04912 *
 * P              22     -0.02651     -0.03441     -0.02650 *
 * P              23      0.02372     -0.01489      0.02373 *
 * P              24      0.02615     -0.14906     -0.12871 *
 * P              25     -0.06721     -0.08817      0.08871 *
 * P              26      0.02253     -0.00581     -0.02448 *
 * P              27     -0.04370      0.04963      0.05093 *
 * P              28      0.00385     -0.01895      0.01576 *
 * P              29      0.01575     -0.01895      0.00385 *
 * P              30      0.08204      0.09584      0.08204 *
 * P              31     -0.06964      0.08305     -0.06964 *
 * In              1      0.15185     -0.30432      0.15185 *
 * In              2     -0.47214     -0.86508     -0.47214 *
 * In              3     -0.05624      0.01755      0.12766 *
 * In              4      0.12766      0.01754     -0.05624 *
 * In              5      0.02426     -0.03292      0.15066 *
 * In              6     -0.17871     -0.01097      0.01073 *
 * In              7      0.10286     -0.14460     -0.01319 *
 * In              8     -0.60991     -0.16825      0.37830 *
 * In              9     -0.06087      0.26317     -0.06087 *
 * In             10     -0.22244      0.70831     -0.22244 *
 * In             11      0.13049      0.21100     -0.43735 *
 * In             12     -0.43734      0.21100      0.13049 *
 * In             13     -0.06163     -0.05441     -0.07837 *
 * In             14      0.03556     -0.00966      0.03430 *
 * In             15     -0.01958      0.06469      0.10972 *
 * In             16      0.34627      0.16319     -0.12394 *
 * In             17      0.15066     -0.03291      0.02426 *
 * In             18      0.01073     -0.01097     -0.17871 *
 * In             19      0.37830     -0.16825     -0.60991 *
 * In             20     -0.01318     -0.14459      0.10285 *
 * In             21     -0.23491     -0.29795     -0.23491 *
 * In             22      0.05327     -0.30385      0.05326 *
 * In             23     -0.03116      0.12312      0.06687 *
 * In             24      0.06688      0.12312     -0.03117 *
 * In             25     -0.07837     -0.05442     -0.06164 *
 * In             26      0.03430     -0.00966      0.03555 *
 * In             27     -0.12394      0.16319      0.34627 *
 * In             28      0.10972      0.06469     -0.01958 *
 * In             29      0.25884      0.13146      0.25884 *
 * In             30     -0.02088      0.08394     -0.02089 *
 * In             31      0.01999      0.01831     -0.03383 *
 * In             32     -0.03382      0.01832      0.01999 *
 *                                                          *
 ************************************************************

 Pseudo atomic calculation performed for P 3s2 3p3

 Converged in 23 iterations to a total energy of -208.0292 eV

 Pseudo atomic calculation performed for In 4d10 5s2 5p1

 Converged in 42 iterations to a total energy of -1747.4501 eV
Charge spilling parameter for spin component 1 = 0.18%
Charge spilling parameter for spin component 2 = 0.18%

                   Orbital Populations                  
  ---------------------------------------------------------------
     Ion    Atom   Orbital              Up        Down      Spin
  ---------------------------------------------------------------
      P     1      S                    0.875     0.873     0.002
      P     1      Px                   0.606     0.600     0.007
      P     1      Py                   0.686     0.686    -0.001
      P     1      Pz                   0.664     0.663     0.001
      P     2      S                    0.875     0.873     0.002
      P     2      Px                   0.664     0.663     0.001
      P     2      Py                   0.686     0.686    -0.001
      P     2      Pz                   0.606     0.600     0.007
      P     3      S                    0.876     0.873     0.003
      P     3      Px                   0.644     0.636     0.008
      P     3      Py                   0.678     0.675     0.003
      P     3      Pz                   0.644     0.636     0.008
      P     4      S                    0.869     0.869     0.000
      P     4      Px                   0.655     0.655    -0.000
      P     4      Py                   0.651     0.651    -0.000
      P     4      Pz                   0.659     0.659    -0.000
      P     5      S                    0.872     0.872     0.000
      P     5      Px                   0.659     0.658     0.001
      P     5      Py                   0.643     0.642     0.001
      P     5      Pz                   0.654     0.653     0.001
      P     6      S                    0.870     0.870     0.000
      P     6      Px                   0.645     0.645     0.001
      P     6      Py                   0.655     0.655     0.000
      P     6      Pz                   0.658     0.657     0.001
      P     7      S                    0.868     0.868    -0.000
      P     7      Px                   0.654     0.655    -0.000
      P     7      Py                   0.653     0.653    -0.000
      P     7      Pz                   0.659     0.659    -0.000
      P     8      S                    0.872     0.872     0.000
      P     8      Px                   0.649     0.648     0.001
      P     8      Py                   0.641     0.641     0.000
      P     8      Pz                   0.664     0.664     0.000
      P     9      S                    0.872     0.872     0.000
      P     9      Px                   0.664     0.664     0.000
      P     9      Py                   0.641     0.641     0.000
      P     9      Pz                   0.649     0.648     0.001
      P    10      S                    0.904     0.904    -0.000
      P    10      Px                   0.626     0.626    -0.000
      P    10      Py                   0.629     0.629     0.000
      P    10      Pz                   0.626     0.626    -0.000
      P    11      S                    0.908     0.908    -0.000
      P    11      Px                   0.621     0.622    -0.001
      P    11      Py                   0.630     0.630    -0.000
      P    11      Pz                   0.621     0.622    -0.001
      P    12      S                    0.868     0.868     0.000
      P    12      Px                   0.654     0.654     0.000
      P    12      Py                   0.659     0.658     0.001
      P    12      Pz                   0.654     0.654    -0.000
      P    13      S                    0.875     0.873     0.002
      P    13      Px                   0.666     0.664     0.003
      P    13      Py                   0.649     0.640     0.008
      P    13      Pz                   0.645     0.639     0.006
      P    14      S                    0.868     0.868     0.000
      P    14      Px                   0.656     0.655     0.000
      P    14      Py                   0.659     0.659     0.000
      P    14      Pz                   0.653     0.653     0.000
      P    15      S                    0.873     0.872     0.001
      P    15      Px                   0.662     0.659     0.003
      P    15      Py                   0.651     0.649     0.002
      P    15      Pz                   0.650     0.648     0.002
      P    16      S                    0.872     0.872     0.000
      P    16      Px                   0.654     0.653     0.001
      P    16      Py                   0.643     0.642     0.001
      P    16      Pz                   0.659     0.658     0.001
      P    17      S                    0.869     0.869     0.000
      P    17      Px                   0.659     0.659    -0.000
      P    17      Py                   0.651     0.651    -0.000
      P    17      Pz                   0.655     0.655    -0.000
      P    18      S                    0.870     0.870     0.000
      P    18      Px                   0.658     0.657     0.001
      P    18      Py                   0.655     0.655     0.000
      P    18      Pz                   0.645     0.645     0.001
      P    19      S                    0.868     0.868    -0.000
      P    19      Px                   0.659     0.659    -0.000
      P    19      Py                   0.653     0.653    -0.000
      P    19      Pz                   0.654     0.655    -0.000
      P    20      S                    0.870     0.869     0.000
      P    20      Px                   0.652     0.651     0.001
      P    20      Py                   0.658     0.657     0.001
      P    20      Pz                   0.653     0.652     0.001
      P    21      S                    0.870     0.869     0.000
      P    21      Px                   0.653     0.652     0.001
      P    21      Py                   0.658     0.657     0.001
      P    21      Pz                   0.652     0.651     0.001
      P    22      S                    0.875     0.872     0.003
      P    22      Px                   0.649     0.640     0.009
      P    22      Py                   0.666     0.662     0.004
      P    22      Pz                   0.649     0.640     0.009
      P    23      S                    0.870     0.869     0.001
      P    23      Px                   0.653     0.650     0.003
      P    23      Py                   0.661     0.659     0.003
      P    23      Pz                   0.653     0.650     0.003
      P    24      S                    0.875     0.873     0.002
      P    24      Px                   0.645     0.639     0.006
      P    24      Py                   0.649     0.640     0.008
      P    24      Pz                   0.666     0.664     0.003
      P    25      S                    0.868     0.868     0.000
      P    25      Px                   0.654     0.654    -0.000
      P    25      Py                   0.659     0.658     0.001
      P    25      Pz                   0.654     0.654     0.000
      P    26      S                    0.868     0.868     0.000
      P    26      Px                   0.653     0.653     0.000
      P    26      Py                   0.659     0.659     0.000
      P    26      Pz                   0.656     0.655     0.000
      P    27      S                    0.873     0.872     0.001
      P    27      Px                   0.650     0.648     0.002
      P    27      Py                   0.651     0.649     0.002
      P    27      Pz                   0.662     0.659     0.003
      P    28      S                    0.868     0.868    -0.000
      P    28      Px                   0.658     0.658    -0.000
      P    28      Py                   0.656     0.656    -0.000
      P    28      Pz                   0.655     0.655     0.000
      P    29      S                    0.868     0.868    -0.000
      P    29      Px                   0.655     0.655     0.000
      P    29      Py                   0.656     0.656    -0.000
      P    29      Pz                   0.658     0.658    -0.000
      P    30      S                    0.869     0.869     0.000
      P    30      Px                   0.655     0.655    -0.000
      P    30      Py                   0.655     0.655     0.000
      P    30      Pz                   0.655     0.655    -0.000
      P    31      S                    0.870     0.870     0.000
      P    31      Px                   0.654     0.654    -0.000
      P    31      Py                   0.656     0.656    -0.000
      P    31      Pz                   0.654     0.654    -0.000
     In     1      Dzz                  1.000     1.000     0.000
     In     1      Dzy                  0.999     0.999    -0.000
     In     1      Dzx                  0.998     0.998     0.000
     In     1      Dxx-yy               1.000     1.000     0.000
     In     1      Dxy                  0.999     0.999    -0.000
     In     1      S                    0.708     0.707     0.000
     In     1      Px                   0.239     0.239    -0.000
     In     1      Py                   0.247     0.247    -0.000
     In     1      Pz                   0.239     0.239    -0.000
     In     1      S                   -0.241    -0.244     0.003
     In     2      Dzz                  0.998     0.998     0.000
     In     2      Dzy                  0.999     0.999    -0.000
     In     2      Dzx                  0.999     0.999    -0.000
     In     2      Dxx-yy               0.999     0.999     0.000
     In     2      Dxy                  0.999     0.999    -0.000
     In     2      S                    0.695     0.675     0.019
     In     2      Px                   0.248     0.249    -0.002
     In     2      Py                   0.314     0.304     0.010
     In     2      Pz                   0.248     0.249    -0.002
     In     2      S                   -0.156    -0.169     0.013
     In     3      Dzz                  1.000     1.000     0.000
     In     3      Dzy                  0.998     0.998    -0.000
     In     3      Dzx                  0.998     0.998    -0.000
     In     3      Dxx-yy               1.000     1.000    -0.000
     In     3      Dxy                  0.999     0.999    -0.000
     In     3      S                    0.711     0.711    -0.000
     In     3      Px                   0.230     0.231    -0.001
     In     3      Py                   0.235     0.236    -0.000
     In     3      Pz                   0.250     0.251    -0.001
     In     3      S                   -0.236    -0.235    -0.002
     In     4      Dzz                  1.000     1.000    -0.000
     In     4      Dzy                  0.999     0.999     0.000
     In     4      Dzx                  0.998     0.998    -0.000
     In     4      Dxx-yy               1.000     1.000     0.000
     In     4      Dxy                  0.998     0.998    -0.000
     In     4      S                    0.711     0.711    -0.000
     In     4      Px                   0.250     0.251    -0.001
     In     4      Py                   0.235     0.236    -0.000
     In     4      Pz                   0.230     0.231    -0.001
     In     4      S                   -0.236    -0.235    -0.002
     In     5      Dzz                  1.000     1.000    -0.000
     In     5      Dzy                  0.998     0.998    -0.000
     In     5      Dzx                  0.999     0.999    -0.000
     In     5      Dxx-yy               1.000     1.000    -0.000
     In     5      Dxy                  0.998     0.998     0.000
     In     5      S                    0.721     0.717     0.004
     In     5      Px                   0.234     0.234     0.000
     In     5      Py                   0.237     0.235     0.002
     In     5      Pz                   0.237     0.233     0.003
     In     5      S                   -0.253    -0.253     0.000
     In     6      Dzz                  1.000     1.000    -0.000
     In     6      Dzy                  0.999     0.999     0.000
     In     6      Dzx                  0.998     0.998     0.000
     In     6      Dxx-yy               1.000     1.000    -0.000
     In     6      Dxy                  0.998     0.998    -0.000
     In     6      S                    0.713     0.713    -0.000
     In     6      Px                   0.240     0.240     0.000
     In     6      Py                   0.240     0.240    -0.000
     In     6      Pz                   0.237     0.237     0.000
     In     6      S                   -0.276    -0.275    -0.000
     In     7      Dzz                  1.000     1.000    -0.000
     In     7      Dzy                  0.998     0.998     0.000
     In     7      Dzx                  0.999     0.999     0.000
     In     7      Dxx-yy               1.000     1.000    -0.000
     In     7      Dxy                  0.998     0.998     0.000
     In     7      S                    0.708     0.708    -0.000
     In     7      Px                   0.240     0.240    -0.000
     In     7      Py                   0.244     0.244     0.000
     In     7      Pz                   0.236     0.236    -0.000
     In     7      S                   -0.269    -0.268    -0.001
     In     8      Dzz                  0.999     0.999     0.000
     In     8      Dzy                  0.999     0.999     0.000
     In     8      Dzx                  0.998     0.998    -0.000
     In     8      Dxx-yy               1.000     1.000     0.000
     In     8      Dxy                  0.998     0.998     0.000
     In     8      S                    0.736     0.737    -0.001
     In     8      Px                   0.262     0.261     0.001
     In     8      Py                   0.242     0.241     0.001
     In     8      Pz                   0.222     0.222    -0.000
     In     8      S                   -0.216    -0.213    -0.003
     In     9      Dzz                  1.000     1.000     0.000
     In     9      Dzy                  0.998     0.998     0.000
     In     9      Dzx                  0.999     0.999    -0.000
     In     9      Dxx-yy               1.000     1.000     0.000
     In     9      Dxy                  0.998     0.998     0.000
     In     9      S                    0.721     0.717     0.004
     In     9      Px                   0.238     0.237     0.001
     In     9      Py                   0.246     0.239     0.006
     In     9      Pz                   0.238     0.237     0.001
     In     9      S                   -0.268    -0.268    -0.000
     In    10      Dzz                  1.000     1.000     0.000
     In    10      Dzy                  0.999     0.999     0.000
     In    10      Dzx                  0.999     0.999     0.000
     In    10      Dxx-yy               0.999     0.999     0.000
     In    10      Dxy                  0.999     0.999     0.000
     In    10      S                    0.730     0.729     0.001
     In    10      Px                   0.243     0.245    -0.002
     In    10      Py                   0.264     0.258     0.006
     In    10      Pz                   0.243     0.245    -0.002
     In    10      S                   -0.244    -0.243    -0.002
     In    11      Dzz                  1.000     1.000    -0.000
     In    11      Dzy                  0.999     0.999    -0.000
     In    11      Dzx                  0.999     0.999    -0.000
     In    11      Dxx-yy               1.000     1.000     0.000
     In    11      Dxy                  0.998     0.998    -0.000
     In    11      S                    0.705     0.705    -0.000
     In    11      Px                   0.238     0.238    -0.000
     In    11      Py                   0.241     0.241     0.000
     In    11      Pz                   0.245     0.244     0.000
     In    11      S                   -0.228    -0.228    -0.001
     In    12      Dzz                  1.000     1.000     0.000
     In    12      Dzy                  0.998     0.998    -0.000
     In    12      Dzx                  0.999     0.999    -0.000
     In    12      Dxx-yy               1.000     1.000    -0.000
     In    12      Dxy                  0.999     0.999    -0.000
     In    12      S                    0.705     0.705    -0.000
     In    12      Px                   0.245     0.244     0.000
     In    12      Py                   0.241     0.241     0.000
     In    12      Pz                   0.238     0.238    -0.000
     In    12      S                   -0.228    -0.228    -0.001
     In    13      Dzz                  1.000     1.000     0.000
     In    13      Dzy                  0.999     0.999     0.000
     In    13      Dzx                  0.998     0.998    -0.000
     In    13      Dxx-yy               1.000     1.000    -0.000
     In    13      Dxy                  0.999     0.999     0.000
     In    13      S                    0.708     0.708     0.000
     In    13      Px                   0.242     0.242     0.000
     In    13      Py                   0.234     0.234     0.000
     In    13      Pz                   0.240     0.241    -0.000
     In    13      S                   -0.274    -0.271    -0.002
     In    14      Dzz                  1.000     1.000     0.000
     In    14      Dzy                  0.998     0.998     0.000
     In    14      Dzx                  0.998     0.998     0.000
     In    14      Dxx-yy               1.000     1.000     0.000
     In    14      Dxy                  0.998     0.998     0.000
     In    14      S                    0.708     0.708     0.000
     In    14      Px                   0.250     0.250    -0.000
     In    14      Py                   0.238     0.238    -0.001
     In    14      Pz                   0.237     0.238    -0.001
     In    14      S                   -0.247    -0.251     0.004
     In    15      Dzz                  1.000     1.000    -0.000
     In    15      Dzy                  0.998     0.998     0.000
     In    15      Dzx                  0.998     0.998     0.000
     In    15      Dxx-yy               1.000     1.000    -0.000
     In    15      Dxy                  0.999     0.999     0.000
     In    15      S                    0.710     0.710     0.000
     In    15      Px                   0.241     0.241     0.000
     In    15      Py                   0.240     0.240     0.000
     In    15      Pz                   0.241     0.241     0.000
     In    15      S                   -0.265    -0.264    -0.001
     In    16      Dzz                  1.000     1.000     0.000
     In    16      Dzy                  0.998     0.998    -0.000
     In    16      Dzx                  0.999     0.999     0.000
     In    16      Dxx-yy               1.000     1.000    -0.000
     In    16      Dxy                  0.999     0.999    -0.000
     In    16      S                    0.701     0.701    -0.000
     In    16      Px                   0.243     0.244    -0.000
     In    16      Py                   0.243     0.243    -0.000
     In    16      Pz                   0.238     0.239    -0.001
     In    16      S                   -0.226    -0.229     0.004
     In    17      Dzz                  1.000     1.000    -0.000
     In    17      Dzy                  0.998     0.998     0.000
     In    17      Dzx                  0.999     0.999    -0.000
     In    17      Dxx-yy               1.000     1.000    -0.000
     In    17      Dxy                  0.998     0.998    -0.000
     In    17      S                    0.721     0.717     0.004
     In    17      Px                   0.237     0.233     0.003
     In    17      Py                   0.237     0.235     0.002
     In    17      Pz                   0.234     0.234     0.000
     In    17      S                   -0.253    -0.253     0.000
     In    18      Dzz                  1.000     1.000     0.000
     In    18      Dzy                  0.998     0.998    -0.000
     In    18      Dzx                  0.998     0.998     0.000
     In    18      Dxx-yy               1.000     1.000    -0.000
     In    18      Dxy                  0.999     0.999     0.000
     In    18      S                    0.713     0.713    -0.000
     In    18      Px                   0.237     0.237     0.000
     In    18      Py                   0.240     0.240    -0.000
     In    18      Pz                   0.240     0.240     0.000
     In    18      S                   -0.276    -0.275    -0.000
     In    19      Dzz                  1.000     1.000    -0.000
     In    19      Dzy                  0.998     0.998     0.000
     In    19      Dzx                  0.998     0.998    -0.000
     In    19      Dxx-yy               0.999     0.999     0.000
     In    19      Dxy                  0.999     0.999     0.000
     In    19      S                    0.736     0.737    -0.001
     In    19      Px                   0.222     0.222    -0.000
     In    19      Py                   0.242     0.241     0.001
     In    19      Pz                   0.262     0.261     0.001
     In    19      S                   -0.216    -0.213    -0.003
     In    20      Dzz                  1.000     1.000    -0.000
     In    20      Dzy                  0.998     0.998     0.000
     In    20      Dzx                  0.999     0.999     0.000
     In    20      Dxx-yy               1.000     1.000    -0.000
     In    20      Dxy                  0.998     0.998     0.000
     In    20      S                    0.708     0.708    -0.000
     In    20      Px                   0.236     0.236    -0.000
     In    20      Py                   0.244     0.244     0.000
     In    20      Pz                   0.240     0.240    -0.000
     In    20      S                   -0.269    -0.268    -0.001
     In    21      Dzz                  1.000     1.000     0.000
     In    21      Dzy                  0.999     0.999     0.000
     In    21      Dzx                  0.998     0.998     0.000
     In    21      Dxx-yy               1.000     1.000     0.000
     In    21      Dxy                  0.999     0.999     0.000
     In    21      S                    0.711     0.711     0.000
     In    21      Px                   0.241     0.241    -0.000
     In    21      Py                   0.243     0.244    -0.000
     In    21      Pz                   0.241     0.241    -0.000
     In    21      S                   -0.245    -0.243    -0.003
     In    22      Dzz                  1.000     1.000    -0.000
     In    22      Dzy                  0.998     0.998     0.000
     In    22      Dzx                  0.998     0.998     0.000
     In    22      Dxx-yy               1.000     1.000    -0.000
     In    22      Dxy                  0.998     0.998     0.000
     In    22      S                    0.707     0.706     0.001
     In    22      Px                   0.241     0.241     0.000
     In    22      Py                   0.243     0.242     0.001
     In    22      Pz                   0.241     0.241     0.000
     In    22      S                   -0.244    -0.244    -0.000
     In    23      Dzz                  1.000     1.000     0.000
     In    23      Dzy                  0.998     0.998     0.000
     In    23      Dzx                  0.999     0.999     0.000
     In    23      Dxx-yy               1.000     1.000     0.000
     In    23      Dxy                  0.998     0.998     0.000
     In    23      S                    0.707     0.707    -0.000
     In    23      Px                   0.240     0.240    -0.001
     In    23      Py                   0.244     0.244    -0.001
     In    23      Pz                   0.237     0.238    -0.001
     In    23      S                   -0.264    -0.269     0.005
     In    24      Dzz                  1.000     1.000     0.000
     In    24      Dzy                  0.998     0.998     0.000
     In    24      Dzx                  0.999     0.999     0.000
     In    24      Dxx-yy               1.000     1.000    -0.000
     In    24      Dxy                  0.998     0.998     0.000
     In    24      S                    0.707     0.707    -0.000
     In    24      Px                   0.237     0.238    -0.001
     In    24      Py                   0.244     0.244    -0.001
     In    24      Pz                   0.240     0.240    -0.001
     In    24      S                   -0.264    -0.269     0.005
     In    25      Dzz                  1.000     1.000     0.000
     In    25      Dzy                  0.999     0.999     0.000
     In    25      Dzx                  0.998     0.998    -0.000
     In    25      Dxx-yy               1.000     1.000    -0.000
     In    25      Dxy                  0.999     0.999     0.000
     In    25      S                    0.708     0.708     0.000
     In    25      Px                   0.240     0.241    -0.000
     In    25      Py                   0.234     0.234     0.000
     In    25      Pz                   0.242     0.242     0.000
     In    25      S                   -0.274    -0.271    -0.002
     In    26      Dzz                  1.000     1.000     0.000
     In    26      Dzy                  0.998     0.998     0.000
     In    26      Dzx                  0.998     0.998     0.000
     In    26      Dxx-yy               0.999     0.999     0.000
     In    26      Dxy                  0.998     0.998     0.000
     In    26      S                    0.708     0.708     0.000
     In    26      Px                   0.237     0.238    -0.001
     In    26      Py                   0.238     0.238    -0.001
     In    26      Pz                   0.250     0.250    -0.000
     In    26      S                   -0.247    -0.251     0.004
     In    27      Dzz                  1.000     1.000     0.000
     In    27      Dzy                  0.999     0.999    -0.000
     In    27      Dzx                  0.999     0.999     0.000
     In    27      Dxx-yy               1.000     1.000     0.000
     In    27      Dxy                  0.998     0.998    -0.000
     In    27      S                    0.701     0.701    -0.000
     In    27      Px                   0.238     0.239    -0.001
     In    27      Py                   0.243     0.243    -0.000
     In    27      Pz                   0.243     0.244    -0.000
     In    27      S                   -0.226    -0.229     0.004
     In    28      Dzz                  1.000     1.000    -0.000
     In    28      Dzy                  0.999     0.999     0.000
     In    28      Dzx                  0.998     0.998     0.000
     In    28      Dxx-yy               1.000     1.000    -0.000
     In    28      Dxy                  0.998     0.998     0.000
     In    28      S                    0.710     0.710     0.000
     In    28      Px                   0.241     0.241     0.000
     In    28      Py                   0.240     0.240     0.000
     In    28      Pz                   0.241     0.241     0.000
     In    28      S                   -0.265    -0.264    -0.001
     In    29      Dzz                  1.000     1.000    -0.000
     In    29      Dzy                  0.999     0.999    -0.000
     In    29      Dzx                  0.999     0.999    -0.000
     In    29      Dxx-yy               1.000     1.000    -0.000
     In    29      Dxy                  0.999     0.999    -0.000
     In    29      S                    0.755     0.712     0.043
     In    29      Px                   0.259     0.212     0.047
     In    29      Py                   0.272     0.218     0.054
     In    29      Pz                   0.259     0.212     0.047
     In    29      S                   -0.260    -0.263     0.004
     In    30      Dzz                  1.000     1.000     0.000
     In    30      Dzy                  0.998     0.998     0.000
     In    30      Dzx                  0.999     0.999    -0.000
     In    30      Dxx-yy               1.000     1.000     0.000
     In    30      Dxy                  0.998     0.998     0.000
     In    30      S                    0.711     0.707     0.005
     In    30      Px                   0.239     0.239     0.000
     In    30      Py                   0.245     0.238     0.007
     In    30      Pz                   0.239     0.239     0.000
     In    30      S                   -0.229    -0.232     0.003
     In    31      Dzz                  1.000     1.000    -0.000
     In    31      Dzy                  0.999     0.999     0.000
     In    31      Dzx                  0.998     0.998     0.000
     In    31      Dxx-yy               1.000     1.000     0.000
     In    31      Dxy                  0.999     0.998     0.000
     In    31      S                    0.713     0.709     0.004
     In    31      Px                   0.242     0.237     0.005
     In    31      Py                   0.240     0.240     0.000
     In    31      Pz                   0.241     0.241     0.000
     In    31      S                   -0.259    -0.261     0.002
     In    32      Dzz                  1.000     1.000     0.000
     In    32      Dzy                  0.999     0.998     0.000
     In    32      Dzx                  0.998     0.998     0.000
     In    32      Dxx-yy               1.000     1.000    -0.000
     In    32      Dxy                  0.999     0.999     0.000
     In    32      S                    0.713     0.709     0.004
     In    32      Px                   0.241     0.241     0.000
     In    32      Py                   0.240     0.240     0.000
     In    32      Pz                   0.242     0.237     0.005
     In    32      S                   -0.259    -0.261     0.002
  ---------------------------------------------------------------
                           Total:     285.723   285.276     0.447
  ---------------------------------------------------------------

     Atomic Populations (Mulliken)
     -----------------------------
Species          Ion Spin      s       p       d       f      Total   Charge(e)   Spin(hbar/2)
==============================================================================================
  P               1   up:     0.875   1.956   0.000   0.000   2.831    -0.654        0.009
                  1   dn:     0.873   1.949   0.000   0.000   2.822
  P               2   up:     0.875   1.956   0.000   0.000   2.831    -0.654        0.009
                  2   dn:     0.873   1.949   0.000   0.000   2.822
  P               3   up:     0.876   1.967   0.000   0.000   2.843    -0.663        0.023
                  3   dn:     0.873   1.947   0.000   0.000   2.820
  P               4   up:     0.869   1.965   0.000   0.000   2.834    -0.668       -0.000
                  4   dn:     0.869   1.965   0.000   0.000   2.834
  P               5   up:     0.872   1.956   0.000   0.000   2.829    -0.654        0.004
                  5   dn:     0.872   1.953   0.000   0.000   2.825
  P               6   up:     0.870   1.958   0.000   0.000   2.828    -0.655        0.002
                  6   dn:     0.870   1.956   0.000   0.000   2.827
  P               7   up:     0.868   1.966   0.000   0.000   2.834    -0.668       -0.000
                  7   dn:     0.868   1.966   0.000   0.000   2.834
  P               8   up:     0.872   1.954   0.000   0.000   2.826    -0.652        0.001
                  8   dn:     0.872   1.953   0.000   0.000   2.825
  P               9   up:     0.872   1.954   0.000   0.000   2.826    -0.652        0.001
                  9   dn:     0.872   1.953   0.000   0.000   2.825
  P              10   up:     0.904   1.880   0.000   0.000   2.785    -0.570       -0.001
                 10   dn:     0.904   1.881   0.000   0.000   2.786
  P              11   up:     0.908   1.872   0.000   0.000   2.780    -0.561       -0.002
                 11   dn:     0.908   1.873   0.000   0.000   2.781
  P              12   up:     0.868   1.966   0.000   0.000   2.835    -0.668        0.001
                 12   dn:     0.868   1.966   0.000   0.000   2.834
  P              13   up:     0.875   1.961   0.000   0.000   2.835    -0.651        0.019
                 13   dn:     0.873   1.943   0.000   0.000   2.816
  P              14   up:     0.868   1.968   0.000   0.000   2.836    -0.672        0.001
                 14   dn:     0.868   1.967   0.000   0.000   2.836
  P              15   up:     0.873   1.962   0.000   0.000   2.835    -0.663        0.007
                 15   dn:     0.872   1.956   0.000   0.000   2.828
  P              16   up:     0.872   1.956   0.000   0.000   2.829    -0.654        0.003
                 16   dn:     0.872   1.953   0.000   0.000   2.825
  P              17   up:     0.869   1.965   0.000   0.000   2.834    -0.668       -0.000
                 17   dn:     0.869   1.965   0.000   0.000   2.834
  P              18   up:     0.870   1.958   0.000   0.000   2.828    -0.655        0.002
                 18   dn:     0.870   1.956   0.000   0.000   2.827
  P              19   up:     0.868   1.966   0.000   0.000   2.834    -0.668       -0.000
                 19   dn:     0.868   1.966   0.000   0.000   2.834
  P              20   up:     0.870   1.963   0.000   0.000   2.833    -0.662        0.003
                 20   dn:     0.869   1.960   0.000   0.000   2.829
  P              21   up:     0.870   1.963   0.000   0.000   2.833    -0.662        0.003
                 21   dn:     0.869   1.960   0.000   0.000   2.829
  P              22   up:     0.875   1.965   0.000   0.000   2.840    -0.653        0.026
                 22   dn:     0.872   1.942   0.000   0.000   2.814
  P              23   up:     0.870   1.967   0.000   0.000   2.837    -0.665        0.009
                 23   dn:     0.869   1.959   0.000   0.000   2.828
  P              24   up:     0.875   1.961   0.000   0.000   2.835    -0.651        0.019
                 24   dn:     0.873   1.943   0.000   0.000   2.816
  P              25   up:     0.868   1.966   0.000   0.000   2.835    -0.668        0.001
                 25   dn:     0.868   1.966   0.000   0.000   2.834
  P              26   up:     0.868   1.968   0.000   0.000   2.836    -0.672        0.001
                 26   dn:     0.868   1.967   0.000   0.000   2.836
  P              27   up:     0.873   1.962   0.000   0.000   2.835    -0.663        0.007
                 27   dn:     0.872   1.956   0.000   0.000   2.828
  P              28   up:     0.868   1.968   0.000   0.000   2.836    -0.673       -0.000
                 28   dn:     0.868   1.969   0.000   0.000   2.836
  P              29   up:     0.868   1.968   0.000   0.000   2.836    -0.673       -0.000
                 29   dn:     0.868   1.969   0.000   0.000   2.836
  P              30   up:     0.869   1.966   0.000   0.000   2.834    -0.669       -0.000
                 30   dn:     0.869   1.966   0.000   0.000   2.834
  P              31   up:     0.870   1.964   0.000   0.000   2.833    -0.667       -0.001
                 31   dn:     0.870   1.964   0.000   0.000   2.834
  In              1   up:     0.467   0.724   4.995   0.000   6.185     0.632        0.003
                  1   dn:     0.464   0.724   4.995   0.000   6.182
  In              2   up:     0.539   0.810   4.994   0.000   6.343     0.354        0.040
                  2   dn:     0.506   0.803   4.994   0.000   6.303
  In              3   up:     0.474   0.716   4.995   0.000   6.184     0.628       -0.004
                  3   dn:     0.477   0.717   4.995   0.000   6.188
  In              4   up:     0.474   0.716   4.995   0.000   6.184     0.628       -0.004
                  4   dn:     0.477   0.717   4.995   0.000   6.188
  In              5   up:     0.468   0.709   4.995   0.000   6.171     0.667        0.010
                  5   dn:     0.464   0.703   4.995   0.000   6.161
  In              6   up:     0.438   0.718   4.995   0.000   6.150     0.700       -0.000
                  6   dn:     0.438   0.717   4.995   0.000   6.150
  In              7   up:     0.439   0.720   4.994   0.000   6.154     0.692       -0.001
                  7   dn:     0.440   0.720   4.994   0.000   6.155
  In              8   up:     0.520   0.726   4.994   0.000   6.239     0.519       -0.002
                  8   dn:     0.524   0.724   4.994   0.000   6.242
  In              9   up:     0.453   0.722   4.994   0.000   6.170     0.672        0.011
                  9   dn:     0.450   0.714   4.994   0.000   6.158
  In             10   up:     0.485   0.750   4.995   0.000   6.230     0.540        0.001
                 10   dn:     0.486   0.748   4.995   0.000   6.229
  In             11   up:     0.477   0.724   4.995   0.000   6.195     0.609       -0.000
                 11   dn:     0.477   0.724   4.995   0.000   6.196
  In             12   up:     0.477   0.724   4.995   0.000   6.195     0.609       -0.000
                 12   dn:     0.477   0.724   4.995   0.000   6.196
  In             13   up:     0.434   0.717   4.995   0.000   6.146     0.707       -0.002
                 13   dn:     0.436   0.717   4.995   0.000   6.148
  In             14   up:     0.461   0.724   4.994   0.000   6.179     0.643        0.002
                 14   dn:     0.457   0.726   4.994   0.000   6.177
  In             15   up:     0.445   0.723   4.995   0.000   6.162     0.675       -0.000
                 15   dn:     0.445   0.723   4.995   0.000   6.162
  In             16   up:     0.475   0.724   4.995   0.000   6.195     0.613        0.002
                 16   dn:     0.472   0.726   4.995   0.000   6.192
  In             17   up:     0.468   0.709   4.995   0.000   6.171     0.667        0.010
                 17   dn:     0.464   0.703   4.995   0.000   6.161
  In             18   up:     0.438   0.718   4.995   0.000   6.150     0.700       -0.000
                 18   dn:     0.438   0.717   4.995   0.000   6.150
  In             19   up:     0.520   0.726   4.994   0.000   6.239     0.519       -0.002
                 19   dn:     0.524   0.724   4.994   0.000   6.242
  In             20   up:     0.439   0.720   4.994   0.000   6.154     0.692       -0.001
                 20   dn:     0.440   0.720   4.994   0.000   6.155
  In             21   up:     0.466   0.725   4.995   0.000   6.185     0.626       -0.003
                 21   dn:     0.469   0.725   4.995   0.000   6.188
  In             22   up:     0.463   0.726   4.995   0.000   6.183     0.635        0.001
                 22   dn:     0.462   0.725   4.995   0.000   6.182
  In             23   up:     0.443   0.720   4.994   0.000   6.158     0.688        0.003
                 23   dn:     0.438   0.722   4.994   0.000   6.154
  In             24   up:     0.443   0.720   4.994   0.000   6.158     0.688        0.003
                 24   dn:     0.438   0.722   4.994   0.000   6.154
  In             25   up:     0.434   0.717   4.995   0.000   6.146     0.707       -0.002
                 25   dn:     0.436   0.717   4.995   0.000   6.148
  In             26   up:     0.461   0.724   4.994   0.000   6.179     0.643        0.002
                 26   dn:     0.457   0.726   4.994   0.000   6.177
  In             27   up:     0.475   0.724   4.995   0.000   6.195     0.613        0.002
                 27   dn:     0.472   0.726   4.995   0.000   6.192
  In             28   up:     0.445   0.723   4.995   0.000   6.162     0.675       -0.000
                 28   dn:     0.445   0.723   4.995   0.000   6.162
  In             29   up:     0.495   0.790   4.996   0.000   6.281     0.632        0.195
                 29   dn:     0.449   0.642   4.996   0.000   6.087
  In             30   up:     0.482   0.724   4.995   0.000   6.201     0.614        0.015
                 30   dn:     0.474   0.717   4.995   0.000   6.186
  In             31   up:     0.454   0.723   4.995   0.000   6.171     0.669        0.012
                 31   dn:     0.448   0.717   4.995   0.000   6.159
  In             32   up:     0.454   0.723   4.995   0.000   6.171     0.669        0.012
                 32   dn:     0.448   0.717   4.995   0.000   6.159
==============================================================================================

                 Bond                   Population        Spin       Length (A)
================================================================================
              P 18 -- In 19                  0.77         0.00          2.49896
              P 6  -- In 8                   0.77         0.00          2.49896
              P 5  -- In 8                   0.75         0.00          2.51596
              P 16 -- In 19                  0.75         0.00          2.51596
              P 10 -- In 12                  0.81         0.00          2.53343
              P 10 -- In 11                  0.81         0.00          2.53343
              P 11 -- In 21                  0.80        -0.00          2.53451
              P 25 -- In 26                  0.64         0.00          2.53589
              P 12 -- In 14                  0.64         0.00          2.53589
              P 23 -- In 7                   0.68         0.00          2.53876
              P 23 -- In 20                  0.68         0.00          2.53876
              P 14 -- In 5                   0.68        -0.00          2.54005
              P 26 -- In 17                  0.68        -0.00          2.54005
              P 9  -- In 25                  0.68        -0.00          2.54255
              P 8  -- In 13                  0.68        -0.00          2.54255
              P 20 -- In 23                  0.68         0.00          2.54351
              P 21 -- In 24                  0.68         0.00          2.54351
              P 10 -- In 1                   0.81         0.00          2.54363
              P 7  -- In 4                   0.64         0.00          2.54442
              P 19 -- In 3                   0.64         0.00          2.54442
              P 20 -- In 20                  0.68         0.00          2.54589
              P 21 -- In 7                   0.68         0.00          2.54589
              P 13 -- In 14                  0.63        -0.00          2.54709
              P 24 -- In 26                  0.63        -0.00          2.54709
              P 28 -- In 31                  0.66        -0.00          2.54712
              P 29 -- In 32                  0.66        -0.00          2.54712
              P 17 -- In 3                   0.68         0.00          2.54737
              P 4  -- In 4                   0.68         0.00          2.54737
              P 15 -- In 17                  0.66        -0.00          2.54752
              P 27 -- In 5                   0.66        -0.00          2.54752
              P 12 -- In 9                   0.68        -0.00          2.54806
              P 25 -- In 9                   0.68        -0.00          2.54806
              P 6  -- In 14                  0.59        -0.00          2.54848
              P 18 -- In 26                  0.59        -0.00          2.54848
              P 5  -- In 23                  0.63        -0.00          2.54876
              P 16 -- In 24                  0.63        -0.00          2.54876
              P 30 -- In 32                  0.68        -0.00          2.54895
              P 30 -- In 31                  0.68        -0.00          2.54895
              P 11 -- In 16                  0.79         0.00          2.54985
              P 11 -- In 27                  0.79         0.00          2.54985
              P 3  -- In 9                   0.62        -0.00          2.55014
              P 20 -- In 22                  0.62        -0.00          2.55194
              P 21 -- In 22                  0.62        -0.00          2.55194
              P 19 -- In 26                  0.62         0.00          2.55214
              P 7  -- In 14                  0.62         0.00          2.55214
              P 28 -- In 30                  0.65        -0.00          2.55224
              P 29 -- In 30                  0.65        -0.00          2.55224
              P 15 -- In 6                   0.67         0.00          2.55232
              P 27 -- In 18                  0.67         0.00          2.55232
              P 29 -- In 13                  0.66        -0.00          2.55432
              P 28 -- In 25                  0.66         0.00          2.55432
              P 22 -- In 24                  0.65        -0.00          2.55451
              P 22 -- In 23                  0.65        -0.00          2.55451
              P 23 -- In 9                   0.62        -0.00          2.55509
              P 4  -- In 6                   0.67         0.00          2.55515
              P 17 -- In 18                  0.67         0.00          2.55515
              P 17 -- In 20                  0.67         0.00          2.55562
              P 4  -- In 7                   0.67         0.00          2.55562
              P 31 -- In 28                  0.67         0.00          2.55668
              P 31 -- In 15                  0.67         0.00          2.55668
              P 29 -- In 15                  0.65         0.00          2.55705
              P 28 -- In 28                  0.65         0.00          2.55705
              P 30 -- In 21                  0.62         0.00          2.55712
              P 12 -- In 15                  0.66         0.00          2.55725
              P 25 -- In 28                  0.66         0.00          2.55725
              P 14 -- In 15                  0.65        -0.00          2.55944
              P 26 -- In 28                  0.65        -0.00          2.55944
              P 1  -- In 3                   0.64         0.00          2.55970
              P 2  -- In 4                   0.64         0.00          2.55970
              P 6  -- In 13                  0.64        -0.00          2.55979
              P 18 -- In 25                  0.64        -0.00          2.55979
              P 23 -- In 30                  0.60        -0.01          2.55999
              P 26 -- In 18                  0.67         0.00          2.56000
              P 14 -- In 6                   0.67         0.00          2.56000
              P 19 -- In 13                  0.66        -0.00          2.56017
              P 7  -- In 25                  0.66        -0.00          2.56017
              P 7  -- In 23                  0.66         0.00          2.56169
              P 19 -- In 24                  0.66         0.00          2.56170
              P 16 -- In 18                  0.61         0.00          2.56313
              P 5  -- In 6                   0.61         0.00          2.56313
              P 18 -- In 20                  0.61        -0.00          2.56369
              P 6  -- In 7                   0.61        -0.00          2.56369
              P 25 -- In 11                  0.62         0.00          2.56783
              P 12 -- In 12                  0.62         0.00          2.56783
              P 22 -- In 30                  0.61        -0.00          2.56785
              P 24 -- In 32                  0.64         0.00          2.56837
              P 13 -- In 31                  0.64         0.00          2.56837
              P 31 -- In 22                  0.63        -0.00          2.56841
              P 30 -- In 22                  0.61         0.00          2.56899
              P 26 -- In 27                  0.61         0.00          2.56973
              P 14 -- In 16                  0.61         0.00          2.56973
              P 15 -- In 31                  0.63        -0.00          2.57089
              P 27 -- In 32                  0.63        -0.00          2.57089
              P 2  -- In 17                  0.62        -0.00          2.57198
              P 1  -- In 5                   0.62        -0.00          2.57198
              P 8  -- In 16                  0.61        -0.00          2.57412
              P 9  -- In 27                  0.61        -0.00          2.57412
              P 3  -- In 4                   0.61        -0.00          2.57560
              P 3  -- In 3                   0.61        -0.00          2.57560
              P 24 -- In 27                  0.59        -0.00          2.57647
              P 13 -- In 16                  0.59        -0.00          2.57647
              P 17 -- In 1                   0.59        -0.00          2.57887
              P 4  -- In 1                   0.59        -0.00          2.57887
              P 31 -- In 1                   0.61        -0.00          2.57906
              P 9  -- In 12                  0.59         0.00          2.58010
              P 8  -- In 11                  0.59         0.00          2.58010
              P 27 -- In 11                  0.59        -0.00          2.58232
              P 15 -- In 12                  0.59        -0.00          2.58232
              P 24 -- In 29                  0.66        -0.01          2.58242
              P 13 -- In 29                  0.66        -0.01          2.58242
              P 9  -- In 10                  0.69         0.00          2.58638
              P 8  -- In 10                  0.69         0.00          2.58638
              P 16 -- In 21                  0.59         0.00          2.58806
              P 5  -- In 21                  0.59         0.00          2.58806
              P 21 -- In 5                   0.60        -0.00          2.58880
              P 20 -- In 17                  0.60        -0.00          2.58880
              P 3  -- In 10                  0.55        -0.01          2.59473
              P 22 -- In 29                  0.63        -0.01          2.59902
              P 2  -- In 2                   0.63        -0.00          2.60447
              P 1  -- In 2                   0.63        -0.00          2.60447
              P 1  -- In 8                   0.54        -0.00          2.60672
              P 2  -- In 19                  0.54        -0.00          2.60672
             In 2  -- In 8                  -0.31        -0.01          2.90841
             In 2  -- In 19                 -0.31        -0.01          2.90841
             In 2  -- In 10                 -0.15         0.01          2.94385
================================================================================

 Hirshfeld supercell size:           2           2           2
Standard grid dimensions: 240 240 240
Fine grid dimensions:     240 240 240


     Hirshfeld Analysis
     ------------------
Species   Ion     Hirshfeld Charge (e)  Spin (hbar/2)
===================================================
  P        1                -0.25        0.01
  P        2                -0.25        0.01
  P        3                -0.23        0.02
  P        4                -0.24        0.00
  P        5                -0.22        0.00
  P        6                -0.23        0.00
  P        7                -0.24       -0.00
  P        8                -0.23        0.00
  P        9                -0.23        0.00
  P       10                -0.26       -0.00
  P       11                -0.26       -0.00
  P       12                -0.24        0.00
  P       13                -0.23        0.02
  P       14                -0.24        0.00
  P       15                -0.23        0.01
  P       16                -0.22        0.00
  P       17                -0.24        0.00
  P       18                -0.23        0.00
  P       19                -0.24       -0.00
  P       20                -0.23        0.00
  P       21                -0.23        0.00
  P       22                -0.23        0.03
  P       23                -0.23        0.01
  P       24                -0.23        0.02
  P       25                -0.24        0.00
  P       26                -0.24        0.00
  P       27                -0.23        0.01
  P       28                -0.24        0.00
  P       29                -0.24        0.00
  P       30                -0.24        0.00
  P       31                -0.24       -0.00
  In       1                 0.22       -0.00
  In       2                 0.16        0.03
  In       3                 0.23        0.00
  In       4                 0.23        0.00
  In       5                 0.26        0.01
  In       6                 0.24        0.00
  In       7                 0.24        0.00
  In       8                 0.23        0.01
  In       9                 0.24        0.01
  In      10                 0.19        0.02
  In      11                 0.22        0.00
  In      12                 0.22        0.00
  In      13                 0.24        0.00
  In      14                 0.22        0.00
  In      15                 0.24        0.00
  In      16                 0.22        0.00
  In      17                 0.26        0.01
  In      18                 0.24        0.00
  In      19                 0.23        0.01
  In      20                 0.24        0.00
  In      21                 0.22        0.00
  In      22                 0.23        0.00
  In      23                 0.23        0.00
  In      24                 0.23        0.00
  In      25                 0.24        0.00
  In      26                 0.22        0.00
  In      27                 0.22        0.00
  In      28                 0.24        0.00
  In      29                 0.19        0.15
  In      30                 0.24        0.01
  In      31                 0.24        0.01
  In      32                 0.24        0.01
===================================================

 
 A BibTeX formatted list of references used in this run has been written to 
 P_Vacancy_Migration_5->3_Singlepoints_4.bib
 
Initialisation time =     29.82 s
Calculation time    =   8670.65 s
Finalisation time   =    156.70 s
Total time          =   8857.18 s
Peak Memory Use     = 9562856 kB
 
Overall parallel efficiency rating: Terrible (33%)
 
Data was distributed by:-
G-vector (3-way); efficiency rating: Poor (36%)
k-point (36-way); efficiency rating: Good (78%)
