 +-------------------------------------------------+
 |                                                 |
 |      CCC   AA    SSS  TTTTT  EEEEE  PPPP        |
 |     C     A  A  S       T    E      P   P       |
 |     C     AAAA   SS     T    EEE    PPPP        |
 |     C     A  A     S    T    E      P           |
 |      CCC  A  A  SSS     T    EEEEE  P           |
 |                                                 |
 +-------------------------------------------------+
 |                                                 |
 | Welcome to Academic Release CASTEP version 24.1 |
 | Ab Initio Total Energy Program                  |
 |                                                 |
 | Authors:                                        |
 | M. Segall, M. Probert, C. Pickard, P. Hasnip,   |
 | S. Clark, K. Refson, J. R. Yates,               |
 | A. Bartok-Partay, M. Payne                      |
 |                                                 |
 | Contributors:                                   |
 | P. Lindan, P. Haynes, J. White, V. Milman,      |
 | N. Govind, M. Gibson, P. Tulip, V. Cocula,      |
 | B. Montanari, D. Quigley, M. Glover,            |
 | L. Bernasconi, A. Perlov, M. Plummer,           |
 | E. McNellis, J. Meyer, J. Gale, D. Jochym       |
 | J. Aarons, B. Walker, R. Gillen, D. Jones       |
 | T. Green, I. J. Bush, C. J. Armstrong,          |
 | E. J. Higgins, E. L. Brown, M. S. McFly,        |
 | J. Wilkins, B-C. Shih, P. J. P. Byrne,          |
 | R. J. Maurer, J. C. Womack, J. Dziedzic,        |
 | L. LeBlanc, T. K. Stenczel, J. Kermode,         |
 | S. Sturniolo, B. Shi, B. Durham, M. Evans,      |
 | M. J. Smith, A. Tamerus, Z. Hawkhead,           |
 | V. Ravindran, T. Hollins, S. A. Joyce,          |
 | R. T. Strong, A. M. Reilly, S. J. Donaldson     |
 |                                                 |
 | Copyright (c) 2000 - 2023                       |
 |                                                 |
 |     Distributed under license from Cambridge    |
 |     Enterprise for academic use only.           |
 |                                                 |
 | Please cite                                     |
 |                                                 |
 |     "First principles methods using CASTEP"     |
 |                                                 |
 |         Zeitschrift fuer Kristallographie       |
 |           220(5-6) pp. 567-570 (2005)           |
 |                                                 |
 | S. J. Clark, M. D. Segall, C. J. Pickard,       |
 | P. J. Hasnip, M. J. Probert, K. Refson,         |
 | M. C. Payne                                     |
 |                                                 |
 |       in all publications arising from          |
 |              your use of CASTEP                 |
 |                                                 |
 +-------------------------------------------------+
 |                                                 |
 |              http://www.castep.org              |
 |                                                 |
 +-------------------------------------------------+



 Compiled for  GNU 11.2.0 on 04-04-2024 18:39:17
 from code version 6355fd106 Castep241_branch Thu Mar 7 17:56:19 2024 +0000
 Compiler: GNU Fortran 11.2.0; Optimisation: FAST
 Comms   : MPI VERSION : CRAY MPICH version 8.1.23.14 (ANL base 3.4a2)
 MATHLIBS: default (LAPACK version 3.10.1)
 FFT Lib : fftw3 version commercial-fftw-3.3.10-sse2-avx-avx2-avx2_128
 Fundamental constants values: CODATA 2018

 Run started: Mon, 24 Mar 2025 00:33:29 +0000

 Atomic calculation performed for P: 1s2 2s2 2p6 3s2 3p3

 Converged in 47 iterations to an ae energy of -9309.074 eV

   ============================================================                
   | Pseudopotential Report - Date of generation 24-03-2025   |                
   ------------------------------------------------------------                
   | Element: P Ionic charge:  5.00 Level of theory: RSCAN    |                
   | Atomic Solver: Koelling-Harmon                           |                
   |                                                          |                
   |               Reference Electronic Structure             |                
   |         Orbital         Occupation         Energy        |                
   |            3s              2.000           -0.535        |                
   |            3p              3.000           -0.209        |                
   |                                                          |                
   |                 Pseudopotential Definition               |                
   |        Beta     l      e      Rc     scheme   norm       |                
   |          1      0   -0.535   1.807     qc      0         |                
   |          2      0    0.250   1.807     qc      0         |                
   |          3      1   -0.209   1.807     qc      0         |                
   |          4      1    0.250   1.807     qc      0         |                
   |          5      2    0.000   1.807     qc      0         |                
   |          6      2    0.250   1.807     qc      0         |                
   |         loc     3    0.000   1.807     pn      0         |                
   |                                                          |                
   | Augmentation charge Rinner = 1.263                       |                
   | Partial core correction Rc = 1.263                       |                
   ------------------------------------------------------------                
   | "3|1.8|4|4|5|30:31:32"                                   |                
   ------------------------------------------------------------                
   |      Author: Chris J. Pickard, Cambridge University      |                
   ============================================================                
 Warning: otfg_output_psp cannot write out meta-GGA pseudopotentials presently.

 Atomic calculation performed for In:
 1s2 2s2 2p6 3s2 3p6 3d10 4s2 4p6 4d10 5s2 5p1

 Converged in 84 iterations to an ae energy of -160093.328 eV

   ============================================================                
   | Pseudopotential Report - Date of generation 24-03-2025   |                
   ------------------------------------------------------------                
   | Element: In Ionic charge: 13.00 Level of theory: RSCAN   |                
   | Atomic Solver: Koelling-Harmon                           |                
   |                                                          |                
   |               Reference Electronic Structure             |                
   |         Orbital         Occupation         Energy        |                
   |            4d             10.000           -0.711        |                
   |            5s              2.000           -0.313        |                
   |            5p              1.000           -0.095        |                
   |                                                          |                
   |                 Pseudopotential Definition               |                
   |        Beta     l      e      Rc     scheme   norm       |                
   |          1      0   -0.313   2.501     qc      0         |                
   |          2      0    0.250   2.501     qc      0         |                
   |          3      1   -0.095   2.501     qc      0         |                
   |          4      1    0.250   2.501     qc      0         |                
   |          5      2   -0.711   2.207     qc      0         |                
   |          6      2    0.250   2.207     qc      0         |                
   |         loc     3    0.000   2.501     pn      0         |                
   |                                                          |                
   | Augmentation charge Rinner = 1.504                       |                
   | Partial core correction Rc = 1.504                       |                
   ------------------------------------------------------------                
   | "3|2.5|2.5|1.5|7|8|9|50:51:42U2.2U2.2"                   |                
   ------------------------------------------------------------                
   |      Author: Chris J. Pickard, Cambridge University      |                
   ============================================================                
 Warning: otfg_output_psp cannot write out meta-GGA pseudopotentials presently.

 Pseudo atomic calculation performed for P 3s2 3p3

 Converged in 23 iterations to a total energy of -208.0292 eV

 Pseudo atomic calculation performed for In 4d10 5s2 5p1

 Converged in 42 iterations to a total energy of -1747.4501 eV
 Calculation parallelised over 78 processes.
 Data is distributed by G-vector(3-way) and k-point(26-way)
 Each process may use up to 16 threads.

 ************************************ Title ************************************
 

 ***************************** General Parameters ******************************
  
 output verbosity                               : normal  (1)
 write checkpoint data to                       : StackingFaultStructs_111_11-2_0.check
 type of calculation                            : geometry optimization
 stress calculation                             : off
 density difference calculation                 : off
 electron localisation func (ELF) calculation   : off
 Hirshfeld analysis                             : on
 polarisation (Berry phase) analysis            : off
 molecular orbital projected DOS                : off
 deltaSCF calculation                           : off
 unlimited duration calculation
 timing information                             : on
 memory usage estimate                          : on
 write extra output files                       : on
 write final potential to formatted file        : off
 write final density to formatted file          : off
 write BibTeX reference list                    : on
 write OTFG pseudopotential files               : on
 write electrostatic potential file             : on
 write bands file                               : on
 checkpoint writing                             : off
  
 output         length unit                     : A
 output           mass unit                     : amu
 output           time unit                     : ps
 output         charge unit                     : e
 output           spin unit                     : hbar/2
 output         energy unit                     : eV
 output          force unit                     : eV/A
 output       velocity unit                     : A/ps
 output       pressure unit                     : GPa
 output     inv_length unit                     : 1/A
 output      frequency unit                     : cm-1
 output force constant unit                     : eV/A**2
 output         volume unit                     : A**3
 output   IR intensity unit                     : (D/A)**2/amu
 output         dipole unit                     : D
 output         efield unit                     : eV/A/e
 output        entropy unit                     : J/mol/K
 output    efield chi2 unit                     : pm/V
  
 wavefunctions paging                           : none
 random number generator seed                   :    3329365
 data distribution                              : optimal for this architecture
 optimization strategy                          : balance speed and memory

 *********************** Exchange-Correlation Parameters ***********************
  
 using functional                               : RSCAN
 relativistic treatment                         : Koelling-Harmon
 DFT+D: Semi-empirical dispersion correction    : off

 ************************* Pseudopotential Parameters **************************
  
 pseudopotential representation                 : reciprocal space
 <beta|phi> representation                      : reciprocal space
 spin-orbit coupling                            : off

 **************************** Basis Set Parameters *****************************
  
 plane wave basis set cut-off                   :   900.0000   eV
 size of standard grid                          :     2.0000
 size of   fine   gmax                          :    30.7390   1/A
 finite basis set correction                    : none

 **************************** Electronic Parameters ****************************
  
 number of  electrons                           :  216.0    
 net charge of system                           :  0.000    
 treating system as non-spin-polarized
 number of bands                                :        130

 ********************* Electronic Minimization Parameters **********************
  
 Method: Treating system as metallic with density mixing treatment of electrons,
         and number of  SD  steps               :          1
         and number of  CG  steps               :          4
  
 total energy / atom convergence tol.           : 0.1000E-07   eV
 eigen-energy convergence tolerance             : 0.2222E-08   eV
 max force / atom convergence tol.              : ignored
 convergence tolerance window                   :          3   cycles
 max. number of SCF cycles                      :         50
 number of fixed-spin iterations                :         10
 smearing scheme                                : Gaussian
 smearing width                                 : 0.2000       eV
 Fermi energy convergence tolerance             : 0.2721E-13   eV
 periodic dipole correction                     : NONE

 ************************** Density Mixing Parameters **************************
  
 density-mixing scheme                          : Pulay
 max. length of mixing history                  :         15
 charge density mixing amplitude                : 0.5000    
 cut-off energy for mixing                      :  900.0       eV

 *********************** Population Analysis Parameters ************************
  
 Population analysis with cutoff                :  3.000       A
 Population analysis output                     : summary and pdos components

 ********************** Geometry Optimization Parameters ***********************
  
 optimization method                            : LBFGS
 max. no. of LBFGS updates                      : unbounded
 preconditioned LBFGS is activated
 preconditioner type                            : EXP
     stabilization constant                     :     0.1000
     parameter A                                :     3.0000
     nearest neighbor distance                  : automatic
     cut-off distance                           : automatic
     parameter mu                               : automatic
 variable cell method                           : fixed basis quality
 max. number of steps                           :         30
 estimated bulk modulus                         :  500.0       GPa
 estimated <frequency>                          :  1668.       cm-1
 geom line minimiser                            : on
 with line minimiser tolerance                  :     0.4000
 total energy convergence tolerance             : 0.2000E-04   eV/atom
        max ionic |force| tolerance             : 0.1000E-02   eV/A
 max ionic |displacement| tolerance             : 0.1000E-02   A
   max |stress component| tolerance             : 0.1000       GPa
 convergence tolerance window                   :          2   steps
 backup results every                           :          5   steps
 write geom trajectory file                     : on

 *******************************************************************************
  

                           -------------------------------
                                      Unit Cell
                           -------------------------------
        Real Lattice(A)                      Reciprocal Lattice(1/A)
     4.1725270     0.0000000     0.0000000        1.505846531   0.000000000   0.000000000
     0.0000000     7.2270280     0.0000000        0.000000000   0.869400991   0.000000000
     0.0000000     0.0000000    20.4411230        0.000000000   0.000000000   0.307379654

                       Lattice parameters(A)       Cell Angles
                    a =      4.172527          alpha =   90.000000
                    b =      7.227028          beta  =   90.000000
                    c =     20.441123          gamma =   90.000000

                       Current cell volume =           616.401440       A**3
                                   density =             2.838250   AMU/A**3
                                           =             4.713024     g/cm^3

                           -------------------------------
                                     Cell Contents
                           -------------------------------
                         Total number of ions in cell =   24
                      Total number of species in cell =    2
                        Max number of any one species =   12

            xxxxxxxxxxxxxxxxxxxxxxxxxxxxxxxxxxxxxxxxxxxxxxxxxxxxxxxxxxxx
            x  Element    Atom        Fractional coordinates of atoms  x
            x            Number           u          v          w      x
            x----------------------------------------------------------x
            x  P            1         0.500000   0.166667   0.958333   x 
            x  P            2         0.500000   0.833333   0.791667   x 
            x  P            3         0.000000   0.333333   0.791667   x 
            x  P            4         0.000000   0.666667   0.458333   x 
            x  P            5         0.500000   0.500000   0.625000   x 
            x  P            6         0.500000   0.166667   0.458333   x 
            x  P            7         0.500000   0.833333   0.291667   x 
            x  P            8         0.000000   0.333333   0.291667   x 
            x  P            9         0.000000   0.000000   0.125000   x 
            x  P           10         0.500000   0.500000   0.125000   x 
            x  P           11         0.000000   0.000000   0.625000   x 
            x  P           12         0.000000   0.666667   0.958333   x 
            x  In           1         0.500000   0.500000   0.000000   x 
            x  In           2         0.000000   0.000000   0.000000   x 
            x  In           3         0.500000   0.166667   0.833333   x 
            x  In           4         0.000000   0.333333   0.166667   x 
            x  In           5         0.500000   0.833333   0.166667   x 
            x  In           6         0.500000   0.833333   0.666667   x 
            x  In           7         0.500000   0.166667   0.333333   x 
            x  In           8         0.000000   0.666667   0.333333   x 
            x  In           9         0.000000   0.666667   0.833333   x 
            x  In          10         0.500000   0.500000   0.500000   x 
            x  In          11         0.000000   0.333333   0.666667   x 
            x  In          12         0.000000   0.000000   0.500000   x 
            xxxxxxxxxxxxxxxxxxxxxxxxxxxxxxxxxxxxxxxxxxxxxxxxxxxxxxxxxxxx


                         No user defined ionic velocities

                           -------------------------------
                                   Details of Species
                           -------------------------------

                               Mass of species in AMU
                                    P   30.9737600
                                    In  114.8180000

                          Electric Quadrupole Moment (Barn)
                                    P    1.0000000 No Isotope Defined
                                    In    0.7700000 Isotope115

                          Files used for pseudopotentials:
                                    P 3|1.8|4|4|5|30:31:32
                                    In 3|2.5|2.5|1.5|7|8|9|50:51:42U2.2U2.2

                           -------------------------------
                              k-Points For BZ Sampling
                           -------------------------------
                       MP grid size for SCF calculation is  8  6  2
                            with an offset of   0.062  0.083  0.250
                       Number of kpoints used =            52

                           -------------------------------
                               Symmetry and Constraints
                           -------------------------------

                      Cell is a supercell containing 12 primitive cells
                      Maximum deviation from symmetry =  0.00000         ANG

                      Number of symmetry operations   =           1
                      Number of ionic constraints     =          48
                      Point group of crystal =     1: C1, 1, 1
                      Space group of crystal =   216: F-43m, F -4 2 3

             Set iprint > 1 for details on symmetry rotations/translations

                         Centre of mass is NOT constrained
             Set iprint > 1 for details of linear ionic constraints

                         Number of cell constraints= 6
                         Cell constraints are:  0 0 0 0 0 0

                         External pressure/stress (GPa)
                          0.00000   0.00000   0.00000
                                    0.00000   0.00000
                                              0.00000
 
+---------------- MEMORY AND SCRATCH DISK ESTIMATES PER PROCESS --------------+
|                                                     Memory          Disk    |
| Baseline code, static data and system overhead      386.0 MB         0.0 MB |
| BLAS internal memory storage                          0.0 MB         0.0 MB |
| Model and support data                             1605.2 MB         0.0 MB |
| Electronic energy minimisation requirements         225.4 MB         0.0 MB |
| Force calculation requirements                       33.8 MB         0.0 MB |
|                                               ----------------------------- |
| Approx. total storage required per process         2216.6 MB         0.0 MB |
|                                                                             |
| Requirements will fluctuate during execution and may exceed these estimates |
+-----------------------------------------------------------------------------+
Calculating approximate eigenstates for fixed initial Hamiltonian
Cut-off for approx. calculation is   89.988 eV
Improving approx. states at cut-off of  450.000 eV
Resetting cut-off to  900.000 eV
Calculating total energy with cut-off of  900.000 eV.
------------------------------------------------------------------------ <-- SCF
SCF loop      Energy           Fermi           Energy gain       Timer   <-- SCF
                               energy          per atom          (sec)   <-- SCF
------------------------------------------------------------------------ <-- SCF
Initial  -2.36378131E+004  0.00000000E+000                        82.50  <-- SCF
      1  -2.35521303E+004  2.58127245E+000  -3.57011736E+000     130.69  <-- SCF
      2  -2.35522024E+004  2.58126552E+000   3.00547493E-003     171.34  <-- SCF
      3  -2.35771797E+004  2.88158037E+000   1.04072266E+000     220.12  <-- SCF
      4  -2.35814238E+004  2.95460490E+000   1.76835434E-001     273.27  <-- SCF
      5  -2.35795679E+004  3.31669586E+000  -7.73270635E-002     319.69  <-- SCF
      6  -2.35792528E+004  3.36976648E+000  -1.31319758E-002     367.94  <-- SCF
      7  -2.35792333E+004  3.41795170E+000  -8.10200162E-004     419.68  <-- SCF
      8  -2.35797905E+004  3.45843172E+000   2.32150426E-002     465.71  <-- SCF
      9  -2.35798037E+004  3.39911066E+000   5.49159233E-004     509.81  <-- SCF
     10  -2.35798048E+004  3.42252138E+000   4.88796421E-005     557.50  <-- SCF
     11  -2.35798045E+004  3.42437633E+000  -1.61143865E-005     607.43  <-- SCF
     12  -2.35798049E+004  3.42215485E+000   1.71233508E-005     654.72  <-- SCF
     13  -2.35798049E+004  3.42190618E+000   1.63477457E-006     697.00  <-- SCF
     14  -2.35798049E+004  3.42174893E+000   5.23100576E-008     733.63  <-- SCF
     15  -2.35798049E+004  3.42177858E+000  -2.48775106E-011     768.29  <-- SCF
     16  -2.35798049E+004  3.42178807E+000  -7.04304238E-010     805.90  <-- SCF
------------------------------------------------------------------------ <-- SCF
 
Final energy, E             =  -23579.80489652     eV
Final free energy (E-TS)    =  -23579.80490584     eV
(energies not corrected for finite basis set)
 
NB est. 0K energy (E-0.5TS)      =  -23579.80490118     eV
 
 
+---------------- MEMORY AND SCRATCH DISK ESTIMATES PER PROCESS --------------+
|                                                     Memory          Disk    |
| Model and support data                              993.5 MB         0.0 MB |
| Electronic energy minimisation requirements         225.4 MB         0.0 MB |
| Geometry minimisation requirements                  279.8 MB         0.0 MB |
|                                               ----------------------------- |
| Approx. total storage required per process         1498.7 MB         0.0 MB |
|                                                                             |
| Requirements will fluctuate during execution and may exceed these estimates |
+-----------------------------------------------------------------------------+
 

 ******************************** Constrained Forces ********************************
 *                                                                                  *
 *                           Cartesian components (eV/A)                            *
 * -------------------------------------------------------------------------------- *
 *                         x                    y                    z              *
 *                                                                                  *
 * P               1      0.00000(cons'd)      0.00000(cons'd)     -0.00079         *
 * P               2      0.00000(cons'd)      0.00000(cons'd)     -0.00080         *
 * P               3      0.00000(cons'd)      0.00000(cons'd)     -0.00179         *
 * P               4      0.00000(cons'd)      0.00000(cons'd)     -0.00178         *
 * P               5     -0.00000(cons'd)      0.00000(cons'd)     -0.00080         *
 * P               6      0.00000(cons'd)      0.00000(cons'd)     -0.00079         *
 * P               7     -0.00000(cons'd)      0.00000(cons'd)     -0.00078         *
 * P               8      0.00000(cons'd)      0.00000(cons'd)     -0.00178         *
 * P               9      0.00000(cons'd)      0.00000(cons'd)     -0.00177         *
 * P              10     -0.00000(cons'd)      0.00000(cons'd)     -0.00078         *
 * P              11      0.00000(cons'd)      0.00000(cons'd)     -0.00179         *
 * P              12      0.00000(cons'd)      0.00000(cons'd)     -0.00179         *
 * In              1      0.00000(cons'd)      0.00000(cons'd)      0.00126         *
 * In              2      0.00000(cons'd)     -0.00000(cons'd)      0.00131         *
 * In              3      0.00000(cons'd)      0.00000(cons'd)      0.00127         *
 * In              4      0.00000(cons'd)      0.00000(cons'd)      0.00130         *
 * In              5      0.00000(cons'd)      0.00000(cons'd)      0.00126         *
 * In              6      0.00000(cons'd)     -0.00000(cons'd)      0.00127         *
 * In              7      0.00000(cons'd)      0.00000(cons'd)      0.00126         *
 * In              8      0.00000(cons'd)      0.00000(cons'd)      0.00131         *
 * In              9      0.00000(cons'd)      0.00000(cons'd)      0.00131         *
 * In             10      0.00000(cons'd)      0.00000(cons'd)      0.00126         *
 * In             11      0.00000(cons'd)      0.00000(cons'd)      0.00132         *
 * In             12      0.00000(cons'd)      0.00000(cons'd)      0.00131         *
 *                                                                                  *
 ************************************************************************************
 EXP precond LBFGS => estimated nearest neighbor distance :  2.555       A
 EXP precond LBFGS => estimated cutoff distance :  5.110       A

 ************************************** Forces **************************************
 *                                                                                  *
 *                           Cartesian components (eV/A)                            *
 * -------------------------------------------------------------------------------- *
 *                         x                    y                    z              *
 *                                                                                  *
 * P               1      0.00000(cons'd)     -0.00421(cons'd)     -0.00079         *
 * P               2      0.00000(cons'd)     -0.00422(cons'd)     -0.00080         *
 * P               3     -0.00000(cons'd)     -0.00098(cons'd)     -0.00179         *
 * P               4     -0.00000(cons'd)     -0.00099(cons'd)     -0.00178         *
 * P               5      0.00000(cons'd)     -0.00421(cons'd)     -0.00080         *
 * P               6      0.00000(cons'd)     -0.00421(cons'd)     -0.00079         *
 * P               7      0.00000(cons'd)     -0.00422(cons'd)     -0.00078         *
 * P               8     -0.00000(cons'd)     -0.00098(cons'd)     -0.00178         *
 * P               9     -0.00000(cons'd)     -0.00099(cons'd)     -0.00177         *
 * P              10      0.00000(cons'd)     -0.00421(cons'd)     -0.00078         *
 * P              11     -0.00000(cons'd)     -0.00099(cons'd)     -0.00179         *
 * P              12     -0.00000(cons'd)     -0.00099(cons'd)     -0.00179         *
 * In              1      0.00000(cons'd)      0.00261(cons'd)      0.00126         *
 * In              2     -0.00000(cons'd)      0.00259(cons'd)      0.00131         *
 * In              3      0.00000(cons'd)      0.00261(cons'd)      0.00127         *
 * In              4     -0.00000(cons'd)      0.00259(cons'd)      0.00130         *
 * In              5      0.00000(cons'd)      0.00260(cons'd)      0.00126         *
 * In              6      0.00000(cons'd)      0.00260(cons'd)      0.00127         *
 * In              7      0.00000(cons'd)      0.00261(cons'd)      0.00126         *
 * In              8     -0.00000(cons'd)      0.00258(cons'd)      0.00131         *
 * In              9     -0.00000(cons'd)      0.00258(cons'd)      0.00131         *
 * In             10      0.00000(cons'd)      0.00261(cons'd)      0.00126         *
 * In             11     -0.00000(cons'd)      0.00259(cons'd)      0.00132         *
 * In             12     -0.00000(cons'd)      0.00259(cons'd)      0.00131         *
 *                                                                                  *
 ************************************************************************************
 doing test perturbation to get energy scale for EXP preconditioner

                           -------------------------------
                                     Cell Contents
                           -------------------------------

            xxxxxxxxxxxxxxxxxxxxxxxxxxxxxxxxxxxxxxxxxxxxxxxxxxxxxxxxxxxxxxxxx
            x  Element         Atom        Fractional coordinates of atoms  x
            x                 Number           u          v          w      x
            x---------------------------------------------------------------x
            x  P                 1         0.505153   0.167369   0.959385   x
            x  P                 2         0.505153   0.836308   0.792586   x
            x  P                 3         0.000000   0.334710   0.792586   x
            x  P                 4         0.000000   0.669203   0.458909   x
            x  P                 5         0.505153   0.501996   0.625759   x
            x  P                 6         0.505153   0.167369   0.458909   x
            x  P                 7         0.505153   0.836308   0.292041   x
            x  P                 8         0.000000   0.334710   0.292041   x
            x  P                 9         0.000000   0.000000   0.125163   x
            x  P                10         0.505153   0.501996   0.125163   x
            x  P                11         0.000000   0.000000   0.625759   x
            x  P                12         0.000000   0.669203   0.959385   x
            x  In                1         0.505153   0.501996   0.000000   x
            x  In                2         0.000000   0.000000   0.000000   x
            x  In                3         0.505153   0.167369   0.834288   x
            x  In                4         0.000000   0.334710   0.166883   x
            x  In                5         0.505153   0.836308   0.166883   x
            x  In                6         0.505153   0.836308   0.667468   x
            x  In                7         0.505153   0.167369   0.333759   x
            x  In                8         0.000000   0.669203   0.333759   x
            x  In                9         0.000000   0.669203   0.834288   x
            x  In               10         0.505153   0.501996   0.500623   x
            x  In               11         0.000000   0.334710   0.667468   x
            x  In               12         0.000000   0.000000   0.500623   x
            xxxxxxxxxxxxxxxxxxxxxxxxxxxxxxxxxxxxxxxxxxxxxxxxxxxxxxxxxxxxxxxxx


------------------------------------------------------------------------ <-- SCF
SCF loop      Energy           Fermi           Energy gain       Timer   <-- SCF
                               energy          per atom          (sec)   <-- SCF
------------------------------------------------------------------------ <-- SCF
Initial  -2.35787574E+004  0.00000000E+000                       860.58  <-- SCF
      1  -2.35796449E+004  3.42205819E+000   3.69791835E-002     909.03  <-- SCF
      2  -2.35797712E+004  3.42201122E+000   5.26421125E-003     967.58  <-- SCF
      3  -2.35797724E+004  3.42214959E+000   4.69247340E-005    1015.17  <-- SCF
      4  -2.35797732E+004  3.42225848E+000   3.62373619E-005    1064.90  <-- SCF
      5  -2.35797733E+004  3.42224758E+000   3.44550338E-006    1124.55  <-- SCF
      6  -2.35797733E+004  3.42226017E+000   6.13811327E-007    1172.46  <-- SCF
      7  -2.35797733E+004  3.42229074E+000  -2.25167509E-007    1216.59  <-- SCF
      8  -2.35797733E+004  3.42232052E+000  -2.15509234E-007    1260.01  <-- SCF
      9  -2.35797733E+004  3.42233556E+000  -6.20963289E-008    1298.10  <-- SCF
     10  -2.35797733E+004  3.42234981E+000  -2.08298236E-008    1336.08  <-- SCF
     11  -2.35797733E+004  3.42235291E+000  -7.64757878E-010    1370.84  <-- SCF
     12  -2.35797733E+004  3.42235492E+000  -5.30548361E-010    1406.83  <-- SCF
------------------------------------------------------------------------ <-- SCF
 
Final energy, E             =  -23579.77329927     eV
Final free energy (E-TS)    =  -23579.77330878     eV
(energies not corrected for finite basis set)
 
NB est. 0K energy (E-0.5TS)      =  -23579.77330403     eV
 

 ************************************** Forces **************************************
 *                                                                                  *
 *                           Cartesian components (eV/A)                            *
 * -------------------------------------------------------------------------------- *
 *                         x                    y                    z              *
 *                                                                                  *
 * P               1     -0.18084(cons'd)      0.05361(cons'd)     -0.07309         *
 * P               2     -0.17401(cons'd)     -0.10509(cons'd)     -0.03496         *
 * P               3      0.17645(cons'd)      0.04627(cons'd)      0.01571         *
 * P               4      0.17690(cons'd)     -0.11595(cons'd)     -0.04492         *
 * P               5     -0.17461(cons'd)      0.00273(cons'd)      0.00862         *
 * P               6     -0.17562(cons'd)      0.05218(cons'd)      0.02157         *
 * P               7     -0.17425(cons'd)     -0.10497(cons'd)     -0.03778         *
 * P               8      0.17640(cons'd)      0.04655(cons'd)      0.01185         *
 * P               9      0.18650(cons'd)      0.13513(cons'd)     -0.02174         *
 * P              10     -0.17503(cons'd)      0.00270(cons'd)      0.01475         *
 * P              11      0.18634(cons'd)      0.13496(cons'd)     -0.02703         *
 * P              12      0.18284(cons'd)     -0.12016(cons'd)     -0.14024         *
 * In              1     -0.15421(cons'd)     -0.05805(cons'd)      0.10527         *
 * In              2      0.15151(cons'd)      0.12214(cons'd)      0.12861         *
 * In              3     -0.14840(cons'd)      0.10365(cons'd)      0.02125         *
 * In              4      0.14658(cons'd)     -0.02063(cons'd)     -0.01170         *
 * In              5     -0.15808(cons'd)     -0.11231(cons'd)      0.04020         *
 * In              6     -0.15811(cons'd)     -0.11241(cons'd)      0.03307         *
 * In              7     -0.14819(cons'd)      0.10362(cons'd)      0.03543         *
 * In              8      0.14683(cons'd)     -0.04761(cons'd)     -0.01497         *
 * In              9      0.14704(cons'd)     -0.04767(cons'd)     -0.02932         *
 * In             10     -0.14866(cons'd)     -0.05662(cons'd)     -0.00226         *
 * In             11      0.14661(cons'd)     -0.02056(cons'd)     -0.01889         *
 * In             12      0.14599(cons'd)      0.11849(cons'd)      0.02057         *
 *                                                                                  *
 ************************************************************************************
 EXP precond LBFGS => estimated parameter mu :  3.597       eV/A**2
 LBFGS: finished iteration     0 with enthalpy= -2.35798049E+004 eV
  
 +-----------+-----------------+-----------------+------------+-----+ <-- LBFGS
 | Parameter |      value      |    tolerance    |    units   | OK? | <-- LBFGS
 +-----------+-----------------+-----------------+------------+-----+ <-- LBFGS
 |  dE/ion   |   0.000000E+000 |   2.000000E-005 |         eV | No  | <-- LBFGS
 |  |F|max   |   2.598766E-001 |   1.000000E-003 |       eV/A | No  | <-- LBFGS
 |  |dR|max  |   3.875750E-015 |   1.000000E-003 |          A | No  | <-- LBFGS
 +-----------+-----------------+-----------------+------------+-----+ <-- LBFGS
  

================================================================================
 Starting LBFGS iteration          1 ...
================================================================================
  
 +------------+-------------+-------------+-----------------+ <-- min LBFGS
 |    Step    |   lambda    |   F.delta'  |    enthalpy     | <-- min LBFGS
 +------------+-------------+-------------+-----------------+ <-- min LBFGS
 |  previous  |    0.000000 |    0.004842 |   -23579.804906 | <-- min LBFGS
 +------------+-------------+-------------+-----------------+ <-- min LBFGS
  

--------------------------------------------------------------------------------
 LBFGS: starting iteration         1 with trial guess (lambda=  1.000000)
--------------------------------------------------------------------------------

                           -------------------------------
                                     Cell Contents
                           -------------------------------

            xxxxxxxxxxxxxxxxxxxxxxxxxxxxxxxxxxxxxxxxxxxxxxxxxxxxxxxxxxxxxxxxx
            x  Element         Atom        Fractional coordinates of atoms  x
            x                 Number           u          v          w      x
            x---------------------------------------------------------------x
            x  P                 1         0.500000   0.166667   0.958332   x
            x  P                 2         0.500000   0.833333   0.791666   x
            x  P                 3         0.000000   0.333333   0.791662   x
            x  P                 4         0.000000   0.666667   0.458329   x
            x  P                 5         0.500000   0.500000   0.624999   x
            x  P                 6         0.500000   0.166667   0.458332   x
            x  P                 7         0.500000   0.833333   0.291666   x
            x  P                 8         0.000000   0.333333   0.291662   x
            x  P                 9         0.000000   0.000000   0.124996   x
            x  P                10         0.500000   0.500000   0.124999   x
            x  P                11         0.000000   0.000000   0.624996   x
            x  P                12         0.000000   0.666667   0.958329   x
            x  In                1         0.500000   0.500000   0.000003   x
            x  In                2         0.000000  -0.000000   0.000002   x
            x  In                3         0.500000   0.166667   0.833336   x
            x  In                4         0.000000   0.333333   0.166669   x
            x  In                5         0.500000   0.833333   0.166670   x
            x  In                6         0.500000   0.833333   0.666670   x
            x  In                7         0.500000   0.166667   0.333336   x
            x  In                8         0.000000   0.666667   0.333336   x
            x  In                9         0.000000   0.666667   0.833336   x
            x  In               10         0.500000   0.500000   0.500003   x
            x  In               11         0.000000   0.333333   0.666669   x
            x  In               12         0.000000   0.000000   0.500002   x
            xxxxxxxxxxxxxxxxxxxxxxxxxxxxxxxxxxxxxxxxxxxxxxxxxxxxxxxxxxxxxxxxx


------------------------------------------------------------------------ <-- SCF
SCF loop      Energy           Fermi           Energy gain       Timer   <-- SCF
                               energy          per atom          (sec)   <-- SCF
------------------------------------------------------------------------ <-- SCF
Initial  -2.35786358E+004  0.00000000E+000                      1437.85  <-- SCF
      1  -2.35796768E+004  3.42186353E+000   4.33719459E-002    1484.79  <-- SCF
      2  -2.35798028E+004  3.42181674E+000   5.25265780E-003    1541.76  <-- SCF
      3  -2.35798040E+004  3.42180456E+000   4.69584184E-005    1590.75  <-- SCF
      4  -2.35798048E+004  3.42182662E+000   3.61376150E-005    1639.53  <-- SCF
      5  -2.35798049E+004  3.42181666E+000   3.37703364E-006    1695.23  <-- SCF
      6  -2.35798049E+004  3.42181000E+000   5.22646078E-007    1746.09  <-- SCF
      7  -2.35798049E+004  3.42180935E+000  -2.18845141E-007    1791.68  <-- SCF
      8  -2.35798049E+004  3.42180710E+000  -2.25558330E-007    1834.27  <-- SCF
      9  -2.35798049E+004  3.42180587E+000  -6.02314179E-008    1872.55  <-- SCF
     10  -2.35798049E+004  3.42180297E+000  -2.13896321E-008    1910.22  <-- SCF
     11  -2.35798049E+004  3.42180295E+000  -8.93141301E-010    1945.11  <-- SCF
     12  -2.35798049E+004  3.42180304E+000  -4.79246552E-010    1979.37  <-- SCF
------------------------------------------------------------------------ <-- SCF
 
Final energy, E             =  -23579.80489781     eV
Final free energy (E-TS)    =  -23579.80490713     eV
(energies not corrected for finite basis set)
 
NB est. 0K energy (E-0.5TS)      =  -23579.80490247     eV
 

 ******************************** Constrained Forces ********************************
 *                                                                                  *
 *                           Cartesian components (eV/A)                            *
 * -------------------------------------------------------------------------------- *
 *                         x                    y                    z              *
 *                                                                                  *
 * P               1     -0.00000(cons'd)      0.00000(cons'd)     -0.00028         *
 * P               2      0.00000(cons'd)      0.00000(cons'd)     -0.00027         *
 * P               3     -0.00000(cons'd)      0.00000(cons'd)     -0.00058         *
 * P               4      0.00000(cons'd)      0.00000(cons'd)     -0.00050         *
 * P               5      0.00000(cons'd)      0.00000(cons'd)     -0.00010         *
 * P               6     -0.00000(cons'd)      0.00000(cons'd)     -0.00018         *
 * P               7     -0.00000(cons'd)      0.00000(cons'd)     -0.00036         *
 * P               8     -0.00000(cons'd)      0.00000(cons'd)     -0.00068         *
 * P               9      0.00000(cons'd)      0.00000(cons'd)     -0.00063         *
 * P              10      0.00000(cons'd)      0.00000(cons'd)     -0.00026         *
 * P              11     -0.00000(cons'd)      0.00000(cons'd)     -0.00047         *
 * P              12     -0.00000(cons'd)      0.00000(cons'd)     -0.00060         *
 * In              1      0.00000(cons'd)      0.00000(cons'd)      0.00060         *
 * In              2      0.00000(cons'd)      0.00000(cons'd)      0.00042         *
 * In              3      0.00000(cons'd)     -0.00000(cons'd)      0.00043         *
 * In              4      0.00000(cons'd)      0.00000(cons'd)      0.00031         *
 * In              5      0.00000(cons'd)      0.00000(cons'd)      0.00045         *
 * In              6      0.00000(cons'd)      0.00000(cons'd)      0.00047         *
 * In              7      0.00000(cons'd)      0.00000(cons'd)      0.00049         *
 * In              8     -0.00000(cons'd)      0.00000(cons'd)      0.00033         *
 * In              9      0.00000(cons'd)      0.00000(cons'd)      0.00026         *
 * In             10      0.00000(cons'd)     -0.00000(cons'd)      0.00051         *
 * In             11      0.00000(cons'd)      0.00000(cons'd)      0.00033         *
 * In             12      0.00000(cons'd)      0.00000(cons'd)      0.00034         *
 *                                                                                  *
 ************************************************************************************
  
 +------------+-------------+-------------+-----------------+ <-- min LBFGS
 |    Step    |   lambda    |   F.delta'  |    enthalpy     | <-- min LBFGS
 +------------+-------------+-------------+-----------------+ <-- min LBFGS
 |  previous  |    0.000000 |    0.004842 |   -23579.804906 | <-- min LBFGS
 | trial step |    1.000000 |    0.001566 |   -23579.804907 | <-- min LBFGS
 +------------+-------------+-------------+-----------------+ <-- min LBFGS
  
 LBFGS: finished iteration     1 with enthalpy= -2.35798049E+004 eV
  
 +-----------+-----------------+-----------------+------------+-----+ <-- LBFGS
 | Parameter |      value      |    tolerance    |    units   | OK? | <-- LBFGS
 +-----------+-----------------+-----------------+------------+-----+ <-- LBFGS
 |  dE/ion   |   5.374354E-008 |   2.000000E-005 |         eV | Yes | <-- LBFGS
 |  |F|max   |   6.774872E-004 |   1.000000E-003 |       eV/A | Yes | <-- LBFGS
 |  |dR|max  |   9.019710E-005 |   1.000000E-003 |          A | Yes | <-- LBFGS
 +-----------+-----------------+-----------------+------------+-----+ <-- LBFGS
  
 Hirshfeld supercell size:           4           2           1
Standard grid dimensions: 180 144 216
Fine grid dimensions:     180 144 216

 LBFGS: Geometry optimization completed successfully.

================================================================================
 LBFGS: Final Configuration:
================================================================================

                           -------------------------------
                                     Cell Contents
                           -------------------------------

            xxxxxxxxxxxxxxxxxxxxxxxxxxxxxxxxxxxxxxxxxxxxxxxxxxxxxxxxxxxxxxxxx
            x  Element         Atom        Fractional coordinates of atoms  x
            x                 Number           u          v          w      x
            x---------------------------------------------------------------x
            x  P                 1         0.500000   0.166667   0.958332   x
            x  P                 2         0.500000   0.833333   0.791666   x
            x  P                 3         0.000000   0.333333   0.791662   x
            x  P                 4         0.000000   0.666667   0.458329   x
            x  P                 5         0.500000   0.500000   0.624999   x
            x  P                 6         0.500000   0.166667   0.458332   x
            x  P                 7         0.500000   0.833333   0.291666   x
            x  P                 8         0.000000   0.333333   0.291662   x
            x  P                 9         0.000000   0.000000   0.124996   x
            x  P                10         0.500000   0.500000   0.124999   x
            x  P                11         0.000000   0.000000   0.624996   x
            x  P                12         0.000000   0.666667   0.958329   x
            x  In                1         0.500000   0.500000   0.000003   x
            x  In                2         0.000000  -0.000000   0.000002   x
            x  In                3         0.500000   0.166667   0.833336   x
            x  In                4         0.000000   0.333333   0.166669   x
            x  In                5         0.500000   0.833333   0.166670   x
            x  In                6         0.500000   0.833333   0.666670   x
            x  In                7         0.500000   0.166667   0.333336   x
            x  In                8         0.000000   0.666667   0.333336   x
            x  In                9         0.000000   0.666667   0.833336   x
            x  In               10         0.500000   0.500000   0.500003   x
            x  In               11         0.000000   0.333333   0.666669   x
            x  In               12         0.000000   0.000000   0.500002   x
            xxxxxxxxxxxxxxxxxxxxxxxxxxxxxxxxxxxxxxxxxxxxxxxxxxxxxxxxxxxxxxxxx


 LBFGS: Final Enthalpy     = -2.35798049E+004 eV
 LBFGS: Final <frequency>  unchanged from initial value

 ******************* Unconstrained Forces *******************
 *                                                          *
 *               Cartesian components (eV/A)                *
 * -------------------------------------------------------- *
 *                         x            y            z      *
 *                                                          *
 * P               1      0.00002     -0.00414     -0.00028 *
 * P               2      0.00001     -0.00414     -0.00027 *
 * P               3      0.00001     -0.00103     -0.00058 *
 * P               4      0.00001     -0.00105     -0.00050 *
 * P               5      0.00000     -0.00416     -0.00010 *
 * P               6      0.00001     -0.00414     -0.00018 *
 * P               7      0.00000     -0.00415     -0.00036 *
 * P               8      0.00001     -0.00103     -0.00068 *
 * P               9      0.00001     -0.00102     -0.00063 *
 * P              10      0.00001     -0.00415     -0.00026 *
 * P              11      0.00001     -0.00102     -0.00047 *
 * P              12      0.00001     -0.00103     -0.00060 *
 * In              1     -0.00001      0.00270      0.00060 *
 * In              2     -0.00000      0.00248      0.00042 *
 * In              3     -0.00001      0.00275      0.00043 *
 * In              4     -0.00001      0.00247      0.00031 *
 * In              5     -0.00002      0.00271      0.00045 *
 * In              6     -0.00002      0.00272      0.00047 *
 * In              7     -0.00001      0.00275      0.00049 *
 * In              8     -0.00001      0.00241      0.00033 *
 * In              9     -0.00001      0.00241      0.00026 *
 * In             10     -0.00001      0.00271      0.00051 *
 * In             11     -0.00000      0.00247      0.00033 *
 * In             12     -0.00000      0.00247      0.00034 *
 *                                                          *
 ************************************************************

 ******************************** Constrained Forces ********************************
 *                                                                                  *
 *                           Cartesian components (eV/A)                            *
 * -------------------------------------------------------------------------------- *
 *                         x                    y                    z              *
 *                                                                                  *
 * P               1      0.00000(cons'd)      0.00000(cons'd)     -0.00028         *
 * P               2     -0.00000(cons'd)      0.00000(cons'd)     -0.00027         *
 * P               3     -0.00000(cons'd)      0.00000(cons'd)     -0.00058         *
 * P               4      0.00000(cons'd)      0.00000(cons'd)     -0.00050         *
 * P               5     -0.00000(cons'd)      0.00000(cons'd)     -0.00010         *
 * P               6     -0.00000(cons'd)      0.00000(cons'd)     -0.00018         *
 * P               7     -0.00000(cons'd)      0.00000(cons'd)     -0.00036         *
 * P               8     -0.00000(cons'd)      0.00000(cons'd)     -0.00068         *
 * P               9     -0.00000(cons'd)      0.00000(cons'd)     -0.00063         *
 * P              10      0.00000(cons'd)      0.00000(cons'd)     -0.00026         *
 * P              11      0.00000(cons'd)      0.00000(cons'd)     -0.00047         *
 * P              12     -0.00000(cons'd)      0.00000(cons'd)     -0.00060         *
 * In              1      0.00000(cons'd)      0.00000(cons'd)      0.00060         *
 * In              2      0.00000(cons'd)      0.00000(cons'd)      0.00042         *
 * In              3      0.00000(cons'd)      0.00000(cons'd)      0.00043         *
 * In              4      0.00000(cons'd)      0.00000(cons'd)      0.00031         *
 * In              5      0.00000(cons'd)      0.00000(cons'd)      0.00045         *
 * In              6      0.00000(cons'd)      0.00000(cons'd)      0.00047         *
 * In              7      0.00000(cons'd)      0.00000(cons'd)      0.00049         *
 * In              8      0.00000(cons'd)      0.00000(cons'd)      0.00033         *
 * In              9      0.00000(cons'd)      0.00000(cons'd)      0.00026         *
 * In             10      0.00000(cons'd)      0.00000(cons'd)      0.00051         *
 * In             11      0.00000(cons'd)      0.00000(cons'd)      0.00033         *
 * In             12      0.00000(cons'd)      0.00000(cons'd)      0.00034         *
 *                                                                                  *
 ************************************************************************************

 Pseudo atomic calculation performed for P 3s2 3p3

 Converged in 23 iterations to a total energy of -208.0292 eV

 Pseudo atomic calculation performed for In 4d10 5s2 5p1

 Converged in 42 iterations to a total energy of -1747.4501 eV
Charge spilling parameter for spin component 1 = 0.15%

            Orbital Populations       
     Ion    Atom   Orbital             Charge
  -------------------------------------------
      P     1      S                    1.735
      P     1      Px                   1.313
      P     1      Py                   1.313
      P     1      Pz                   1.313
      P     2      S                    1.735
      P     2      Px                   1.313
      P     2      Py                   1.313
      P     2      Pz                   1.313
      P     3      S                    1.735
      P     3      Px                   1.313
      P     3      Py                   1.313
      P     3      Pz                   1.313
      P     4      S                    1.735
      P     4      Px                   1.313
      P     4      Py                   1.313
      P     4      Pz                   1.313
      P     5      S                    1.735
      P     5      Px                   1.313
      P     5      Py                   1.313
      P     5      Pz                   1.313
      P     6      S                    1.735
      P     6      Px                   1.313
      P     6      Py                   1.313
      P     6      Pz                   1.313
      P     7      S                    1.735
      P     7      Px                   1.313
      P     7      Py                   1.313
      P     7      Pz                   1.313
      P     8      S                    1.735
      P     8      Px                   1.313
      P     8      Py                   1.313
      P     8      Pz                   1.313
      P     9      S                    1.735
      P     9      Px                   1.313
      P     9      Py                   1.313
      P     9      Pz                   1.313
      P    10      S                    1.735
      P    10      Px                   1.313
      P    10      Py                   1.313
      P    10      Pz                   1.313
      P    11      S                    1.735
      P    11      Px                   1.313
      P    11      Py                   1.313
      P    11      Pz                   1.313
      P    12      S                    1.735
      P    12      Px                   1.313
      P    12      Py                   1.313
      P    12      Pz                   1.313
     In     1      Dzz                  1.997
     In     1      Dzy                  1.998
     In     1      Dzx                  1.998
     In     1      Dxx-yy               1.998
     In     1      Dxy                  1.998
     In     1      S                    1.424
     In     1      Px                   0.481
     In     1      Py                   0.482
     In     1      Pz                   0.482
     In     1      S                   -0.532
     In     2      Dzz                  1.997
     In     2      Dzy                  1.998
     In     2      Dzx                  1.998
     In     2      Dxx-yy               1.998
     In     2      Dxy                  1.998
     In     2      S                    1.424
     In     2      Px                   0.481
     In     2      Py                   0.482
     In     2      Pz                   0.482
     In     2      S                   -0.532
     In     3      Dzz                  1.997
     In     3      Dzy                  1.998
     In     3      Dzx                  1.998
     In     3      Dxx-yy               1.998
     In     3      Dxy                  1.998
     In     3      S                    1.424
     In     3      Px                   0.481
     In     3      Py                   0.482
     In     3      Pz                   0.482
     In     3      S                   -0.532
     In     4      Dzz                  1.997
     In     4      Dzy                  1.998
     In     4      Dzx                  1.998
     In     4      Dxx-yy               1.998
     In     4      Dxy                  1.998
     In     4      S                    1.424
     In     4      Px                   0.481
     In     4      Py                   0.482
     In     4      Pz                   0.482
     In     4      S                   -0.532
     In     5      Dzz                  1.997
     In     5      Dzy                  1.998
     In     5      Dzx                  1.998
     In     5      Dxx-yy               1.998
     In     5      Dxy                  1.998
     In     5      S                    1.424
     In     5      Px                   0.481
     In     5      Py                   0.482
     In     5      Pz                   0.482
     In     5      S                   -0.532
     In     6      Dzz                  1.997
     In     6      Dzy                  1.998
     In     6      Dzx                  1.998
     In     6      Dxx-yy               1.998
     In     6      Dxy                  1.998
     In     6      S                    1.424
     In     6      Px                   0.481
     In     6      Py                   0.482
     In     6      Pz                   0.482
     In     6      S                   -0.532
     In     7      Dzz                  1.997
     In     7      Dzy                  1.998
     In     7      Dzx                  1.998
     In     7      Dxx-yy               1.998
     In     7      Dxy                  1.998
     In     7      S                    1.424
     In     7      Px                   0.481
     In     7      Py                   0.482
     In     7      Pz                   0.482
     In     7      S                   -0.532
     In     8      Dzz                  1.997
     In     8      Dzy                  1.998
     In     8      Dzx                  1.998
     In     8      Dxx-yy               1.998
     In     8      Dxy                  1.998
     In     8      S                    1.424
     In     8      Px                   0.481
     In     8      Py                   0.482
     In     8      Pz                   0.482
     In     8      S                   -0.532
     In     9      Dzz                  1.997
     In     9      Dzy                  1.998
     In     9      Dzx                  1.998
     In     9      Dxx-yy               1.998
     In     9      Dxy                  1.998
     In     9      S                    1.424
     In     9      Px                   0.481
     In     9      Py                   0.482
     In     9      Pz                   0.482
     In     9      S                   -0.532
     In    10      Dzz                  1.997
     In    10      Dzy                  1.998
     In    10      Dzx                  1.998
     In    10      Dxx-yy               1.998
     In    10      Dxy                  1.998
     In    10      S                    1.424
     In    10      Px                   0.481
     In    10      Py                   0.482
     In    10      Pz                   0.482
     In    10      S                   -0.532
     In    11      Dzz                  1.997
     In    11      Dzy                  1.998
     In    11      Dzx                  1.998
     In    11      Dxx-yy               1.998
     In    11      Dxy                  1.998
     In    11      S                    1.424
     In    11      Px                   0.481
     In    11      Py                   0.482
     In    11      Pz                   0.482
     In    11      S                   -0.532
     In    12      Dzz                  1.997
     In    12      Dzy                  1.998
     In    12      Dzx                  1.998
     In    12      Dxx-yy               1.998
     In    12      Dxy                  1.998
     In    12      S                    1.424
     In    12      Px                   0.481
     In    12      Py                   0.482
     In    12      Pz                   0.482
     In    12      S                   -0.532
  -------------------------------------------
                           Total:     216.000
  -------------------------------------------

     Atomic Populations (Mulliken)
     -----------------------------
Species          Ion     s       p       d       f      Total   Charge (e)
==========================================================================
  P               1     1.735   3.940   0.000   0.000   5.675    -0.675
  P               2     1.735   3.940   0.000   0.000   5.675    -0.675
  P               3     1.735   3.940   0.000   0.000   5.675    -0.675
  P               4     1.735   3.940   0.000   0.000   5.675    -0.675
  P               5     1.735   3.940   0.000   0.000   5.675    -0.675
  P               6     1.735   3.940   0.000   0.000   5.675    -0.675
  P               7     1.735   3.940   0.000   0.000   5.675    -0.675
  P               8     1.735   3.940   0.000   0.000   5.675    -0.675
  P               9     1.735   3.940   0.000   0.000   5.675    -0.675
  P              10     1.735   3.940   0.000   0.000   5.675    -0.675
  P              11     1.735   3.940   0.000   0.000   5.675    -0.675
  P              12     1.735   3.940   0.000   0.000   5.675    -0.675
  In              1     0.892   1.444   9.989   0.000  12.325     0.675
  In              2     0.891   1.444   9.989   0.000  12.325     0.675
  In              3     0.892   1.444   9.989   0.000  12.325     0.675
  In              4     0.892   1.444   9.989   0.000  12.325     0.675
  In              5     0.892   1.444   9.989   0.000  12.325     0.675
  In              6     0.892   1.444   9.989   0.000  12.325     0.675
  In              7     0.892   1.444   9.989   0.000  12.325     0.675
  In              8     0.891   1.444   9.989   0.000  12.325     0.675
  In              9     0.892   1.444   9.989   0.000  12.325     0.675
  In             10     0.892   1.444   9.989   0.000  12.325     0.675
  In             11     0.891   1.444   9.989   0.000  12.325     0.675
  In             12     0.891   1.444   9.989   0.000  12.325     0.675
==========================================================================

                 Bond                   Population      Length (A)
======================================================================
              P 11 -- In 12                  0.57        2.55500
              P 4  -- In 8                   0.57        2.55500
              P 3  -- In 11                  0.57        2.55500
              P 8  -- In 4                   0.57        2.55500
              P 12 -- In 9                   0.57        2.55500
              P 9  -- In 2                   0.57        2.55500
              P 5  -- In 10                  0.57        2.55506
              P 6  -- In 7                   0.57        2.55506
              P 2  -- In 6                   0.57        2.55506
              P 7  -- In 5                   0.57        2.55506
              P 1  -- In 3                   0.57        2.55506
              P 10 -- In 1                   0.57        2.55506
              P 1  -- In 2                   1.37        2.55516
              P 10 -- In 4                   1.37        2.55516
              P 7  -- In 8                   1.37        2.55516
              P 2  -- In 9                   1.37        2.55516
              P 5  -- In 11                  1.37        2.55516
              P 6  -- In 12                  1.37        2.55516
              P 1  -- In 1                   0.54        2.55517
              P 7  -- In 7                   0.54        2.55517
              P 2  -- In 3                   0.54        2.55517
              P 6  -- In 10                  0.54        2.55517
              P 10 -- In 5                   0.54        2.55517
              P 5  -- In 6                   0.54        2.55517
              P 12 -- In 2                   0.54        2.55519
              P 9  -- In 4                   0.54        2.55519
              P 11 -- In 11                  0.54        2.55519
              P 4  -- In 12                  0.54        2.55519
              P 8  -- In 8                   0.54        2.55519
              P 3  -- In 9                   0.54        2.55519
              P 9  -- In 5                   1.37        2.55519
              P 8  -- In 7                   1.37        2.55519
              P 3  -- In 3                   1.37        2.55519
              P 11 -- In 6                   1.37        2.55519
              P 12 -- In 1                   1.37        2.55519
              P 4  -- In 10                  1.37        2.55519
======================================================================

 Hirshfeld supercell size:           4           2           1
Standard grid dimensions: 180 144 216
Fine grid dimensions:     180 144 216


     Hirshfeld Analysis
     ------------------
Species   Ion     Hirshfeld Charge (e)
======================================
  P        1                -0.24
  P        2                -0.24
  P        3                -0.24
  P        4                -0.24
  P        5                -0.24
  P        6                -0.24
  P        7                -0.24
  P        8                -0.24
  P        9                -0.24
  P       10                -0.24
  P       11                -0.24
  P       12                -0.24
  In       1                 0.24
  In       2                 0.24
  In       3                 0.24
  In       4                 0.24
  In       5                 0.24
  In       6                 0.24
  In       7                 0.24
  In       8                 0.24
  In       9                 0.24
  In      10                 0.24
  In      11                 0.24
  In      12                 0.24
======================================

 
 A BibTeX formatted list of references used in this run has been written to 
 StackingFaultStructs_111_11-2_0.bib
 
Initialisation time =     21.69 s
Calculation time    =   2034.12 s
Finalisation time   =     18.86 s
Total time          =   2074.67 s
Peak Memory Use     = 5104484 kB
 
Overall parallel efficiency rating: Poor (38%)
 
Data was distributed by:-
G-vector (3-way); efficiency rating: Poor (44%)
k-point (26-way); efficiency rating: Good (75%)
