65
Lattice="11.80255 0.0 0.0 0.0 11.80255 0.0 0.0 0.0 11.80255" Properties=species:S:1:pos:R:3:mulliken_charges:R:1 fermi_energy=4.781312370495001 core_to_fermi_energy=16.851734769525017 config_type=Interstitial energy=-272.7676858545396 pbc="T T T"
P        1.47531875       1.47531875       4.45028257      -0.63200000
P        4.45028257       1.47531875       1.47531875      -0.63200000
P        1.47531875       4.45028257       1.47531875      -0.63200000
P        4.42508099       4.42508099       4.42508099      -0.67300000
P        1.47531875       1.47531875      10.30290493      -0.63200000
P        4.41591380       1.47531875       7.37659375      -0.67100000
P        1.47531875       4.41591380       7.37659375      -0.67100000
P        4.54197853       4.54197853      10.21120897      -0.67000000
P        1.47531875       7.37659375       4.41591380      -0.67100000
P        4.41591380       7.37659375       1.47531875      -0.67100000
P        1.47531875      10.30290493       1.47531875      -0.63200000
P        4.54197853      10.21120897       4.54197853      -0.67000000
P        1.47531875       7.37659375      10.33727370      -0.67100000
P        4.43576417       7.37659375       7.37659375      -0.67400000
P        1.47531875      10.33727370       7.37659375      -0.67100000
P        4.42508099      10.32810651      10.32810651      -0.67300000
P        7.37659375       1.47531875       4.41591380      -0.67100000
P       10.30290493       1.47531875       1.47531875      -0.63200000
P        7.37659375       4.41591380       1.47531875      -0.67100000
P       10.21120897       4.54197853       4.54197853      -0.67000000
P        7.37659375       1.47531875      10.33727370      -0.67100000
P       10.33727370       1.47531875       7.37659375      -0.67100000
P        7.37659375       4.43576417       7.37659375      -0.67400000
P       10.32810651       4.42508099      10.32810651      -0.67300000
P        7.37659375       7.37659375       4.43576417      -0.67400000
P       10.33727370       7.37659375       1.47531875      -0.67100000
P        7.37659375      10.33727370       1.47531875      -0.67100000
P       10.32810651      10.32810651       4.42508099      -0.67300000
P        7.37659375       7.37659375      10.31742333      -0.67400000
P       10.31742333       7.37659375       7.37659375      -0.67400000
P        7.37659375      10.31742333       7.37659375      -0.67400000
P       10.21120897      10.21120897      10.21120897      -0.67000000
In      -0.17179850      -0.17179850      -0.17179850       0.61300000
In       3.12243600      -0.17179850       3.12243600       0.61300000
In      -0.17179850       3.12243600       3.12243600       0.61300000
In       3.12243600       3.12243600      -0.17179850       0.61300000
In      -0.00143027      -0.00143027       5.88857444       0.66000000
In       2.95206777      -0.00143027       8.86461306       0.66000000
In      -0.00143027       2.95206777       8.86461306       0.66100000
In       2.95206777       2.95206777       5.88857444       0.66000000
In      -0.00143027       5.88857444      -0.00143027       0.66000000
In       2.95206777       5.88857444       2.95206777       0.66000000
In      -0.00143027       8.86461306       2.95206777       0.66100000
In       2.95206777       8.86461306      -0.00143027       0.66100000
In       0.02564521       5.93024078       5.93024078       0.65700000
In       2.92499229       5.93024078       8.82294672       0.65700000
In       0.02564521       8.82294672       8.82294672       0.65700000
In       2.92499229       8.82294672       5.93024078       0.65700000
In       5.88857444      -0.00143027      -0.00143027       0.66000000
In       8.86461306      -0.00143027       2.95206777       0.66000000
In       5.88857444       2.95206777       2.95206777       0.66000000
In       8.86461306       2.95206777      -0.00143027       0.66100000
In       5.93024078       0.02564521       5.93024078       0.65700000
In       8.82294672       0.02564521       8.82294672       0.65700000
In       5.93024078       2.92499229       8.82294672       0.65700000
In       8.82294672       2.92499229       5.93024078       0.65700000
In       5.93024078       5.93024078       0.02564521       0.65700000
In       8.82294672       5.93024078       2.92499229       0.65700000
In       5.93024078       8.82294672       2.92499229       0.65700000
In       8.82294672       8.82294672       0.02564521       0.65700000
In       5.89756157       5.89756157       5.89756157       0.66500000
In       8.85562593       5.89756157       8.85562593       0.66500000
In       5.89756157       8.85562593       8.85562593       0.66500000
In       8.85562593       8.85562593       5.89756157       0.66500000
In       1.47531875       1.47531875       1.47531875       0.34500000
65
Lattice="11.80255 0.0 0.0 0.0 11.80255 0.0 0.0 0.0 11.80255" Properties=species:S:1:pos:R:3:mulliken_charges:R:1 fermi_energy=4.781312370495001 core_to_fermi_energy=16.851734769525017 config_type=Interstitial energy=-272.76444788100395 pbc="T T T"
P        1.49517044       1.45546706       4.45494088      -0.63200000
P        4.45409039       1.47284272       1.47677074      -0.63200000
P        1.49517044       4.45101287       1.45939508      -0.63200000
P        4.42434871       4.42326885       4.42719687      -0.67300000
P        1.47779478       1.47284272      10.30302512      -0.63200000
P        4.42380075       1.46773678       7.37939082      -0.67100000
P        1.47826676       4.40925012       7.37671611      -0.67100000
P        4.56478831       4.54937022      10.19232721      -0.67000000
P        1.47826676       7.37278809       4.41317814      -0.67100000
P        4.42380075       7.37546281       1.47166480      -0.67100000
P        1.47779478      10.29909711       1.47677074      -0.63200000
P        4.56478831      10.18839919       4.55329823      -0.67000000
P        1.48290072       7.37546281      10.33331476      -0.67100000
P        4.44785259       7.36794293       7.37187094      -0.67400000
P        1.48290072      10.32938675       7.37939082      -0.67100000
P        4.43049694      10.32269056      10.32661857      -0.67300000
P        7.38039941       1.47237074       4.41317814      -0.67100000
P       10.30217463       1.45546706       1.45939508      -0.63200000
P        7.38039941       4.40925012       1.47629876      -0.67100000
P       10.26691199       4.48627551       4.49020353      -0.67000000
P        7.37772469       1.46773678      10.33331476      -0.67100000
P       10.34393738       1.47237074       7.37671611      -0.67100000
P        7.39884211       4.42387910       7.35827340      -0.67400000
P       10.32991865       4.42326885      10.33276680      -0.67300000
P        7.39884211       7.35434539       4.42780711      -0.67400000
P       10.34393738       7.37278809       1.47629876      -0.67100000
P        7.37772469      10.32938675       1.47166480      -0.67100000
P       10.32991865      10.32883879       4.42719687      -0.67300000
P        7.38524457       7.36794293      10.30926292      -0.67400000
P       10.32930840       7.35434539       7.35827340      -0.67400000
P        7.38524457      10.30533491       7.37187094      -0.67400000
P       10.20381728      10.18839919      10.19232721      -0.67000000
In      -0.20197042      -0.18693752      -0.18300951       0.61300000
In       3.13757502      -0.18693752       3.15653593       0.61300000
In      -0.10721076       3.05784826       3.06177627       0.61300000
In       3.13757502       3.15260792      -0.18300951       0.61300000
In       0.00640779      -0.00784472       5.89496381       0.66000000
In       2.95603728      -0.00539978       8.86936320       0.66000000
In      -0.00143248       2.95206998       8.86902229       0.66100000
In       2.95848222       2.94422971       5.89496381       0.66000000
In       0.00640779       5.89103579      -0.00391671       0.66000000
In       2.95848222       5.89103579       2.94815772       0.66000000
In      -0.00143248       8.86509427       2.95599799       0.66100000
In       2.95603728       8.86543519      -0.00147176       0.66100000
In       0.03050117       5.90323794       5.90716596       0.65700000
In       2.92971793       5.92919937       8.81622070       0.65700000
In       0.02866557       8.80621262       8.81014064       0.65700000
In       2.92971793       8.81229268       5.93312738       0.65700000
In       5.88775231      -0.00539978      -0.00147176       0.66000000
In       8.86215171      -0.00784472       2.94815772       0.66000000
In       5.88809323       2.95206998       2.95599799       0.66000000
In       8.86215171       2.94422971      -0.00391671       0.66100000
In       5.94089482       0.02091957       5.93312738       0.65700000
In       8.82398813       0.02091957       8.81622070       0.65700000
In       5.94697488       2.92197193       8.81014064       0.65700000
In       8.84994956       2.92013633       5.90716596       0.65700000
In       5.94089482       5.92919937       0.02484759       0.65700000
In       8.84994956       5.90323794       2.92406434       0.65700000
In       5.94697488       8.80621262       2.92589995       0.65700000
In       8.82398813       8.81229268       0.02484759       0.65700000
In       5.91043503       5.88853512       5.89246313       0.66500000
In       8.86465238       5.88853512       8.84668048       0.66500000
In       5.90333195       8.84985555       8.85378356       0.66500000
In       8.86465238       8.84275247       5.89246313       0.66500000
In       1.55388631       1.39675119       1.40067921       0.34500000
65
Lattice="11.80255 0.0 0.0 0.0 11.80255 0.0 0.0 0.0 11.80255" Properties=species:S:1:pos:R:3:mulliken_charges:R:1 fermi_energy=4.781312370495001 core_to_fermi_energy=16.851734769525017 config_type=Interstitial energy=-272.75260126173464 pbc="T T T"
P        1.51334760       1.43728990       4.46675585      -0.63200000
P        4.46212924       1.47101134       1.47819127      -0.63200000
P        1.51334760       4.45957592       1.44446984      -0.63200000
P        4.42192222       4.42418014       4.43136008      -0.67300000
P        1.47962616       1.47101134      10.29823820      -0.63200000
P        4.43124878       1.46277931       7.38316333      -0.67100000
P        1.47807351       4.40634770       7.37795064      -0.67100000
P        4.58454485       4.55833391      10.17582259      -0.67000000
P        1.47807351       7.37077070       4.41352764      -0.67100000
P        4.43124878       7.37598340       1.46995925      -0.67100000
P        1.47962616      10.29105826       1.47819127      -0.63200000
P        4.58454485      10.16864265       4.56551385      -0.67000000
P        1.48785819       7.37598340      10.32911866      -0.67100000
P        4.45803943       7.36109071       7.36827065      -0.67400000
P        1.48785819      10.32193872       7.38316333      -0.67100000
P        4.43498978      10.31819772      10.32537766      -0.67300000
P        7.38241680       1.47256399       4.41352764      -0.67100000
P       10.29361158       1.43728990       1.44446984      -0.63200000
P        7.38241680       4.40634770       1.47974392      -0.67100000
P       10.32607184       4.42711566       4.43429559      -0.67000000
P        7.37720410       1.46277931      10.32911866      -0.67100000
P       10.34683980       1.47256399       7.37795064      -0.67100000
P        7.41967769       4.41374887       7.34068974      -0.67400000
P       10.32900736       4.42418014      10.33844521      -0.67300000
P        7.41967769       7.33350981       4.42092880      -0.67400000
P       10.34683980       7.37077070       1.47974392      -0.67100000
P        7.37720410      10.32193872       1.46995925      -0.67100000
P       10.32900736      10.33126528       4.43136008      -0.67300000
P        7.39209679       7.36109071      10.30232801      -0.67400000
P       10.33943863       7.33350981       7.34068974      -0.67400000
P        7.39209679      10.29514807       7.36827065      -0.67400000
P       10.19485359      10.16864265      10.17582259      -0.67000000
In      -0.23813166      -0.19677772      -0.18959779       0.61300000
In       3.14741522      -0.19677772       3.19594909       0.61300000
In      -0.03525442       2.98589192       2.99307185       0.61300000
In       3.14741522       3.18876916      -0.18959779       0.61300000
In       0.01009342      -0.01297113       5.90514203       0.66000000
In       2.96007636      -0.00943886       8.87216952       0.66000000
In      -0.00501341       2.95565091       8.87312586       0.66100000
In       2.96360863       2.94054408       5.90514203       0.66000000
In       0.01009342       5.89796209      -0.00579120       0.66000000
In       2.96360863       5.89796209       2.94772402       0.66000000
In      -0.00501341       8.86594592       2.96283084       0.66100000
In       2.96007636       8.86498959      -0.00225892       0.66100000
In       0.03109628       5.87582861       5.88300855       0.65700000
In       2.93279708       5.92987835       8.81063398       0.65700000
In       0.02856323       8.79176264       8.79894258       0.65700000
In       2.93279708       8.80345405       5.93705829       0.65700000
In       5.88819791      -0.00943886      -0.00225892       0.66000000
In       8.85522541      -0.01297113       2.94772402       0.66000000
In       5.88724158       2.95565091       2.96283084       0.66000000
In       8.85522541       2.94054408      -0.00579120       0.66100000
In       5.94973345       0.01784042       5.93705829       0.65700000
In       8.82330915       0.01784042       8.81063398       0.65700000
In       5.96142486       2.92207427       8.79894258       0.65700000
In       8.87735889       2.91954122       5.88300855       0.65700000
In       5.94973345       5.92987835       0.02502035       0.65700000
In       8.87735889       5.87582861       2.92672115       0.65700000
In       5.96142486       8.79176264       2.92925421       0.65700000
In       8.82330915       8.80345405       0.02502035       0.65700000
In       5.92207245       5.88184832       5.88902826       0.66500000
In       8.87133918       5.88184832       8.83829499       0.66500000
In       5.90791982       8.84526768       8.85244762       0.66500000
In       8.87133918       8.83111505       5.88902826       0.66500000
In       1.64447289       1.30616461       1.31334455       0.34500000
65
Lattice="11.80255 0.0 0.0 0.0 11.80255 0.0 0.0 0.0 11.80255" Properties=species:S:1:pos:R:3:mulliken_charges:R:1 fermi_energy=4.781312370495001 core_to_fermi_energy=16.851734769525017 config_type=Interstitial energy=-272.7204902497171 pbc="T T T"
P        1.52576228       1.42487522       4.48518777      -0.63200000
P        4.48168002       1.47150737       1.48068118      -0.63200000
P        1.52576228       4.47601397       1.43404903      -0.63200000
P        4.41850755       4.42963320       4.43880701      -0.67300000
P        1.47913013       1.47150737      10.28068129      -0.63200000
P        4.43733412       1.46321355       7.38674285      -0.67100000
P        1.47342732       4.41054851       7.37870399      -0.67100000
P        4.59668939       4.56867538      10.16567191      -0.67000000
P        1.47342732       7.36953018       4.41972232      -0.67100000
P        4.43733412       7.37756904       1.47238736      -0.67100000
P        1.47913013      10.27150748       1.48068118      -0.63200000
P        4.59668939      10.15649811       4.57784919      -0.67000000
P        1.48742395       7.37756904      10.32502718      -0.67100000
P        4.46379939       7.35881395       7.36798775      -0.67400000
P        1.48742395      10.31585338       7.38674285      -0.67100000
P        4.43667336      10.31651414      10.32568795      -0.67300000
P        7.38365732       1.47721018       4.41972232      -0.67100000
P       10.27717353       1.42487522       1.43404903      -0.63200000
P        7.38365732       4.41054851       1.48638399      -0.67100000
P       10.38797863       4.36520887       4.37438267      -0.67000000
P        7.37561846       1.46321355      10.32502718      -0.67100000
P       10.34263899       1.47721018       7.37870399      -0.67100000
P        7.43546668       4.40812128       7.32689463      -0.67400000
P       10.32355430       4.42963320      10.34385376      -0.67300000
P        7.43546668       7.31772082       4.41729509      -0.67400000
P       10.34263899       7.36953018       1.48638399      -0.67100000
P        7.37561846      10.31585338       1.47238736      -0.67100000
P       10.32355430      10.33467995       4.43880701      -0.67300000
P        7.39437355       7.35881395      10.29856192      -0.67400000
P       10.34506622       7.31772082       7.32689463      -0.67400000
P        7.39437355      10.28938811       7.36798775      -0.67400000
P       10.18451212      10.15649811      10.16567191      -0.67000000
In      -0.28150214      -0.19622356      -0.18704976       0.61300000
In       3.14686106      -0.19622356       3.24131345       0.61300000
In       0.04692674       2.90371076       2.91288457       0.61300000
In       3.14686106       3.23213964      -0.18704976       0.61300000
In       0.00686758      -0.01543089       5.91821859       0.66000000
In       2.96389739      -0.01325989       8.86971912       0.66000000
In      -0.01580873       2.96644623       8.87209557       0.66100000
In       2.96606839       2.94376992       5.91821859       0.66000000
In       0.00686758       5.90904478      -0.00625708       0.66000000
In       2.96606839       5.90904478       2.95294373       0.66000000
In      -0.01580873       8.86292176       2.97562004       0.66100000
In       2.96389739       8.86054531      -0.00408609       0.66100000
In       0.02255652       5.85040216       5.85957597       0.65700000
In       2.93288567       5.93293648       8.80725928       0.65700000
In       0.02355570       8.78289431       8.79206812       0.65700000
In       2.93288567       8.79808547       5.94211029       0.65700000
In       5.89264219      -0.01325989      -0.00408609       0.66000000
In       8.84414272      -0.01543089       2.95294373       0.66000000
In       5.89026574       2.96644623       2.97562004       0.66000000
In       8.84414272       2.94376992      -0.00625708       0.66100000
In       5.95510203       0.01775183       5.94211029       0.65700000
In       8.82025102       0.01775183       8.80725928       0.65700000
In       5.97029319       2.92708180       8.79206812       0.65700000
In       8.90278534       2.92808098       5.85957597       0.65700000
In       5.95510203       5.93293648       0.02692564       0.65700000
In       8.90278534       5.85040216       2.93725479       0.65700000
In       5.97029319       8.78289431       2.93625561       0.65700000
In       8.82025102       8.79808547       0.02692564       0.65700000
In       5.93007002       5.88082134       5.88999515       0.66500000
In       8.87236616       5.88082134       8.83229129       0.66500000
In       5.90881386       8.84437364       8.85354744       0.66500000
In       8.87236616       8.82311748       5.88999515       0.66500000
In       1.75745051       1.19318699       1.20236080       0.34500000
65
Lattice="11.80255 0.0 0.0 0.0 11.80255 0.0 0.0 0.0 11.80255" Properties=species:S:1:pos:R:3:mulliken_charges:R:1 fermi_energy=4.781312370495001 core_to_fermi_energy=16.851734769525017 config_type=Interstitial energy=-272.6456213501079 pbc="T T T"
P        1.52332879       1.42730871       4.50080817      -0.63200000
P        4.51524363       1.47574647       1.48516004      -0.63200000
P        1.52332879       4.49139460       1.43672228      -0.63200000
P        4.41651171       4.43766694       4.44708051      -0.67300000
P        1.47489103       1.47574647      10.24735744      -0.63200000
P        4.44088812       1.46824169       7.38698641      -0.67100000
P        1.46846403       4.42076167       7.37712075      -0.67100000
P        4.59458459       4.57367037      10.16801648      -0.67000000
P        1.46846403       7.36770718       4.43017524      -0.67100000
P        4.44088812       7.37757284       1.47765526      -0.67100000
P        1.47489103      10.23794387       1.48516004      -0.63200000
P        4.59458459      10.15860291       4.58308394      -0.67000000
P        1.48239581       7.37757284      10.32171295      -0.67100000
P        4.46373550       7.36225186       7.37166543      -0.67400000
P        1.48239581      10.31229938       7.38698641      -0.67100000
P        4.43440525      10.31878225      10.32819582      -0.67300000
P        7.38548032       1.48217347       4.43017524      -0.67100000
P       10.26179290       1.42730871       1.43672228      -0.63200000
P        7.38548032       4.42076167       1.49158704      -0.67100000
P       10.42618804       4.32699946       4.33641303      -0.67000000
P        7.37561466       1.46824169      10.32171295      -0.67100000
P       10.33242583       1.48217347       7.37712075      -0.67100000
P        7.43863260       4.40880355       7.32396847      -0.67400000
P       10.31552056       4.43766694      10.34608936      -0.67300000
P        7.43863260       7.31455490       4.41821712      -0.67400000
P       10.33242583       7.36770718       1.49158704      -0.67100000
P        7.37561466      10.31229938       1.47765526      -0.67100000
P       10.31552056      10.33667579       4.44708051      -0.67300000
P        7.39093564       7.36225186      10.29886557      -0.67400000
P       10.34438395       7.31455490       7.32396847      -0.67400000
P        7.39093564      10.28945200       7.37166543      -0.67400000
P       10.17951713      10.15860291      10.16801648      -0.67000000
In      -0.32183657      -0.17965116      -0.17023759       0.61300000
In       3.13028866      -0.17965116       3.28188764       0.61300000
In       0.11164705       2.83899045       2.84840402       0.61300000
In       3.13028866       3.27247407      -0.17023759       0.61300000
In      -0.00093467      -0.01509163       5.92775054       0.66000000
In       2.96649072      -0.01585322       8.86086557       0.66000000
In      -0.03318753       2.98382503       8.86035834       0.66100000
In       2.96572913       2.95157217       5.92775054       0.66000000
In      -0.00093467       5.91833697      -0.00567806       0.66000000
In       2.96572913       5.91833697       2.96098574       0.66000000
In      -0.03318753       8.85094477       2.99323860       0.66100000
In       2.96649072       8.85145200      -0.00643965       0.66100000
In       0.00866727       5.83862585       5.84803942       0.65700000
In       2.93202023       5.93615223       8.80747939       0.65700000
In       0.01684028       8.78404857       8.79346214       0.65700000
In       2.93202023       8.79806582       5.94556580       0.65700000
In       5.90173550      -0.01585322      -0.00643965       0.66000000
In       8.83485053      -0.01509163       2.96098574       0.66000000
In       5.90224273       2.98382503       2.99323860       0.66000000
In       8.83485053       2.95157217      -0.00567806       0.66100000
In       5.95512168       0.01861727       5.94556580       0.65700000
In       8.81703527       0.01861727       8.80747939       0.65700000
In       5.96913893       2.93379722       8.79346214       0.65700000
In       8.91456165       2.94197023       5.84803942       0.65700000
In       5.95512168       5.93615223       0.02803084       0.65700000
In       8.91456165       5.83862585       2.95138380       0.65700000
In       5.96913893       8.78404857       2.94321079       0.65700000
In       8.81703527       8.79806582       0.02803084       0.65700000
In       5.93169139       5.88619730       5.89561087       0.66500000
In       8.86699020       5.88619730       8.83090968       0.66500000
In       5.90485009       8.84833741       8.85775098       0.66500000
In       8.86699020       8.82149611       5.89561087       0.66500000
In       1.88630454       1.06433296       1.07374653       0.34500000
65
Lattice="11.80255 0.0 0.0 0.0 11.80255 0.0 0.0 0.0 11.80255" Properties=species:S:1:pos:R:3:mulliken_charges:R:1 fermi_energy=4.781312370495001 core_to_fermi_energy=16.851734769525017 config_type=Interstitial energy=-272.5362165749473 pbc="T T T"
P        1.51420947       1.43642803       4.50694205      -0.63200000
P        4.54741637       1.48108155       1.49048371      -0.63200000
P        1.51420947       4.49753989       1.44583019      -0.63200000
P        4.41608857       4.44291670       4.45231886      -0.67300000
P        1.46955595       1.48108155      10.21517329      -0.63200000
P        4.44368447       1.47169507       7.38516509      -0.67100000
P        1.46794556       4.42782678       7.37503306      -0.67100000
P        4.58673698       4.57139870      10.17585267      -0.67000000
P        1.46794556       7.36563090       4.43722894      -0.67100000
P        4.44368447       7.37576293       1.48109723      -0.67100000
P        1.46955595      10.20577113       1.49048371      -0.63200000
P        4.58673698      10.16645052       4.58080085      -0.67000000
P        1.47894243       7.37576293      10.31890519      -0.67100000
P        4.46321107       7.36544880       7.37485096      -0.67400000
P        1.47894243      10.30950303       7.38516509      -0.67100000
P        4.43120456      10.32198294      10.33138509      -0.67300000
P        7.38755660       1.48269194       4.43722894      -0.67100000
P       10.25564761       1.43642803       1.44583019      -0.63200000
P        7.38755660       4.42782678       1.49209410      -0.67100000
P       10.43518251       4.31800499       4.32740715      -0.67000000
P        7.37742457       1.47169507      10.31890519      -0.67100000
P       10.32536072       1.48269194       7.37503306      -0.67100000
P        7.43654440       4.41012326       7.32604526      -0.67400000
P       10.31027080       4.44291670      10.34650108      -0.67300000
P        7.43654440       7.31664310       4.41952541      -0.67400000
P       10.32536072       7.36563090       1.49209410      -0.67100000
P        7.37742457      10.30950303       1.48109723      -0.67100000
P       10.31027080      10.33709893       4.45231886      -0.67300000
P        7.38773870       7.36544880      10.29937858      -0.67400000
P       10.34306424       7.31664310       7.32604526      -0.67400000
P        7.38773870      10.28997643       7.37485096      -0.67400000
P       10.18178880      10.16645052      10.17585267      -0.67000000
In      -0.34605215      -0.15884458      -0.14944242       0.61300000
In       3.10948208      -0.15884458       3.30609181       0.61300000
In       0.13903799       2.81159951       2.82100166       0.61300000
In       3.10948208       3.29668965      -0.14944242       0.61300000
In      -0.00507245      -0.01503215       5.93141548       0.66000000
In       2.96764868      -0.01701118       8.85245818       0.66000000
In      -0.04827473       2.99891223       8.84619071       0.66100000
In       2.96566965       2.95570995       5.93141548       0.66000000
In      -0.00507245       5.92201332      -0.00562999       0.66000000
In       2.96566965       5.92201332       2.96511211       0.66000000
In      -0.04827473       8.83678855       3.00831438       0.66100000
In       2.96764868       8.84305602      -0.00760902       0.66100000
In       0.00206488       5.83750765       5.84690981       0.65700000
In       2.93342923       5.93689275       8.80889207       0.65700000
In       0.01293219       8.78777601       8.79717817       0.65700000
In       2.93342923       8.79948992       5.94629490       0.65700000
In       5.91013148      -0.01701118      -0.00760902       0.66000000
In       8.83117418      -0.01503215       2.96511211       0.66000000
In       5.91639895       2.99891223       3.00831438       0.66000000
In       8.83117418       2.95570995      -0.00562999       0.66100000
In       5.95369758       0.01720827       5.94629490       0.65700000
In       8.81629475       0.01720827       8.80889207       0.65700000
In       5.96541149       2.93770531       8.79717817       0.65700000
In       8.91567985       2.94857262       5.84690981       0.65700000
In       5.95369758       5.93689275       0.02661042       0.65700000
In       8.91567985       5.83750765       2.95797477       0.65700000
In       5.96541149       8.78777601       2.94710747       0.65700000
In       8.81629475       8.79948992       0.02661042       0.65700000
In       5.93161144       5.89050396       5.89990612       0.66500000
In       8.86268354       5.89050396       8.83097822       0.66500000
In       5.90072010       8.85246740       8.86186956       0.66500000
In       8.86268354       8.82157606       5.89990612       0.66500000
In       2.01657388       0.93406362       0.94346577       0.34500000
65
Lattice="11.80255 0.0 0.0 0.0 11.80255 0.0 0.0 0.0 11.80255" Properties=species:S:1:pos:R:3:mulliken_charges:R:1 fermi_energy=4.781312370495001 core_to_fermi_energy=16.851734769525017 config_type=Interstitial energy=-272.4441684205477 pbc="T T T"
P        1.50634808       1.44428942       4.50833353      -0.63200000
P        4.56688193       1.48773623       1.49714004      -0.63200000
P        1.50634808       4.49892973       1.45369322      -0.63200000
P        4.41596408       4.44602554       4.45542935      -0.67300000
P        1.46290127       1.48773623      10.19570938      -0.63200000
P        4.44538981       1.47358831       7.38393628      -0.67100000
P        1.46886229       4.43152633       7.37378279      -0.67100000