63
Lattice="11.8016818 -7.6e-06 -7.6e-06 -7.6e-06 11.8016818 -7.8e-06 -7.6e-06 -7.8e-06 11.8016816" Properties=species:S:1:pos:R:3:mulliken_charges:R:1 virial="-0.001343979365248383 3.847269175329341e-05 3.847269175329341e-05 3.847269175329341e-05 -0.001345261788306826 3.847269175329341e-05 3.847269175329341e-05 3.847269175329341e-05 -0.0013426969421899398" fermi_energy=3.4539138232004998 core_to_fermi_energy=15.43004959127955 config_type=Accurate_Bulk energy=-268.02238551890275 pbc="T T T"
P        1.48633828       1.48633822       4.43059696      -0.67500000
P        4.43059704       1.48633827       1.48633824      -0.67500000
P        1.48633827       4.43059703       1.48633819      -0.67500000
P        4.54170247       4.54170243       4.54170234      -0.67500000
In       0.00000070       0.00000068       0.00000068       0.67500000
In       2.95528482      -0.00351478       2.95528474       0.67500000
In      -0.00351472       2.95528475       2.95528469       0.67500000
In       2.95528482       2.95528480      -0.00351478       0.67500000
P        1.47730396       1.47730380      10.32436732      -0.67500000
P        4.42999841       1.49230580       7.37167209      -0.67500000
P        1.49230590       4.42999831       7.37167204      -0.67500000
P        4.42999456       4.42999441      10.30936043      -0.67500000
In      -0.00000285      -0.00000297       5.90084119       0.67500000
In       2.95528069       0.00350496       8.84639480       0.67500000
In       0.00350513       2.95528051       8.84639476       0.67500000
In       3.00029361       3.00029350       5.84491729       0.67500000
P        1.49230590       7.37167217       4.42999824      -0.67500000
P        4.42999842       7.37167221       1.49230578      -0.67500000
P        1.47730396      10.32436750       1.47730377      -0.67500000
P        4.42999455      10.30936062       4.42999433      -0.67500000
In      -0.00000285       5.90084129      -0.00000298       0.67500000
In       3.00029365       5.84491738       3.00029349       0.67500000
In       0.00350513       8.84639490       2.95528045       0.67500000
In       2.95528069       8.84639494       0.00350496       0.67500000
P        1.48632955       7.37107441      10.31533331      -0.67500000
P        4.54169455       7.25996719       7.25996708      -0.67500000
P        1.48632956      10.31533347       7.37107428      -0.67500000
P        4.43058511      10.31532961      10.31532944      -0.67500000
In      -0.00000724       5.90083749       5.90083739       0.67500000
In       3.00028782       5.95675417       8.80137922       0.67500000
In      -0.00352316       8.84639063       8.84639049       0.67500000
In       3.00028779       8.80137941       5.95675405       0.67500000
P        7.37167222       1.49230585       4.42999834      -0.67500000
P       10.32436751       1.47730395       1.47730392      -0.67500000
P        7.37167221       4.42999842       1.49230583      -0.67500000
P       10.30936067       4.42999450       4.42999443      -0.67500000
In       5.90084130      -0.00000287      -0.00000288       0.67500000
In       8.84639496       0.00350507       2.95528061       0.67500000
In       5.84491744       3.00029360       3.00029355       0.67500000
In       8.84639496       2.95528067       0.00350507       0.67500000
P        7.37107458       1.48632938      10.31533342      -0.67500000
P       10.31533359       1.48632944       7.37107443      -0.67500000
P        7.25996732       4.54169441       7.25996719      -0.67500000
P       10.31532978       4.43058494      10.31532955      -0.67500000
In       5.90083760      -0.00000735       5.90083749       0.67500000
In       8.84639081      -0.00352334       8.84639065       0.67500000
In       5.95675434       3.00028764       8.80137929       0.67500000
In       8.80137953       3.00028766       5.95675416       0.67500000
P        7.25996732       7.25996729       4.54169431      -0.67500000
P       10.31533360       7.37107457       1.48632941      -0.67500000
P        7.37107458      10.31533359       1.48632935      -0.67500000
P       10.31532977      10.31532972       4.43058488      -0.67500000
In       5.90083760       5.90083759      -0.00000735       0.67500000
In       8.80137950       5.95675428       3.00028765       0.67500000
In       5.95675434       8.80137945       3.00028759       0.67500000
In       8.84639080       8.84639079      -0.00352333       0.67500000
P        7.37166449       7.37166433      10.30935666      -0.67500000
P       10.30935694       7.37166439       7.37166426      -0.67500000
P        7.37166449      10.30935684       7.37166421      -0.67500000
P       10.32435581      10.32435565      10.32435547      -0.67500000
In       8.80137483       5.84490908       8.80137456       0.67500000
In       5.84490925       8.80137464       8.80137449       0.67500000
In       8.80137486       8.80137475       5.84490900       0.67500000
63
Lattice="11.8016818 -7.6e-06 -7.6e-06 -7.6e-06 11.8016818 -7.8e-06 -7.6e-06 -7.8e-06 11.8016816" Properties=species:S:1:pos:R:3:mulliken_charges:R:1 virial="-0.001343979365248383 3.847269175329341e-05 3.847269175329341e-05 3.847269175329341e-05 -0.001345261788306826 3.847269175329341e-05 3.847269175329341e-05 3.847269175329341e-05 -0.0013426969421899398" fermi_energy=3.4539138232004998 core_to_fermi_energy=15.43004959127955 config_type=Accurate_Bulk energy=-267.98184520369966 pbc="T T T"
P        1.58629030       1.58629024       4.49567058      -0.67500000
P        4.44468753       1.49144735       1.48586599      -0.67500000
P        1.49144735       4.44468753       1.48586594      -0.67500000
P        4.64972869       4.64972866       4.47285673      -0.67500000
In       0.01672192       0.01672190      -0.00475828       0.67500000
In       2.96524902       0.04338263       2.99261164       0.67500000
In       0.04338270       2.96524896       2.99261160       0.67500000
In       2.96203401       2.96203400       0.00552329       0.67500000
P        1.49377821       1.49377805      10.31464308      -0.67500000
P        4.47996704       1.54035077       7.37549935      -0.67500000
P        1.54035087       4.47996694       7.37549929      -0.67500000
P        4.44241570       4.44241555      10.33174135      -0.67500000
In       0.05497434       0.05497422       5.88088720       0.67500000
In       2.97792503       0.04417115       8.82035345       0.67500000
In       0.04417132       2.97792486       8.82035340       0.67500000
In       3.14610724       3.14610713       5.86078435       0.67500000
P        1.50481841       7.39004436       4.41755702      -0.67500000
P        4.43640483       7.41344690       1.46166166      -0.67500000
P        1.48739560      10.36970853       1.50458609      -0.67500000
P        4.43968878      10.32722073       4.43867213      -0.67500000
In      -0.00707085       5.91168437       0.00443445       0.67500000
In       3.01421389       5.88336091       2.96477515       0.67500000
In       0.00725304       8.87021802       2.95677293       0.67500000
In       2.94467711       8.90145825       0.00131258       0.67500000
P        1.46656351       7.41266778      10.33506870      -0.67500000
P        4.53074811       7.27065893       7.27747689      -0.67500000
P        1.50160024      10.34444702       7.36249460      -0.67500000
P        4.43370119      10.34062442      10.29742811      -0.67500000
In       0.02230275       5.91868990       5.89750491       0.67500000
In       3.00254690       5.99568227       8.85521028       0.67500000
In      -0.00229186       8.87129654       8.82544925       0.67500000
In       3.00536699       8.81478711       5.95747529       0.67500000
P        7.39004441       1.50481836       4.41755712      -0.67500000
P       10.36970854       1.48739559       1.50458624      -0.67500000
P        7.41344690       4.43640483       1.46166171      -0.67500000
P       10.32722078       4.43968873       4.43867223      -0.67500000
In       5.91168438      -0.00707087       0.00443455       0.67500000
In       8.87021808       0.00725297       2.95677308       0.67500000
In       5.88336097       3.01421383       2.96477520       0.67500000
In       8.90145827       2.94467709       0.00131269       0.67500000
P        7.41266794       1.46656335      10.33506881      -0.67500000
P       10.34444713       1.50160012       7.36249476      -0.67500000
P        7.27065906       4.53074798       7.27747699      -0.67500000
P       10.34062458       4.43370103      10.29742822      -0.67500000
In       5.91869002       0.02230263       5.89750501       0.67500000
In       8.87129671      -0.00229203       8.82544941       0.67500000
In       5.99568244       3.00254672       8.85521035       0.67500000
In       8.81478723       3.00536686       5.95747539       0.67500000
P        7.25782680       7.25782676       4.53427041      -0.67500000
P       10.31760550       7.38645788       1.49368228      -0.67500000
P        7.38645789      10.31760550       1.49368223      -0.67500000
P       10.34284914      10.34284908       4.44813715      -0.67500000
In       5.92080947       5.92080946       0.00186513       0.67500000
In       8.81220228       5.95652104       3.00186673       0.67500000
In       5.95652110       8.81220223       3.00186668       0.67500000
In       8.85486098       8.85486096      -0.00938194       0.67500000
P        7.38392901       7.38392886      10.29757025      -0.67500000
P       10.31522110       7.38210451       7.35925985      -0.67500000
P        7.38210461      10.31522100       7.35925980      -0.67500000
P       10.33695307      10.33695291      10.32316922      -0.67500000
In       8.81547372       5.85140575       8.79567092       0.67500000
In       5.85140591       8.81547354       8.79567085       0.67500000
In       8.80657941       8.80657930       5.82745833       0.67500000
63
Lattice="11.8016818 -7.6e-06 -7.6e-06 -7.6e-06 11.8016818 -7.8e-06 -7.6e-06 -7.8e-06 11.8016816" Properties=species:S:1:pos:R:3:mulliken_charges:R:1 virial="-0.001343979365248383 3.847269175329341e-05 3.847269175329341e-05 3.847269175329341e-05 -0.001345261788306826 3.847269175329341e-05 3.847269175329341e-05 3.847269175329341e-05 -0.0013426969421899398" fermi_energy=3.4539138232004998 core_to_fermi_energy=15.43004959127955 config_type=Accurate_Bulk energy=-267.81531589880933 pbc="T T T"
P        1.67370732       1.67370726       4.57345325      -0.67500000
P        4.43122825       1.46812442       1.48531205      -0.67500000
P        1.46812442       4.43122824       1.48531200      -0.67500000
P        4.75221753       4.75221749       4.37705565      -0.67500000
In       0.01330702       0.01330700      -0.01105268       0.67500000
In       2.93969254       0.06840570       3.03166643       0.67500000
In       0.06840577       2.93969247       3.03166638       0.67500000
In       2.95136692       2.95136690       0.01499979       0.67500000
P        1.49161095       1.49161080      10.30687459      -0.67500000
P        4.50755215       1.56709743       7.38047899      -0.67500000
P        1.56709753       4.50755204       7.38047894      -0.67500000
P        4.43662058       4.43662043      10.35495176      -0.67500000
In       0.08559302       0.08559290       5.85295134       0.67500000
In       2.97764136       0.06267795       8.79669799       0.67500000
In       0.06267812       2.97764119       8.79669794       0.67500000
In       3.32774846       3.32774834       5.91730513       0.67500000
P        1.49689897       7.38971200       4.40989471      -0.67500000
P        4.42449021       7.43017430       1.44058033      -0.67500000
P        1.47943562      10.38563027       1.52059740      -0.67500000
P        4.42784453      10.32711489       4.44406242      -0.67500000
In      -0.03277072       5.90278294       0.00518056       0.67500000
In       2.99319051       5.89757092       2.92946667       0.67500000
In      -0.00578113       8.87147394       2.95516031       0.67500000
In       2.92915390       8.92802889      -0.00368365       0.67500000
P        1.43216557       7.43301073      10.35463467      -0.67500000
P        4.50140593       7.25186034       7.29276077      -0.67500000
P        1.49683984      10.35274420       7.35084678      -0.67500000
P        4.42282597      10.34292201      10.27476771      -0.67500000
In       0.02527360       5.91344073       5.89459532       0.67500000
In       2.98151573       6.00985781       8.90730476       0.67500000
In      -0.01593208       8.87475660       8.80575677       0.67500000
In       2.99727385       8.80742858       5.96001675       0.67500000
P        7.38971205       1.49689892       4.40989480      -0.67500000
P       10.38563027       1.47943561       1.52059756      -0.67500000
P        7.43017430       4.42449021       1.44058037      -0.67500000
P       10.32711494       4.42784448       4.44406251      -0.67500000
In       5.90278296      -0.03277074       0.00518066       0.67500000
In       8.87147401      -0.00578120       2.95516047       0.67500000
In       5.89757098       2.99319045       2.92946673       0.67500000
In       8.92802891       2.92915388      -0.00368355       0.67500000
P        7.43301090       1.43216540      10.35463479      -0.67500000
P       10.35274431       1.49683973       7.35084693      -0.67500000
P        7.25186047       4.50140579       7.29276086      -0.67500000
P       10.34292218       4.42282581      10.27476781      -0.67500000
In       5.91344085       0.02527349       5.89459542       0.67500000
In       8.87475677      -0.01593225       8.80575692       0.67500000
In       6.00985798       2.98151555       8.90730483       0.67500000
In       8.80742870       2.99727373       5.96001685       0.67500000
P        7.23278368       7.23278364       4.53183159      -0.67500000
P       10.30143308       7.38145697       1.49854723      -0.67500000
P        7.38145698      10.30143307       1.49854718      -0.67500000
P       10.34420601      10.34420596       4.45855351      -0.67500000
In       5.92123403       5.92123402       0.00798522       0.67500000
In       8.80413802       5.94023872       3.00606078       0.67500000
In       5.94023879       8.80413796       3.00606073       0.67500000
In       8.84741818       8.84741816      -0.01588954       0.67500000
P        7.37715396       7.37715381      10.29004454      -0.67500000
P       10.30350931       7.37122131       7.34935797      -0.67500000
P        7.37122142      10.30350921       7.34935792      -0.67500000
P       10.33146331      10.33146315      10.31770615      -0.67500000
In       8.80185716       5.84025501       8.78612008       0.67500000
In       5.84025518       8.80185698       8.78612001       0.67500000
In       8.79064284       8.79064273       5.81667935       0.67500000
63
Lattice="11.8016818 -7.6e-06 -7.6e-06 -7.6e-06 11.8016818 -7.8e-06 -7.6e-06 -7.8e-06 11.8016816" Properties=species:S:1:pos:R:3:mulliken_charges:R:1 virial="-0.001343979365248383 3.847269175329341e-05 3.847269175329341e-05 3.847269175329341e-05 -0.001345261788306826 3.847269175329341e-05 3.847269175329341e-05 3.847269175329341e-05 -0.0013426969421899398" fermi_energy=3.4539138232004998 core_to_fermi_energy=15.43004959127955 config_type=Accurate_Bulk energy=-267.4955305302063 pbc="T T T"
P        1.69806291       1.69806286       4.60650431      -0.67500000
P        4.42009739       1.44809198       1.48147481      -0.67500000
P        1.44809198       4.42009738       1.48147477      -0.67500000
P        4.81768003       4.81767998       4.28794213      -0.67500000
In       0.01035288       0.01035286      -0.01672742       0.67500000
In       2.91583638       0.07127810       3.04638203       0.67500000
In       0.07127816       2.91583631       3.04638198       0.67500000
In       2.94621031       2.94621029       0.01934645       0.67500000
P        1.49036160       1.49036144      10.30363253      -0.67500000
P        4.51627931       1.58231876       7.37904888      -0.67500000
P        1.58231886       4.51627919       7.37904882      -0.67500000
P        4.43328736       4.43328720      10.36851645      -0.67500000
In       0.08887247       0.08887235       5.83392858       0.67500000
In       2.97541753       0.07345422       8.78464556       0.67500000
In       0.07345439       2.97541736       8.78464551       0.67500000
In       3.54408253       3.54408241       6.04284851       0.67500000
P        1.49002352       7.38993916       4.40912921      -0.67500000
P        4.41760165       7.43658972       1.43320539      -0.67500000
P        1.47291818      10.38384092       1.51899926      -0.67500000
P        4.42165512      10.32542416       4.44675836      -0.67500000
In      -0.04962294       5.89828166       0.00215917       0.67500000
In       2.96511797       5.90502093       2.90739434       0.67500000
In      -0.01314516       8.86892481       2.95260732       0.67500000
In       2.92844398       8.93638485      -0.01005846       0.67500000
P        1.41230057       7.44398975      10.36614469      -0.67500000
P        4.48035052       7.23052874       7.30157613      -0.67500000
P        1.49420911      10.35384868       7.34568720      -0.67500000
P        4.41911371      10.34142590      10.25807649      -0.67500000
In       0.02936588       5.90661343       5.89432636       0.67500000
In       2.96005603       6.01300646       8.93896059       0.67500000
In      -0.02326250       8.87479409       8.79601857       0.67500000
In       2.99539406       8.80022674       5.96278890       0.67500000
P        7.38993922       1.49002347       4.40912931      -0.67500000
P       10.38384092       1.47291817       1.51899941      -0.67500000
P        7.43658973       4.41760164       1.43320543      -0.67500000
P       10.32542421       4.42165507       4.44675845      -0.67500000
In       5.89828168      -0.04962296       0.00215927       0.67500000
In       8.86892488      -0.01314523       2.95260747       0.67500000
In       5.90502099       2.96511791       2.90739439       0.67500000
In       8.93638487       2.92844396      -0.01005836       0.67500000
P        7.44398991       1.41230041      10.36614480      -0.67500000
P       10.35384879       1.49420900       7.34568736      -0.67500000
P        7.23052887       4.48035039       7.30157621      -0.67500000
P       10.34142606       4.41911355      10.25807660      -0.67500000
In       5.90661355       0.02936577       5.89432646       0.67500000
In       8.87479426      -0.02326268       8.79601873       0.67500000
In       6.01300662       2.96005585       8.93896066       0.67500000
In       8.80022686       2.99539393       5.96278900       0.67500000
P        7.21599853       7.21599849       4.53281219      -0.67500000
P       10.29168123       7.37778498       1.50003281      -0.67500000
P        7.37778499      10.29168122       1.50003276      -0.67500000
P       10.33565209      10.33565204       4.45935527      -0.67500000
In       5.92054177       5.92054176       0.01283725       0.67500000
In       8.79890084       5.93326056       3.00972407       0.67500000
In       5.93326062       8.79890079       3.00972401       0.67500000
In       8.84365204       8.84365201      -0.01982627       0.67500000
P        7.37250337       7.37250322      10.28722208      -0.67500000
P       10.29767846       7.36184698       7.34573388      -0.67500000
P        7.36184709      10.29767836       7.34573383      -0.67500000
P       10.32784396      10.32784380      10.31331692      -0.67500000
In       8.78702910       5.83327363       8.77773934       0.67500000
In       5.83327380       8.78702892       8.77773928       0.67500000
In       8.77918243       8.77918231       5.81699851       0.67500000
63
Lattice="11.8016818 -7.6e-06 -7.6e-06 -7.6e-06 11.8016818 -7.8e-06 -7.6e-06 -7.8e-06 11.8016816" Properties=species:S:1:pos:R:3:mulliken_charges:R:1 virial="-0.001343979365248383 3.847269175329341e-05 3.847269175329341e-05 3.847269175329341e-05 -0.001345261788306826 3.847269175329341e-05 3.847269175329341e-05 3.847269175329341e-05 -0.0013426969421899398" fermi_energy=3.4539138232004998 core_to_fermi_energy=15.43004959127955 config_type=Accurate_Bulk energy=-267.1506855974869 pbc="T T T"
P        1.67079515       1.67079510       4.59557757      -0.67500000
P        4.41535320       1.43416037       1.47463063      -0.67500000
P        1.43416037       4.41535320       1.47463058      -0.67500000
P        4.83478498       4.83478493       4.21637956      -0.67500000
In       0.00916544       0.00916542      -0.02080164       0.67500000
In       2.90509407       0.06145325       3.04442151       0.67500000
In       0.06145331       2.90509400       3.04442146       0.67500000
In       2.94360211       2.94360210       0.02101782       0.67500000
P        1.49002735       1.49002719      10.30141812      -0.67500000
P        4.50821936       1.60017454       7.36630573      -0.67500000
P        1.60017465       4.50821924       7.36630566      -0.67500000
P        4.43168789       4.43168774      10.37755818      -0.67500000
In       0.07807802       0.07807791       5.82808268       0.67500000
In       2.97698186       0.08267749       8.77780792       0.67500000
In       0.08267767       2.97698169       8.77780786       0.67500000
In       3.76624798       3.76624785       6.19724483       0.67500000
P        1.48411385       7.39104265       4.41095197      -0.67500000
P        4.41442987       7.44016045       1.43141948      -0.67500000
P        1.46881328      10.37816097       1.51284439      -0.67500000
P        4.42115239      10.32320621       4.45044703      -0.67500000
In      -0.06069210       5.89760833      -0.00205179       0.67500000
In       2.93937369       5.91184656       2.89318084       0.67500000
In      -0.01686399       8.86734626       2.95082256       0.67500000
In       2.93154342       8.93922745      -0.01516328       0.67500000
P        1.40108269       7.45093961      10.37273197      -0.67500000
P        4.46398942       7.21114436       7.30728085      -0.67500000
P        1.49554368      10.35251469       7.34573366      -0.67500000
P        4.41863547      10.33975547      10.24645000      -0.67500000
In       0.03673851       5.89971510       5.89876699       0.67500000
In       2.94054800       6.01177273       8.95972631       0.67500000
In      -0.02660704       8.87477736       8.79131728       0.67500000
In       2.99536577       8.79401251       5.96416133       0.67500000
P        7.39104271       1.48411380       4.41095207      -0.67500000
P       10.37816097       1.46881327       1.51284454      -0.67500000
P        7.44016045       4.41442986       1.43141953      -0.67500000
P       10.32320626       4.42115233       4.45044713      -0.67500000
In       5.89760835      -0.06069213      -0.00205169       0.67500000
In       8.86734633      -0.01686406       2.95082272       0.67500000
In       5.91184662       2.93937363       2.89318089       0.67500000
In       8.93922747       2.93154340      -0.01516317       0.67500000
P        7.45093977       1.40108253      10.37273209      -0.67500000
P       10.35251479       1.49554357       7.34573381      -0.67500000
P        7.21114448       4.46398929       7.30728094      -0.67500000
P       10.33975564       4.41863531      10.24645010      -0.67500000
In       5.89971523       0.03673839       5.89876709       0.67500000
In       8.87477753      -0.02660721       8.79131743       0.67500000
In       6.01177289       2.94054782       8.95972637       0.67500000
In       8.79401264       2.99536565       5.96416143       0.67500000
P        7.21035084       7.21035080       4.53472464      -0.67500000
P       10.28666298       7.37651699       1.50072847      -0.67500000
P        7.37651700      10.28666297       1.50072842      -0.67500000
P       10.32753586      10.32753581       4.45795496      -0.67500000
In       5.92014920       5.92014919       0.01629012       0.67500000
In       8.79666701       5.93166773       3.01286850       0.67500000
In       5.93166780       8.79666695       3.01286845       0.67500000
In       8.84216691       8.84216689      -0.02200592       0.67500000
P        7.36983673       7.36983658      10.28643460      -0.67500000
P       10.29609893       7.35519669       7.34490885      -0.67500000
P        7.35519680      10.29609883       7.34490880      -0.67500000
P       10.32629954      10.32629938      10.31075597      -0.67500000
In       8.77534818       5.83048060       8.77208243       0.67500000
In       5.83048077       8.77534800       8.77208237       0.67500000
In       8.77453068       8.77453056       5.82043853       0.67500000
63
Lattice="11.8016818 -7.6e-06 -7.6e-06 -7.6e-06 11.8016818 -7.8e-06 -7.6e-06 -7.8e-06 11.8016816" Properties=species:S:1:pos:R:3:mulliken_charges:R:1 virial="-0.001343979365248383 3.847269175329341e-05 3.847269175329341e-05 3.847269175329341e-05 -0.001345261788306826 3.847269175329341e-05 3.847269175329341e-05 3.847269175329341e-05 -0.0013426969421899398" fermi_energy=3.4539138232004998 core_to_fermi_energy=15.43004959127955 config_type=Accurate_Bulk energy=-266.8982315727429 pbc="T T T"
P        1.63413368       1.63413364       4.57154369      -0.67500000
P        4.41266704       1.41682794       1.46296063      -0.67500000
P        1.41682794       4.41266704       1.46296058      -0.67500000
P        4.80021399       4.80021394       4.14031250      -0.67500000
In       0.00872280       0.00872278      -0.02486025       0.67500000
In       2.90190855       0.04772105       3.03827154       0.67500000
In       0.04772111       2.90190849       3.03827148       0.67500000
In       2.93996769       2.93996767       0.02307828       0.67500000
P        1.48972634       1.48972619      10.29784271      -0.67500000
P        4.48708906       1.63881675       7.34462023      -0.67500000
P        1.63881687       4.48708894       7.34462017      -0.67500000
P        4.42976629       4.42976614      10.38912317      -0.67500000
In       0.06533921       0.06533909       5.83105868       0.67500000
In       2.98498240       0.09595395       8.76960577       0.67500000
In       0.09595412       2.98498223       8.76960571       0.67500000
In       4.01778911       4.01778898       6.35368232       0.67500000
P        1.47439340       7.39299640       4.41494846      -0.67500000
P        4.41285039       7.44525731       1.43163052      -0.67500000
P        1.46593501      10.37301520       1.50658044      -0.67500000
P        4.42242604      10.32205918       4.45770252      -0.67500000
In      -0.07445313       5.89870198      -0.00861754       0.67500000
In       2.90548209       5.92489447       2.87458886       0.67500000
In      -0.02061062       8.86753004       2.94905631       0.67500000
In       2.93616247       8.94260246      -0.02020768       0.67500000
P        1.38937257       7.45950016      10.37993039      -0.67500000
P        4.44281939       7.18550757       7.31489679      -0.67500000
P        1.50086097      10.35167881       7.34722673      -0.67500000
P        4.41953666      10.33684107      10.23243828      -0.67500000
In       0.05072007       5.88787812       5.91236902       0.67500000
In       2.91410505       6.00673815       8.98485412       0.67500000
In      -0.02894885       8.87591811       8.78628126       0.67500000
In       2.99478614       8.78558660       5.96330724       0.67500000
P        7.39299646       1.47439335       4.41494855      -0.67500000
P       10.37301520       1.46593500       1.50658059      -0.67500000
P        7.44525732       4.41285039       1.43163057      -0.67500000
P       10.32205923       4.42242599       4.45770262      -0.67500000
In       5.89870199      -0.07445316      -0.00861743       0.67500000
In       8.86753011      -0.02061069       2.94905646       0.67500000
In       5.92489453       2.90548203       2.87458891       0.67500000
In       8.94260248       2.93616246      -0.02020758       0.67500000
P        7.45950032       1.38937241      10.37993050      -0.67500000
P       10.35167891       1.50086086       7.34722689      -0.67500000
P        7.18550769       4.44281926       7.31489687      -0.67500000
P       10.33684123       4.41953650      10.23243839      -0.67500000
In       5.88787824       0.05071995       5.91236912       0.67500000
In       8.87591829      -0.02894902       8.78628141       0.67500000
In       6.00673832       2.91410488       8.98485419       0.67500000
In       8.78558672       2.99478601       5.96330734       0.67500000
P        7.21314030       7.21314026       4.53902828      -0.67500000
P       10.28187959       7.37637123       1.50182675      -0.67500000
P        7.37637124      10.28187958       1.50182670      -0.67500000
P       10.32207220      10.32207215       4.45749092      -0.67500000
In       5.91961558       5.91961556       0.02129914       0.67500000
In       8.79626345       5.93182306       3.01839155       0.67500000
In       5.93182313       8.79626339       3.01839149       0.67500000
In       8.84107930       8.84107928      -0.02428904       0.67500000
P        7.36673849       7.36673834      10.28698912      -0.67500000
P       10.29645573       7.34741709       7.34525843      -0.67500000
P        7.34741720      10.29645562       7.34525838      -0.67500000
P       10.32535475      10.32535459      10.30821012      -0.67500000
In       8.76127626       5.83104607       8.76663988       0.67500000
In       5.83104624       8.76127609       8.76663982       0.67500000
In       8.77464301       8.77464290       5.82618663       0.67500000
63