63
Lattice="11.8016818 -7.6e-06 -7.6e-06 -7.6e-06 11.8016818 -7.8e-06 -7.6e-06 -7.8e-06 11.8016816" Properties=species:S:1:pos:R:3:mulliken_charges:R:1 virial="-0.001343979365248383 3.847269175329341e-05 3.847269175329341e-05 3.847269175329341e-05 -0.001345261788306826 3.847269175329341e-05 3.847269175329341e-05 3.847269175329341e-05 -0.0013426969421899398" fermi_energy=3.4539138232004998 core_to_fermi_energy=15.43004959127955 config_type=Accurate_Bulk energy=-268.02238551890275 pbc="T T T"
P        1.48633828       1.48633822       4.43059696      -0.67500000
P        4.43059704       1.48633827       1.48633824      -0.67500000
P        1.48633827       4.43059703       1.48633819      -0.67500000
P        4.54170247       4.54170243       4.54170234      -0.67500000
In       0.00000070       0.00000068       0.00000068       0.67500000
In       2.95528482      -0.00351478       2.95528474       0.67500000
In      -0.00351472       2.95528475       2.95528469       0.67500000
In       2.95528482       2.95528480      -0.00351478       0.67500000
P        1.47730396       1.47730380      10.32436732      -0.67500000
P        4.42999841       1.49230580       7.37167209      -0.67500000
P        1.49230590       4.42999831       7.37167204      -0.67500000
P        4.42999456       4.42999441      10.30936043      -0.67500000
In      -0.00000285      -0.00000297       5.90084119       0.67500000
In       2.95528069       0.00350496       8.84639480       0.67500000
In       0.00350513       2.95528051       8.84639476       0.67500000
In       3.00029361       3.00029350       5.84491729       0.67500000
P        1.49230590       7.37167217       4.42999824      -0.67500000
P        4.42999842       7.37167221       1.49230578      -0.67500000
P        1.47730396      10.32436750       1.47730377      -0.67500000
P        4.42999455      10.30936062       4.42999433      -0.67500000
In      -0.00000285       5.90084129      -0.00000298       0.67500000
In       3.00029365       5.84491738       3.00029349       0.67500000
In       0.00350513       8.84639490       2.95528045       0.67500000
In       2.95528069       8.84639494       0.00350496       0.67500000
P        1.48632955       7.37107441      10.31533331      -0.67500000
P        4.54169455       7.25996719       7.25996708      -0.67500000
P        1.48632956      10.31533347       7.37107428      -0.67500000
P        4.43058511      10.31532961      10.31532944      -0.67500000
In      -0.00000724       5.90083749       5.90083739       0.67500000
In       3.00028782       5.95675417       8.80137922       0.67500000
In      -0.00352316       8.84639063       8.84639049       0.67500000
In       3.00028779       8.80137941       5.95675405       0.67500000
P        7.37167222       1.49230585       4.42999834      -0.67500000
P       10.32436751       1.47730395       1.47730392      -0.67500000
P        7.37167221       4.42999842       1.49230583      -0.67500000
P       10.30936067       4.42999450       4.42999443      -0.67500000
In       5.90084130      -0.00000287      -0.00000288       0.67500000
In       8.84639496       0.00350507       2.95528061       0.67500000
In       5.84491744       3.00029360       3.00029355       0.67500000
In       8.84639496       2.95528067       0.00350507       0.67500000
P        7.37107458       1.48632938      10.31533342      -0.67500000
P       10.31533359       1.48632944       7.37107443      -0.67500000
P        7.25996732       4.54169441       7.25996719      -0.67500000
P       10.31532978       4.43058494      10.31532955      -0.67500000
In       5.90083760      -0.00000735       5.90083749       0.67500000
In       8.84639081      -0.00352334       8.84639065       0.67500000
In       5.95675434       3.00028764       8.80137929       0.67500000
In       8.80137953       3.00028766       5.95675416       0.67500000
P        7.25996732       7.25996729       4.54169431      -0.67500000
P       10.31533360       7.37107457       1.48632941      -0.67500000
P        7.37107458      10.31533359       1.48632935      -0.67500000
P       10.31532977      10.31532972       4.43058488      -0.67500000
In       5.90083760       5.90083759      -0.00000735       0.67500000
In       8.80137950       5.95675428       3.00028765       0.67500000
In       5.95675434       8.80137945       3.00028759       0.67500000
In       8.84639080       8.84639079      -0.00352333       0.67500000
P        7.37166449       7.37166433      10.30935666      -0.67500000
P       10.30935694       7.37166439       7.37166426      -0.67500000
P        7.37166449      10.30935684       7.37166421      -0.67500000
P       10.32435581      10.32435565      10.32435547      -0.67500000
In       8.80137483       5.84490908       8.80137456       0.67500000
In       5.84490925       8.80137464       8.80137449       0.67500000
In       8.80137486       8.80137475       5.84490900       0.67500000
63
Lattice="11.8016818 -7.6e-06 -7.6e-06 -7.6e-06 11.8016818 -7.8e-06 -7.6e-06 -7.8e-06 11.8016816" Properties=species:S:1:pos:R:3:mulliken_charges:R:1 virial="-0.001343979365248383 3.847269175329341e-05 3.847269175329341e-05 3.847269175329341e-05 -0.001345261788306826 3.847269175329341e-05 3.847269175329341e-05 3.847269175329341e-05 -0.0013426969421899398" fermi_energy=3.4539138232004998 core_to_fermi_energy=15.43004959127955 config_type=Accurate_Bulk energy=-268.0154605212936 pbc="T T T"
P        1.51597705       1.51597700       4.45134297      -0.67500000
P        4.45134306       1.51597705       1.51597703      -0.67500000
P        1.51597705       4.45134305       1.51597697      -0.67500000
P        4.59897136       4.59897134       4.59897128      -0.67500000
In       0.00678994       0.00678992       0.00678992       0.67500000
In       2.96684919       0.01788191       2.96684912       0.67500000
In       0.01788197       2.96684913       2.96684907       0.67500000
In       2.96684920       2.96684918       0.01788191       0.67500000
P        1.48892653       1.48892637      10.33984593      -0.67500000
P        4.43949447       1.49895863       7.38132943      -0.67500000
P        1.49895872       4.43949437       7.38132938      -0.67500000
P        4.43558706       4.43558691      10.31766163      -0.67500000
In       0.01562096       0.01562083       5.89887178       0.67500000
In       2.95895561       0.01190042       8.85535837       0.67500000
In       0.01190060       2.95895543       8.85535832       0.67500000
In       3.03837113       3.03837102       5.86035497       0.67500000
P        1.49895872       7.38132950       4.43949429      -0.67500000
P        4.43949447       7.38132955       1.49895861      -0.67500000
P        1.48892653      10.33984610       1.48892634      -0.67500000
P        4.43558706      10.31766181       4.43558683      -0.67500000
In       0.01562096       5.89887188       0.01562083       0.67500000
In       3.03837114       5.86035507       3.03837098       0.67500000
In       0.01190060       8.85535847       2.95895538       0.67500000
In       2.95895561       8.85535852       0.01190042       0.67500000
P        1.48987114       7.37756123      10.32428023      -0.67500000
P        4.54676435       7.25893538       7.25893524      -0.67500000
P        1.48987113      10.32428040       7.37756111      -0.67500000
P        4.43667560      10.32366952      10.32366934      -0.67500000
In       0.00609883       5.90709835       5.90709825       0.67500000
In       3.00593615       5.96513009       8.81046805       0.67500000
In      -0.00112393       8.84990133       8.84990118       0.67500000
In       3.00593615       8.81046821       5.96512999       0.67500000
P        7.38132955       1.49895868       4.43949439      -0.67500000
P       10.33984611       1.48892652       1.48892649      -0.67500000
P        7.38132955       4.43949447       1.49895866      -0.67500000
P       10.31766186       4.43558701       4.43558693      -0.67500000
In       5.89887189       0.01562093       0.01562093       0.67500000
In       8.85535854       0.01190054       2.95895553       0.67500000
In       5.86035513       3.03837109       3.03837104       0.67500000
In       8.85535853       2.95895559       0.01190054       0.67500000
P        7.37756139       1.48987097      10.32428034      -0.67500000
P       10.32428052       1.48987102       7.37756126      -0.67500000
P        7.25893553       4.54676422       7.25893536      -0.67500000
P       10.32366969       4.43667544      10.32366946      -0.67500000
In       5.90709847       0.00609871       5.90709835       0.67500000
In       8.84990150      -0.00112411       8.84990134       0.67500000
In       5.96513026       3.00593597       8.81046813       0.67500000
In       8.81046834       3.00593602       5.96513009       0.67500000
P        7.25893553       7.25893550       4.54676416      -0.67500000
P       10.32428052       7.37756139       1.48987099      -0.67500000
P        7.37756140      10.32428052       1.48987094      -0.67500000
P       10.32366969      10.32366964       4.43667536      -0.67500000
In       5.90709846       5.90709845       0.00609871       0.67500000
In       8.81046834       5.96513020       3.00593597       0.67500000
In       5.96513026       8.81046828       3.00593592       0.67500000
In       8.84990150       8.84990148      -0.00112411       0.67500000
P        7.37513831       7.37513815      10.31007550      -0.67500000
P       10.31007578       7.37513821       7.37513808      -0.67500000
P        7.37513831      10.31007568       7.37513803      -0.67500000
P       10.32997963      10.32997947      10.32997929      -0.67500000
In       8.80344966       5.84438487       8.80344940       0.67500000
In       5.84438503       8.80344947       8.80344932       0.67500000
In       8.80344967       8.80344956       5.84438477       0.67500000
63
Lattice="11.8016818 -7.6e-06 -7.6e-06 -7.6e-06 11.8016818 -7.8e-06 -7.6e-06 -7.8e-06 11.8016816" Properties=species:S:1:pos:R:3:mulliken_charges:R:1 virial="-0.001343979365248383 3.847269175329341e-05 3.847269175329341e-05 3.847269175329341e-05 -0.001345261788306826 3.847269175329341e-05 3.847269175329341e-05 3.847269175329341e-05 -0.0013426969421899398" fermi_energy=3.4539138232004998 core_to_fermi_energy=15.43004959127955 config_type=Accurate_Bulk energy=-267.9777031891078 pbc="T T T"
P        1.54391692       1.54391687       4.47016085      -0.67500000
P        4.47016094       1.54391693       1.54391690      -0.67500000
P        1.54391693       4.47016093       1.54391685      -0.67500000
P        4.67463087       4.67463088       4.67463083      -0.67500000
In       0.00757192       0.00757190       0.00757190       0.67500000
In       2.97254543       0.03693760       2.97254535       0.67500000
In       0.03693767       2.97254536       2.97254531       0.67500000
In       2.97254543       2.97254541       0.03693760       0.67500000
P        1.49505690       1.49505674      10.34943984      -0.67500000
P        4.43948237       1.49837214       7.38072689      -0.67500000
P        1.49837223       4.43948226       7.38072684      -0.67500000
P        4.43300718       4.43300703      10.31857165      -0.67500000
In       0.02435292       0.02435279       5.88985842       0.67500000
In       2.95621806       0.01222715       8.85781302       0.67500000
In       0.01222733       2.95621788       8.85781298       0.67500000
In       3.08284050       3.08284039       5.86594849       0.67500000
P        1.49837223       7.38072696       4.43948218      -0.67500000
P        4.43948237       7.38072701       1.49837212      -0.67500000
P        1.49505691      10.34944001       1.49505671      -0.67500000
P        4.43300718      10.31857183       4.43300695      -0.67500000
In       0.02435291       5.88985852       0.02435278       0.67500000
In       3.08284051       5.86594858       3.08284036       0.67500000
In       0.01222733       8.85781313       2.95621782       0.67500000
In       2.95621806       8.85781317       0.01222716       0.67500000
P        1.48585365       7.37720065      10.32452356      -0.67500000
P        4.54069372       7.23816286       7.23816272      -0.67500000
P        1.48585365      10.32452374       7.37720053      -0.67500000
P        4.43943125      10.32086343      10.32086326      -0.67500000
In       0.00431905       5.90561640       5.90561629       0.67500000
In       3.00197894       5.96332381       8.81052428       0.67500000
In      -0.00981548       8.84403546       8.84403531       0.67500000
In       3.00197893       8.81052444       5.96332371       0.67500000
P        7.38072701       1.49837220       4.43948229      -0.67500000
P       10.34944002       1.49505690       1.49505687      -0.67500000
P        7.38072701       4.43948237       1.49837218      -0.67500000
P       10.31857187       4.43300713       4.43300705      -0.67500000
In       5.88985852       0.02435288       0.02435288       0.67500000
In       8.85781318       0.01222728       2.95621798       0.67500000
In       5.86594862       3.08284048       3.08284043       0.67500000
In       8.85781318       2.95621804       0.01222728       0.67500000
P        7.37720082       1.48585348      10.32452368      -0.67500000
P       10.32452386       1.48585352       7.37720069      -0.67500000
P        7.23816303       4.54069358       7.23816286      -0.67500000
P       10.32086361       4.43943107      10.32086339      -0.67500000
In       5.90561651       0.00431894       5.90561640       0.67500000
In       8.84403563      -0.00981566       8.84403547       0.67500000
In       5.96332399       3.00197875       8.81052437       0.67500000
In       8.81052458       3.00197880       5.96332382       0.67500000
P        7.23816305       7.23816302       4.54069352      -0.67500000
P       10.32452386       7.37720081       1.48585350      -0.67500000
P        7.37720082      10.32452386       1.48585345      -0.67500000
P       10.32086363      10.32086358       4.43943099      -0.67500000
In       5.90561651       5.90561650       0.00431894       0.67500000
In       8.81052458       5.96332393       3.00197875       0.67500000
In       5.96332399       8.81052452       3.00197870       0.67500000
In       8.84403563       8.84403561      -0.00981566       0.67500000
P        7.36851375       7.36851360      10.29814774      -0.67500000
P       10.29814803       7.36851365       7.36851353      -0.67500000
P        7.36851375      10.29814792       7.36851348      -0.67500000
P       10.32862041      10.32862024      10.32862007      -0.67500000
In       8.78745711       5.83125739       8.78745684       0.67500000
In       5.83125755       8.78745689       8.78745674       0.67500000
In       8.78745713       8.78745702       5.83125729       0.67500000
63
Lattice="11.8016818 -7.6e-06 -7.6e-06 -7.6e-06 11.8016818 -7.8e-06 -7.6e-06 -7.8e-06 11.8016816" Properties=species:S:1:pos:R:3:mulliken_charges:R:1 virial="-0.001343979365248383 3.847269175329341e-05 3.847269175329341e-05 3.847269175329341e-05 -0.001345261788306826 3.847269175329341e-05 3.847269175329341e-05 3.847269175329341e-05 -0.0013426969421899398" fermi_energy=3.4539138232004998 core_to_fermi_energy=15.43004959127955 config_type=Accurate_Bulk energy=-267.9050638913054 pbc="T T T"
P        1.56492785       1.56492780       4.48236106      -0.67500000
P        4.48236115       1.56492786       1.56492783      -0.67500000
P        1.56492786       4.48236114       1.56492778      -0.67500000
P        4.75249701       4.75249706       4.75249703      -0.67500000
In       0.00652408       0.00652406       0.00652406       0.67500000
In       2.97420706       0.04856302       2.97420699       0.67500000
In       0.04856308       2.97420700       2.97420694       0.67500000
In       2.97420706       2.97420704       0.04856302       0.67500000
P        1.49728600       1.49728583      10.35240344      -0.67500000
P        4.43622195       1.49959555       7.37408180      -0.67500000
P        1.49959564       4.43622184       7.37408175      -0.67500000
P        4.42953618       4.42953603      10.31747265      -0.67500000
In       0.02896819       0.02896806       5.88109751       0.67500000
In       2.95455447       0.01123223       8.85561220       0.67500000
In       0.01123241       2.95455428       8.85561216       0.67500000
In       3.12459941       3.12459931       5.86163086       0.67500000
P        1.49959564       7.37408187       4.43622176      -0.67500000
P        4.43622195       7.37408192       1.49959554      -0.67500000
P        1.49728600      10.35240362       1.49728580      -0.67500000
P        4.42953618      10.31747283       4.42953595      -0.67500000
In       0.02896819       5.88109761       0.02896805       0.67500000
In       3.12459943       5.86163094       3.12459928       0.67500000
In       0.01123242       8.85561231       2.95455422       0.67500000
In       2.95455447       8.85561235       0.01123224       0.67500000
P        1.48290825       7.37373172      10.32193812      -0.67500000
P        4.53670921       7.21363721       7.21363708      -0.67500000
P        1.48290825      10.32193829       7.37373160      -0.67500000
P        4.44105102      10.31460482      10.31460465      -0.67500000
In       0.00242516       5.90278191       5.90278181       0.67500000
In       2.99857023       5.95835428       8.80601413       0.67500000
In      -0.01666376       8.83826234       8.83826220       0.67500000
In       2.99857023       8.80601429       5.95835418       0.67500000
P        7.37408190       1.49959562       4.43622186      -0.67500000
P       10.35240363       1.49728599       1.49728596      -0.67500000
P        7.37408190       4.43622195       1.49959561      -0.67500000
P       10.31747288       4.42953613       4.42953605      -0.67500000
In       5.88109761       0.02896815       0.02896814       0.67500000
In       8.85561236       0.01123237       2.95455439       0.67500000
In       5.86163096       3.12459942       3.12459938       0.67500000
In       8.85561235       2.95455445       0.01123237       0.67500000
P        7.37373189       1.48290807      10.32193824      -0.67500000
P       10.32193841       1.48290812       7.37373176      -0.67500000
P        7.21363743       4.53670907       7.21363727      -0.67500000
P       10.31460501       4.44105084      10.31460480      -0.67500000
In       5.90278203       0.00242505       5.90278191       0.67500000
In       8.83826251      -0.01666395       8.83826235       0.67500000
In       5.95835446       2.99857004       8.80601423       0.67500000
In       8.80601443       2.99857010       5.95835429       0.67500000
P        7.21363748       7.21363745       4.53670901      -0.67500000
P       10.32193841       7.37373188       1.48290808      -0.67500000
P        7.37373189      10.32193842       1.48290803      -0.67500000
P       10.31460504      10.31460499       4.44105075      -0.67500000
In       5.90278203       5.90278201       0.00242506       0.67500000
In       8.80601444       5.95835440       2.99857005       0.67500000
In       5.95835447       8.80601439       2.99856999       0.67500000
In       8.83826251       8.83826249      -0.01666396       0.67500000
P        7.36173890       7.36173875      10.28773696      -0.67500000
P       10.28773726       7.36173881       7.36173869      -0.67500000
P        7.36173890      10.28773714       7.36173863      -0.67500000
P       10.32593659      10.32593642      10.32593625      -0.67500000
In       8.76927110       5.82029241       8.76927083       0.67500000
In       5.82029256       8.76927085       8.76927069       0.67500000
In       8.76927114       8.76927102       5.82029232       0.67500000
63
Lattice="11.8016818 -7.6e-06 -7.6e-06 -7.6e-06 11.8016818 -7.8e-06 -7.6e-06 -7.8e-06 11.8016816" Properties=species:S:1:pos:R:3:mulliken_charges:R:1 virial="-0.001343979365248383 3.847269175329341e-05 3.847269175329341e-05 3.847269175329341e-05 -0.001345261788306826 3.847269175329341e-05 3.847269175329341e-05 3.847269175329341e-05 -0.0013426969421899398" fermi_energy=3.4539138232004998 core_to_fermi_energy=15.43004959127955 config_type=Accurate_Bulk energy=-267.79470684066274 pbc="T T T"
P        1.58061190       1.58061185       4.49102095      -0.67500000
P        4.49102104       1.58061190       1.58061187      -0.67500000
P        1.58061191       4.49102103       1.58061182      -0.67500000
P        4.83867906       4.83867921       4.83867922      -0.67500000
In       0.00586434       0.00586432       0.00586432       0.67500000
In       2.97510274       0.05605399       2.97510266       0.67500000
In       0.05605406       2.97510267       2.97510262       0.67500000
In       2.97510274       2.97510272       0.05605399       0.67500000
P        1.49849835       1.49849818      10.35296829      -0.67500000
P        4.43251414       1.50360495       7.36562323      -0.67500000
P        1.50360503       4.43251402       7.36562318      -0.67500000
P        4.42768640       4.42768625      10.31643953      -0.67500000
In       0.03147142       0.03147129       5.87551273       0.67500000
In       2.95500959       0.01113111       8.85254884       0.67500000
In       0.01113129       2.95500940       8.85254881       0.67500000
In       3.16508956       3.16508946       5.85187126       0.67500000
P        1.50360504       7.36562330       4.43251394      -0.67500000
P        4.43251414       7.36562335       1.50360495      -0.67500000
P        1.49849836      10.35296847       1.49849814      -0.67500000
P        4.42768640      10.31643971       4.42768617      -0.67500000
In       0.03147141       5.87551282       0.03147127       0.67500000
In       3.16508958       5.85187133       3.16508944       0.67500000
In       0.01113130       8.85254895       2.95500934       0.67500000
In       2.95500960       8.85254898       0.01113112       0.67500000
P        1.48248594       7.37058701      10.31895521      -0.67500000
P        4.53602155       7.18602053       7.18602040      -0.67500000
P        1.48248593      10.31895538       7.37058689      -0.67500000
P        4.44346453      10.30774813      10.30774796      -0.67500000
In       0.00237318       5.90096762       5.90096752       0.67500000
In       2.99740519       5.95308493       8.80015527       0.67500000
In      -0.02084229       8.83432496       8.83432481       0.67500000
In       2.99740519       8.80015541       5.95308482       0.67500000
P        7.36562332       1.50360504       4.43251405      -0.67500000
P       10.35296848       1.49849834       1.49849831      -0.67500000
P        7.36562332       4.43251413       1.50360503      -0.67500000
P       10.31643976       4.42768634       4.42768626      -0.67500000
In       5.87551281       0.03147136       0.03147136       0.67500000
In       8.85254900       0.01113126       2.95500951       0.67500000
In       5.85187131       3.16508959       3.16508955       0.67500000
In       8.85254899       2.95500958       0.01113126       0.67500000
P        7.37058718       1.48248575      10.31895534      -0.67500000
P       10.31895550       1.48248580       7.37058705      -0.67500000
P        7.18602082       4.53602141       7.18602066      -0.67500000
P       10.30774834       4.44346434      10.30774813      -0.67500000
In       5.90096774       0.00237307       5.90096762       0.67500000
In       8.83432512      -0.02084248       8.83432496       0.67500000
In       5.95308512       2.99740500       8.80015537       0.67500000
In       8.80015557       2.99740506       5.95308494       0.67500000
P        7.18602090       7.18602087       4.53602134      -0.67500000
P       10.31895551       7.37058718       1.48248576      -0.67500000
P        7.37058719      10.31895552       1.48248571      -0.67500000
P       10.30774838      10.30774833       4.44346425      -0.67500000
In       5.90096774       5.90096772       0.00237308       0.67500000
In       8.80015558       5.95308506       2.99740500       0.67500000
In       5.95308513       8.80015554       2.99740494       0.67500000
In       8.83432512       8.83432511      -0.02084249       0.67500000
P        7.35666399       7.35666385      10.27995514      -0.67500000
P       10.27995545       7.35666391       7.35666379      -0.67500000
P        7.35666400      10.27995533       7.35666373      -0.67500000
P       10.32413271      10.32413255      10.32413237      -0.67500000
In       8.75128102       5.81278994       8.75128075       0.67500000
In       5.81279008       8.75128072       8.75128057       0.67500000
In       8.75128107       8.75128096       5.81278986       0.67500000
63
Lattice="11.8016818 -7.6e-06 -7.6e-06 -7.6e-06 11.8016818 -7.8e-06 -7.6e-06 -7.8e-06 11.8016816" Properties=species:S:1:pos:R:3:mulliken_charges:R:1 virial="-0.001343979365248383 3.847269175329341e-05 3.847269175329341e-05 3.847269175329341e-05 -0.001345261788306826 3.847269175329341e-05 3.847269175329341e-05 3.847269175329341e-05 -0.0013426969421899398" fermi_energy=3.4539138232004998 core_to_fermi_energy=15.43004959127955 config_type=Accurate_Bulk energy=-267.64923755675363 pbc="T T T"
P        1.59075270       1.59075265       4.49644631      -0.67500000
P        4.49644638       1.59075267       1.59075264      -0.67500000
P        1.59075270       4.49644638       1.59075261      -0.67500000
P        4.94440433       4.94440467       4.94440475      -0.67500000
In       0.00536108       0.00536106       0.00536106       0.67500000
In       2.97562685       0.06046200       2.97562678       0.67500000
In       0.06046208       2.97562678       2.97562673       0.67500000
In       2.97562685       2.97562683       0.06046200       0.67500000
P        1.49895122       1.49895105      10.35216671      -0.67500000
P        4.42864693       1.50900362       7.35630099      -0.67500000
P        1.50900369       4.42864680       7.35630094      -0.67500000
P        4.42695597       4.42695582      10.31501029      -0.67500000
In       0.03210730       0.03210717       5.87242028       0.67500000
In       2.95647347       0.01162714       8.84911556       0.67500000
In       0.01162732       2.95647327       8.84911552       0.67500000
In       3.20327557       3.20327548       5.83767653       0.67500000
P        1.50900370       7.35630105       4.42864672      -0.67500000
P        4.42864693       7.35630110       1.50900362      -0.67500000
P        1.49895123      10.35216689       1.49895102      -0.67500000
P        4.42695597      10.31501046       4.42695574      -0.67500000
In       0.03210729       5.87242037       0.03210714       0.67500000
In       3.20327560       5.83767659       3.20327546       0.67500000
In       0.01162733       8.84911567       2.95647321       0.67500000
In       2.95647348       8.84911570       0.01162715       0.67500000
P        1.48343807       7.36802073      10.31563992      -0.67500000
P        4.53661377       7.15376601       7.15376589      -0.67500000
P        1.48343807      10.31564009       7.36802060      -0.67500000
P        4.44599292      10.30070377      10.30070360      -0.67500000
In       0.00329778       5.89968181       5.89968171       0.67500000
In       2.99721736       5.94723445       8.79367245       0.67500000
In      -0.02369461       8.83146040       8.83146026       0.67500000
In       2.99721736       8.79367260       5.94723434       0.67500000
P        7.35630107       1.50900371       4.42864683      -0.67500000
P       10.35216690       1.49895122       1.49895118      -0.67500000
P        7.35630107       4.42864692       1.50900370      -0.67500000
P       10.31501051       4.42695591       4.42695584      -0.67500000
In       5.87242036       0.03210722       0.03210721       0.67500000
In       8.84911571       0.01162730       2.95647339       0.67500000
In       5.83767654       3.20327560       3.20327556       0.67500000
In       8.84911571       2.95647346       0.01162730       0.67500000
P        7.36802091       1.48343787      10.31564006      -0.67500000
P       10.31564021       1.48343793       7.36802076      -0.67500000
P        7.15376640       4.53661364       7.15376626      -0.67500000
P       10.30070401       4.44599272      10.30070380      -0.67500000
In       5.89968193       0.00329768       5.89968181       0.67500000
In       8.83146057      -0.02369481       8.83146040       0.67500000
In       5.94723465       2.99721716       8.79367258       0.67500000
In       8.79367275       2.99721723       5.94723447       0.67500000
P        7.15376653       7.15376651       4.53661357      -0.67500000
P       10.31564023       7.36802090       1.48343788      -0.67500000
P        7.36802091      10.31564024       1.48343783      -0.67500000
P       10.30070405      10.30070401       4.44599263      -0.67500000
In       5.89968193       5.89968191       0.00329769       0.67500000
In       8.79367278       5.94723459       2.99721717       0.67500000
In       5.94723466       8.79367274       2.99721710       0.67500000
In       8.83146056       8.83146055      -0.02369482       0.67500000
P        7.35259000       7.35258986      10.27366907      -0.67500000
P       10.27366939       7.35258992       7.35258981      -0.67500000
P        7.35259000      10.27366926       7.35258975      -0.67500000
P       10.32285954      10.32285937      10.32285919      -0.67500000
In       8.73390693       5.80814026       8.73390667       0.67500000
In       5.80814040       8.73390659       8.73390644       0.67500000
In       8.73390701       8.73390689       5.80814018       0.67500000
63