65
Lattice="11.801682 -8e-06 -8e-06 -8e-06 11.801682 -8e-06 -8e-06 -8e-06 11.801682" Properties=species:S:1:pos:R:3:mulliken_charges:R:1:hirshfeld_charges:R:1 fermi_energy=3.718544537463 core_to_fermi_energy=15.690571930710242 config_type=Interstitial energy=-276.17543419768714 pbc="T T T"
P        1.40648512       1.38994616       4.39846034      -0.64200000      -0.23000000
P        4.43729753       1.36322694       1.36322694      -0.45200000      -0.16000000
P        1.40648512       4.39846034       1.38994616      -0.64200000      -0.23000000
P        3.84259067       5.16251183       5.16251183      -0.66200000      -0.24000000
P        1.46877653       1.44043739      10.30911133      -0.64200000      -0.23000000
P        4.42494688       1.43955213       7.36629917      -0.67600000      -0.24000000
P        1.40648419       4.40739531       7.41591004      -0.67400000      -0.24000000
P        4.40782137       4.40292318      10.30376742      -0.67200000      -0.23000000
P        1.40648419       7.41591004       4.40739531      -0.67400000      -0.24000000
P        4.42494688       7.36629917       1.43955213      -0.67600000      -0.24000000
P        1.46877653      10.30911133       1.44043739      -0.64200000      -0.23000000
P        4.40782137      10.30376742       4.40292318      -0.67200000      -0.23000000
P        1.46876872       7.36541324      10.29842984      -0.67400000      -0.24000000
P        4.43728732       7.44264589       7.44264589      -0.68100000      -0.24000000
P        1.46876872      10.29842984       7.36541324      -0.67400000      -0.24000000
P        4.41534373      10.30376900      10.30376900      -0.66200000      -0.24000000
P        7.40607054       1.42469099       4.43132814      -0.67600000      -0.24000000
P       10.31671051       1.44613159       1.44613159      -0.67700000      -0.24000000
P        7.40607054       4.43132814       1.42469099      -0.67600000      -0.24000000
P       10.33717274       4.40292192       4.40292192      -0.67400000      -0.24000000
P        7.38176312       1.45736508      10.29015221      -0.67600000      -0.24000000
P       10.32130211       1.44582339       7.36002045      -0.68000000      -0.24000000
P        7.40606421       4.37452150       7.38115687      -0.67500000      -0.24000000
P       10.31136558       4.40291571      10.30376180      -0.67600000      -0.24000000
P        7.40606421       7.38115687       4.37452150      -0.67500000      -0.24000000
P       10.32130211       7.36002045       1.44582339      -0.68000000      -0.24000000
P        7.38176312      10.29015221       1.45736508      -0.67600000      -0.24000000
P       10.31136558      10.30376180       4.40291571      -0.67600000      -0.24000000
P        7.38176362       7.34847609      10.31737916      -0.67500000      -0.24000000
P       10.31670367       7.35971103       7.35971103      -0.67500000      -0.24000000
P        7.38176362      10.31737916       7.34847609      -0.67500000      -0.24000000
P       10.31733690      10.30376023      10.30376023      -0.67400000      -0.24000000
In      -0.01079823      -0.02545416      -0.02545416       0.67600000       0.24000000
In       2.94610946      -0.02676888       2.91676278       0.73400000       0.26000000
In      -0.01448458       2.91955324       2.91955324       0.67600000       0.24000000
In       2.94610946       2.91676278      -0.02676888       0.73400000       0.26000000
In      -0.03044227      -0.05670179       5.90229040       0.65600000       0.23000000
In       2.94437417      -0.02711939       8.83297798       0.68200000       0.25000000
In      -0.03044294       2.90356840       8.86256148       0.65600000       0.23000000
In       2.80436551       2.80633154       5.99952170       0.68200000       0.25000000
In      -0.03044227       5.90229040      -0.05670179       0.65600000       0.23000000
In       2.80436551       5.99952170       2.80633154       0.68200000       0.25000000
In      -0.03044294       8.86256148       2.90356840       0.65600000       0.23000000
In       2.94437417       8.83297798      -0.02711939       0.68200000       0.25000000
In      -0.01448651       5.88630684       5.88630684       0.68000000       0.24000000
In       2.94609923       5.88909833       8.83263086       0.68600000       0.24000000
In      -0.01081357       8.83131607       8.83131607       0.68000000       0.24000000
In       2.94609923       8.83263086       5.88909833       0.68600000       0.24000000
In       5.94560325      -0.06790745      -0.06790745       0.63300000       0.22000000
In       8.85398884      -0.03139173       2.92407430       0.68600000       0.24000000
In       6.07656219       2.78804434       2.78804434       0.63300000       0.22000000
In       8.85398884       2.92407430      -0.03139173       0.68600000       0.24000000
In       5.88415582      -0.03184397       5.87588488       0.68700000       0.24000000
In       8.85042580      -0.02114754       8.82699956       0.67800000       0.24000000
In       5.88414937       2.92996989       8.83769623       0.68700000       0.24000000
In       8.87174847       2.93006521       5.87578549       0.67800000       0.24000000
In       5.88415582       5.87588488      -0.03184397       0.68700000       0.24000000
In       8.87174847       5.87578549       2.93006521       0.67800000       0.24000000
In       5.88414937       8.83769623       2.92996989       0.68700000       0.24000000
In       8.85042580       8.82699956      -0.02114754       0.67800000       0.24000000
In       6.07655941       6.01782835       6.01782835       0.66100000       0.23000000
In       8.85398251       5.88177327       8.83724024       0.67900000       0.24000000
In       5.94559804       8.87377670       8.87377670       0.66100000       0.23000000
In       8.85398251       8.83724024       5.88177327       0.67900000       0.24000000
P        3.84261776       3.64340237       3.64340237      -0.45200000      -0.16000000
65
Lattice="11.801682 -8e-06 -8e-06 -8e-06 11.801682 -8e-06 -8e-06 -8e-06 11.801682" Properties=species:S:1:pos:R:3:mulliken_charges:R:1:hirshfeld_charges:R:1 fermi_energy=3.718544537463 core_to_fermi_energy=15.690571930710242 config_type=Interstitial energy=-276.16907952464436 pbc="T T T"
P        1.41155310       1.34073277       4.34479713      -0.64200000      -0.23000000
P        4.43440765       1.28209617       1.28093756      -0.45200000      -0.16000000
P        1.41155310       4.34595573       1.33957417      -0.64200000      -0.23000000
P        3.88882949       5.01972660       5.01856800      -0.66200000      -0.24000000
P        1.46311914       1.38567952      10.25080730      -0.64200000      -0.23000000
P        4.42244897       1.38907536       7.31146930      -0.67600000      -0.24000000
P        1.40388567       4.35858538       7.36081438      -0.67400000      -0.24000000
P        4.40677420       4.34742495      10.25008014      -0.67200000      -0.23000000
P        1.40388567       7.36197299       4.35742678      -0.67400000      -0.24000000
P        4.42244897       7.31262790       1.38791676      -0.67600000      -0.24000000
P        1.46311914      10.25196591       1.38452092      -0.64200000      -0.23000000
P        4.40677420      10.25123874       4.34626634      -0.67200000      -0.23000000
P        1.46956718       7.31037029      10.24312618      -0.67400000      -0.24000000
P        4.43549009       7.36778210       7.36662350      -0.68100000      -0.24000000
P        1.46956718      10.24428479       7.30921169      -0.67400000      -0.24000000
P        4.41182677      10.23862072      10.23746211      -0.66200000      -0.24000000
P        7.40851323       1.36656872       4.37475208      -0.67600000      -0.24000000
P       10.31833637       1.39317487       1.39201627      -0.67700000      -0.24000000
P        7.40851323       4.37591068       1.36541011      -0.67600000      -0.24000000
P       10.33554631       4.35019153       4.34903293      -0.67400000      -0.24000000
P        7.38604147       1.40279026      10.23065828      -0.67600000      -0.24000000
P       10.32078122       1.39419977       7.30462939      -0.68000000      -0.24000000
P        7.40580871       4.32089300       7.32654796      -0.67500000      -0.24000000
P       10.31298731       4.35515963      10.24984870      -0.67600000      -0.24000000
P        7.40580871       7.32770657       4.31973440      -0.67500000      -0.24000000
P       10.32078122       7.30578799       1.39304116      -0.68000000      -0.24000000
P        7.38604147      10.23181688       1.40163166      -0.67600000      -0.24000000
P       10.31298731      10.25100731       4.35400103      -0.67600000      -0.24000000
P        7.37383786       7.29432877      10.26114731      -0.67500000      -0.24000000
P       10.31200474       7.30910525       7.30794664      -0.67500000      -0.24000000
P        7.37383786      10.26230592       7.29317017      -0.67500000      -0.24000000
P       10.31493505      10.24852273      10.24736413      -0.67400000      -0.24000000
In      -0.01400778      -0.08022657      -0.08138517       0.67600000       0.24000000
In       2.94234668      -0.08472833       2.85800844       0.73400000       0.26000000
In      -0.01397079       2.86744066       2.86628205       0.67600000       0.24000000
In       2.94234668       2.85916705      -0.08588694       0.73400000       0.26000000
In      -0.02708028      -0.10548090       5.84843970       0.65600000       0.23000000
In       2.94280861      -0.07989603       8.77670936       0.68200000       0.25000000
In      -0.03273710       2.85435273       8.80672967       0.65600000       0.23000000
In       2.80571906       2.76405304       5.94743408       0.68200000       0.25000000
In      -0.02708028       5.84959830      -0.10663950       0.65600000       0.23000000
In       2.80571906       5.94859268       2.76289443       0.68200000       0.25000000
In      -0.03273710       8.80788828       2.85319413       0.65600000       0.23000000
In       2.94280861       8.77786797      -0.08105463       0.68200000       0.25000000
In      -0.02034248       5.83558089       5.83442229       0.68000000       0.24000000
In       2.94674239       5.83337720       8.77701358       0.68600000       0.24000000
In      -0.00997430       8.77814392       8.77698532       0.68000000       0.24000000
In       2.94674239       8.77817218       5.83221860       0.68600000       0.24000000
In       5.95623174      -0.14116440      -0.14232300       0.63300000       0.22000000
In       8.85863605      -0.08895667       2.86903778       0.68600000       0.24000000
In       6.09141744       2.70305797       2.70189937       0.63300000       0.22000000
In       8.85863605       2.87019639      -0.09011528       0.68600000       0.24000000
In       5.88046729      -0.08260536       5.81992934       0.68700000       0.24000000
In       8.85002538      -0.07780802       8.76687635       0.67800000       0.24000000
In       5.88427642       2.87605281       8.78336505       0.68700000       0.24000000
In       8.86972724       2.87641463       5.82009876       0.67800000       0.24000000
In       5.88046729       5.82108794      -0.08376397       0.68700000       0.24000000
In       8.86972724       5.82125736       2.87525603       0.67800000       0.24000000
In       5.88427642       8.78452366       2.87489421       0.68700000       0.24000000
In       8.85002538       8.76803496      -0.07896663       0.67800000       0.24000000
In       6.07161504       5.94766630       5.94650769       0.66100000       0.23000000
In       8.84977523       5.82998024       8.78446288       0.67900000       0.24000000
In       5.93419078       8.80451970       8.80336109       0.66100000       0.23000000
In       8.84977523       8.78562149       5.82882164       0.67900000       0.24000000
P        3.82432146       3.50219600       3.50103739      -0.45200000      -0.16000000
65
Lattice="11.801682 -8e-06 -8e-06 -8e-06 11.801682 -8e-06 -8e-06 -8e-06 11.801682" Properties=species:S:1:pos:R:3:mulliken_charges:R:1:hirshfeld_charges:R:1 fermi_energy=3.718544537463 core_to_fermi_energy=15.690571930710242 config_type=Interstitial energy=-276.14856096304663 pbc="T T T"
P        1.41549666       1.35211134       4.35201967      -0.64200000      -0.23000000
P        4.42927335       1.25946148       1.25829984      -0.45200000      -0.16000000
P        1.41549666       4.35318131       1.35094970      -0.64200000      -0.23000000
P        3.95121737       4.92150130       4.92033966      -0.66200000      -0.24000000
P        1.45802485       1.39022606      10.25247580      -0.64200000      -0.23000000
P        4.41789493       1.39762777       7.31456168      -0.67600000      -0.24000000
P        1.40360974       4.37047529       7.36408202      -0.67400000      -0.24000000
P        4.40552467       4.35045293      10.25671994      -0.67200000      -0.23000000
P        1.40360974       7.36524366       4.36931365      -0.67400000      -0.24000000
P        4.41789493       7.31572332       1.39646613      -0.67600000      -0.24000000
P        1.45802485      10.25363744       1.38906443      -0.64200000      -0.23000000
P        4.40552467      10.25788157       4.34929130      -0.67200000      -0.23000000
P        1.46888329       7.31565529      10.24885261      -0.67400000      -0.24000000
P        4.43034112       7.35507199       7.35391036      -0.68100000      -0.24000000
P        1.46888329      10.25001424       7.31449365      -0.67400000      -0.24000000
P        4.40901245      10.23493996      10.23377832      -0.66200000      -0.24000000
P        7.41543384       1.36397521       4.37873832      -0.67600000      -0.24000000
P       10.32052875       1.39710749       1.39594586      -0.67700000      -0.24000000
P        7.41543384       4.37989996       1.36281358      -0.67600000      -0.24000000
P       10.33307162       4.35607976       4.35491812      -0.67400000      -0.24000000
P        7.38943849       1.40767895      10.23003872      -0.67600000      -0.24000000
P       10.32008412       1.40018959       7.30928791      -0.68000000      -0.24000000
P        7.40183505       4.32636339       7.32988919      -0.67500000      -0.24000000
P       10.31569238       4.36579981      10.25155403      -0.67600000      -0.24000000
P        7.40183505       7.33105083       4.32520176      -0.67500000      -0.24000000
P       10.32008412       7.31044955       1.39902796      -0.68000000      -0.24000000
P        7.38943849      10.23120036       1.40651731      -0.67600000      -0.24000000
P       10.31569238      10.25271567       4.36463818      -0.67600000      -0.24000000
P        7.36522430       7.29828247      10.26413749      -0.67500000      -0.24000000
P       10.30571038       7.31636630       7.31520467      -0.67500000      -0.24000000
P        7.36522430      10.26529913       7.29712083      -0.67500000      -0.24000000
P       10.31155144      10.25163421      10.25047257      -0.67400000      -0.24000000
In      -0.01616809      -0.07760754      -0.07876918       0.67600000       0.24000000
In       2.93699298      -0.08342412       2.86134539       0.73400000       0.26000000
In      -0.01543043       2.87335869       2.87219705       0.67600000       0.24000000
In       2.93699298       2.86250702      -0.08458576       0.73400000       0.26000000
In      -0.02488835      -0.09668881       5.85360421       0.65600000       0.23000000
In       2.94172673      -0.07347027       8.78085587       0.68200000       0.25000000
In      -0.03252705       2.86330019       8.80784388       0.65600000       0.23000000
In       2.80735690       2.78450024       5.95218630       0.68200000       0.25000000
In      -0.02488835       5.85476584      -0.09785044       0.65600000       0.23000000
In       2.80735690       5.95334794       2.78333860       0.68200000       0.25000000
In      -0.03252705       8.80900552       2.86213856       0.65600000       0.23000000
In       2.94172673       8.78201751      -0.07463190       0.68200000       0.25000000
In      -0.02714282       5.84334745       5.84218582       0.68000000       0.24000000
In       2.94627399       5.83760232       8.78462547       0.68600000       0.24000000
In      -0.01106754       8.78297362       8.78181198       0.68000000       0.24000000
In       2.94627399       8.78578711       5.83644068       0.68600000       0.24000000
In       5.96836899      -0.15328164      -0.15444328       0.63300000       0.22000000
In       8.86626983      -0.09132066       2.87306501       0.68600000       0.24000000
In       6.11830658       2.67314257       2.67198093       0.63300000       0.22000000
In       8.86626983       2.87422664      -0.09248230       0.68600000       0.24000000
In       5.87665029      -0.07436172       5.82339612       0.68700000       0.24000000
In       8.84825017      -0.07629218       8.76653580       0.67800000       0.24000000
In       5.88230720       2.88031204       8.78760863       0.68700000       0.24000000
In       8.86784265       2.88175855       5.82549849       0.67800000       0.24000000
In       5.87665029       5.82455775      -0.07552336       0.68700000       0.24000000
In       8.86784265       5.82666012       2.88059692       0.67800000       0.24000000
In       5.88230720       8.78877026       2.87915040       0.68700000       0.24000000
In       8.84825017       8.76769743      -0.07745382       0.67800000       0.24000000
In       6.06029819       5.94001462       5.93885298       0.66100000       0.23000000
In       8.84325300       5.83568682       8.78945162       0.67900000       0.24000000
In       5.92249718       8.79636534       8.79520370       0.66100000       0.23000000
In       8.84325300       8.79061326       5.83452518       0.67900000       0.24000000
P        3.81920068       3.40848711       3.40732547      -0.45200000      -0.16000000
65
Lattice="11.801682 -8e-06 -8e-06 -8e-06 11.801682 -8e-06 -8e-06 -8e-06 11.801682" Properties=species:S:1:pos:R:3:mulliken_charges:R:1:hirshfeld_charges:R:1 fermi_energy=3.718544537463 core_to_fermi_energy=15.690571930710242 config_type=Interstitial energy=-276.1058726765726 pbc="T T T"
P        1.41456868       1.36659285       4.36482685      -0.64200000      -0.23000000
P        4.41512412       1.23945758       1.23829595      -0.45200000      -0.16000000
P        1.41456868       4.36598848       1.36543122      -0.64200000      -0.23000000
P        4.02960598       4.79496817       4.79380654      -0.66200000      -0.24000000
P        1.45370674       1.39670449      10.25582354      -0.64200000      -0.23000000
P        4.41086136       1.40790857       7.31689283      -0.67600000      -0.24000000
P        1.40563427       4.38481858       7.36681993      -0.67400000      -0.24000000
P        4.40395578       4.35439874      10.26496859      -0.67200000      -0.23000000
P        1.40563427       7.36798156       4.38365694      -0.67400000      -0.24000000
P        4.41086136       7.31805446       1.40674694      -0.67600000      -0.24000000
P        1.45370674      10.25698517       1.39554286      -0.64200000      -0.23000000
P        4.40395578      10.26613022       4.35323711      -0.67200000      -0.23000000
P        1.46819389       7.32410910      10.25552751      -0.67400000      -0.24000000
P        4.42315090       7.34233419       7.34117256      -0.68100000      -0.24000000
P        1.46819389      10.25668914       7.32294747      -0.67400000      -0.24000000
P        4.40834097      10.23656971      10.23540808      -0.66200000      -0.24000000
P        7.43215953       1.35642700       4.38854944      -0.67600000      -0.24000000
P       10.32393916       1.40040457       1.39924293      -0.67700000      -0.24000000
P        7.43215953       4.38971108       1.35526537      -0.67600000      -0.24000000
P       10.32964718       4.36376602       4.36260438      -0.67400000      -0.24000000
P        7.39062379       1.41482545      10.23109561      -0.67600000      -0.24000000
P       10.31872233       1.40478886       7.31824612      -0.68000000      -0.24000000
P        7.39092044       4.33375139       7.32971995      -0.67500000      -0.24000000
P       10.31853369       4.37897380      10.24795937      -0.67600000      -0.24000000
P        7.39092044       7.33088158       4.33258975      -0.67500000      -0.24000000
P       10.31872233       7.31940775       1.40362723      -0.68000000      -0.24000000
P        7.39062379      10.23225724       1.41366382      -0.67600000      -0.24000000
P       10.31853369      10.24912100       4.37781217      -0.67600000      -0.24000000
P        7.35437967       7.30351082      10.26641031      -0.67500000      -0.24000000
P       10.29719096       7.32368050       7.32251887      -0.67500000      -0.24000000
P        7.35437967      10.26757195       7.30234919      -0.67500000      -0.24000000
P       10.30697868      10.25534546      10.25418383      -0.67400000      -0.24000000
In      -0.01734339      -0.07530892      -0.07647055       0.67600000       0.24000000
In       2.92624658      -0.07976522       2.87264865       0.73400000       0.26000000
In      -0.01899427       2.88043885       2.87927722       0.67600000       0.24000000
In       2.92624658       2.87381028      -0.08092685       0.73400000       0.26000000
In      -0.02554323      -0.09013202       5.86174702       0.65600000       0.23000000
In       2.94164206      -0.06566073       8.78727132       0.68200000       0.25000000
In      -0.02989933       2.87273708       8.80794104       0.65600000       0.23000000
In       2.80928759       2.81034144       5.95365962       0.68200000       0.25000000
In      -0.02554323       5.86290865      -0.09129365       0.65600000       0.23000000
In       2.80928759       5.95482125       2.80917981       0.68200000       0.25000000
In      -0.02989933       8.80910267       2.87157545       0.65600000       0.23000000
In       2.94164206       8.78843295      -0.06682236       0.68200000       0.25000000
In      -0.03429793       5.85227935       5.85111772       0.68000000       0.24000000
In       2.94548927       5.84367359       8.79502670       0.68600000       0.24000000
In      -0.01412511       8.78792378       8.78676215       0.68000000       0.24000000
In       2.94548927       8.79618833       5.84251195       0.68600000       0.24000000
In       5.97954817      -0.15747822      -0.15863985       0.63300000       0.22000000
In       8.87889231      -0.09769479       2.87732087       0.68600000       0.24000000
In       6.17342592       2.64163901       2.64047738       0.63300000       0.22000000
In       8.87889231       2.87848250      -0.09885642       0.68600000       0.24000000
In       5.87211145      -0.06500306       5.82815752       0.68700000       0.24000000
In       8.84264035      -0.07507496       8.76893183       0.67800000       0.24000000
In       5.87827126       2.88505618       8.79161305       0.68700000       0.24000000
In       8.86819257       2.88889911       5.83609611       0.67800000       0.24000000
In       5.87211145       5.82931915      -0.06616469       0.68700000       0.24000000
In       8.86819257       5.83725775       2.88773748       0.67800000       0.24000000
In       5.87827126       8.79277468       2.88389455       0.68700000       0.24000000
In       8.84264035       8.77009346      -0.07623659       0.67800000       0.24000000
In       6.03237486       5.92592876       5.92476713       0.66100000       0.23000000
In       8.83138662       5.84157446       8.79119143       0.67900000       0.24000000
In       5.90722329       8.79027685       8.78911522       0.66100000       0.23000000
In       8.83138662       8.79235306       5.84041283       0.67900000       0.24000000
P        3.83912574       3.28736118       3.28619955      -0.45200000      -0.16000000
65
Lattice="11.801682 -8e-06 -8e-06 -8e-06 11.801682 -8e-06 -8e-06 -8e-06 11.801682" Properties=species:S:1:pos:R:3:mulliken_charges:R:1:hirshfeld_charges:R:1 fermi_energy=3.718544537463 core_to_fermi_energy=15.690571930710242 config_type=Interstitial energy=-276.0314732581259 pbc="T T T"
P        1.40340588       1.37911875       4.38254112      -0.64200000      -0.23000000
P        4.37060008       1.24475103       1.24358940      -0.45200000      -0.16000000
P        1.40340588       4.38370275       1.37795712      -0.64200000      -0.23000000
P        4.08524929       4.66787446       4.66671283      -0.66200000      -0.24000000
P        1.45105799       1.40188964      10.25850820      -0.64200000      -0.23000000
P        4.40390331       1.41612474       7.31821519      -0.67600000      -0.24000000
P        1.40915768       4.39593599       7.36789750      -0.67400000      -0.24000000
P        4.40217923       4.35790973      10.27069669      -0.67200000      -0.23000000
P        1.40915768       7.36905913       4.39477436      -0.67400000      -0.24000000
P        4.40390331       7.31937682       1.41496312      -0.67600000      -0.24000000
P        1.45105799      10.25966983       1.40072801      -0.64200000      -0.23000000
P        4.40217923      10.27185832       4.35674810      -0.67200000      -0.23000000
P        1.46953881       7.33269326      10.25907887      -0.67400000      -0.24000000
P        4.41948914       7.32976332       7.32860169      -0.68100000      -0.24000000
P        1.46953881      10.26024050       7.33153163      -0.67400000      -0.24000000
P        4.41357055      10.24828010      10.24711847      -0.66200000      -0.24000000
P        7.46386914       1.33964629       4.41055726      -0.67600000      -0.24000000
P       10.32791936       1.40138546       1.40022383      -0.67700000      -0.24000000
P        7.46386914       4.41171889       1.33848466      -0.67600000      -0.24000000
P       10.32688423       4.37118787       4.37002624      -0.67400000      -0.24000000
P        7.38524122       1.42134077      10.23723298      -0.67600000      -0.24000000
P       10.31690703       1.40463454       7.33165219      -0.68000000      -0.24000000
P        7.37399599       4.34168313       7.32338842      -0.67500000      -0.24000000
P       10.32000626       4.39086513      10.23847976      -0.67600000      -0.24000000
P        7.37399599       7.32455005       4.34052150      -0.67500000      -0.24000000
P       10.31690703       7.33281382       1.40347291      -0.68000000      -0.24000000
P        7.38524122      10.23839461       1.42017914      -0.67600000      -0.24000000
P       10.32000626      10.23964139       4.38970351      -0.67600000      -0.24000000
P        7.34413138       7.30940832      10.26605408      -0.67500000      -0.24000000
P       10.28957708       7.32828893       7.32712730      -0.67500000      -0.24000000
P        7.34413138      10.26721571       7.30824669      -0.67500000      -0.24000000
P       10.30214367      10.25801949      10.25685786      -0.67400000      -0.24000000
In      -0.01773002      -0.07478111      -0.07594274       0.67600000       0.24000000
In       2.90448681      -0.07723951       2.89694615       0.73400000       0.26000000
In      -0.02398407       2.88634155       2.88517992       0.67600000       0.24000000
In       2.90448681       2.89810777      -0.07840114       0.73400000       0.26000000
In      -0.03054343      -0.09038236       5.87253583       0.65600000       0.23000000
In       2.94381960      -0.06063659       8.79421353       0.68200000       0.25000000
In      -0.02601288       2.87921017       8.80716091       0.65600000       0.23000000
In       2.80947353       2.83004882       5.95012347       0.68200000       0.25000000
In      -0.03054343       5.87369746      -0.09154399       0.65600000       0.23000000
In       2.80947353       5.95128510       2.82888719       0.68200000       0.25000000
In      -0.02601288       8.80832254       2.87804854       0.65600000       0.23000000
In       2.94381960       8.79537516      -0.06179822       0.68200000       0.25000000
In      -0.03840308       5.85920852       5.85804689       0.68000000       0.24000000
In       2.94603723       5.84936740       8.80131973       0.68600000       0.24000000
In      -0.01768292       8.79114172       8.78998009       0.68000000       0.24000000
In       2.94603723       8.80248136       5.84820577       0.68600000       0.24000000
In       5.97555110      -0.13643739      -0.13759902       0.63300000       0.22000000
In       8.89403721      -0.10842024       2.87879737       0.68600000       0.24000000
In       6.27761392       2.63189229       2.63073066       0.63300000       0.22000000
In       8.89403721       2.87995900      -0.10958187       0.68600000       0.24000000
In       5.86679914      -0.05934250       5.83378856       0.68700000       0.24000000
In       8.83198824      -0.07470108       8.77594559       0.67800000       0.24000000
In       5.87443554       2.88864346       8.79366080       0.68700000       0.24000000
In       8.87412117       2.89689835       5.85259584       0.67800000       0.24000000
In       5.86679914       5.83495019      -0.06050413       0.68700000       0.24000000
In       8.87412117       5.85375746       2.89573672       0.67800000       0.24000000
In       5.87443554       8.79482243       2.88748183       0.68700000       0.24000000
In       8.83198824       8.77710722      -0.07586271       0.67800000       0.24000000
In       5.98587106       5.89634536       5.89518373       0.66100000       0.23000000
In       8.81651051       5.84600471       8.78749831       0.67900000       0.24000000
In       5.89079188       8.78887567       8.78771404       0.66100000       0.23000000
In       8.81651051       8.78865994       5.84484308       0.67900000       0.24000000