65
Lattice="11.801682 -8e-06 -8e-06 -8e-06 11.801682 -8e-06 -8e-06 -8e-06 11.801682" Properties=species:S:1:pos:R:3:mulliken_charges:R:1:hirshfeld_charges:R:1 fermi_energy=3.718544537463 core_to_fermi_energy=15.690571930710242 config_type=Interstitial energy=-276.17543419768344 pbc="T T T"
P        1.40648819       1.45697681       4.46549154      -0.64200000      -0.23000000
P        3.84259467       2.21209331       2.21209331      -0.45200000      -0.16000000
P        1.40648819       4.46549154       1.45697681      -0.64200000      -0.23000000
P        4.43729132       4.49222739       4.49222739      -0.66200000      -0.24000000
P        1.40648113       1.44803384      10.24120966      -0.64200000      -0.23000000
P        4.40782537       1.45250468       7.35334892      -0.67600000      -0.24000000
P        1.46877272       4.41499474       7.34801134      -0.67400000      -0.24000000
P        4.42494288       4.41587267      10.29081563      -0.67200000      -0.23000000
P        1.46877272       7.34801134       4.41499474      -0.67400000      -0.24000000
P        4.40782537       7.35334892       1.45250468      -0.67600000      -0.24000000
P        1.40648113      10.24120966       1.44803384      -0.64200000      -0.23000000
P        4.42494288      10.29081563       4.41587267      -0.67200000      -0.23000000
P        1.46877253       7.35868483      10.29170089      -0.67400000      -0.24000000
P        4.41534773       7.35335049       7.35335049      -0.68100000      -0.24000000
P        1.46877253      10.29170089       7.35868483      -0.67400000      -0.24000000
P        4.43728553      10.21448244      10.21448244      -0.66200000      -0.24000000
P        7.40606821       1.42410300       4.43073837      -0.67600000      -0.24000000
P       10.33717674       1.45250342       1.45250342      -0.67700000      -0.24000000
P        7.40606821       4.43073837       1.42410300      -0.67600000      -0.24000000
P       10.31670767       4.40929253       4.40929253      -0.67400000      -0.24000000
P        7.40606654       1.48090164      10.27595449      -0.67600000      -0.24000000
P       10.31136958       1.45249721       7.35334330      -0.68000000      -0.24000000
P        7.38176762       4.39805759       7.36696066      -0.67500000      -0.24000000
P       10.32129811       4.40959395      10.29708689      -0.67600000      -0.24000000
P        7.38176762       7.36696066       4.39805759      -0.67500000      -0.24000000
P       10.31136958       7.35334330       1.45249721      -0.68000000      -0.24000000
P        7.40606654      10.27595449       1.48090164      -0.67600000      -0.24000000
P       10.32129811      10.29708689       4.40959395      -0.67600000      -0.24000000
P        7.38175912       7.33972571      10.30862858      -0.67500000      -0.24000000
P       10.31734090       7.35334173       7.35334173      -0.67500000      -0.24000000
P        7.38175912      10.30862858       7.33972571      -0.67500000      -0.24000000
P       10.31669851      10.29738710      10.29738710      -0.67400000      -0.24000000
In      -0.01448058      -0.03086526      -0.03086526       0.67600000       0.24000000
In       2.80436951      -0.14408696       3.04910320       0.73400000       0.26000000
In      -0.01448251       2.93588834       2.93588834       0.67600000       0.24000000
In       2.80436951       3.04910320      -0.14408696       0.73400000       0.26000000
In      -0.03043894      -0.04685010       5.91214298       0.65600000       0.23000000
In       2.94610545      -0.03366372       8.82449462       0.68200000       0.25000000
In      -0.03044627       2.95186390       8.79456171       0.65600000       0.23000000
In       2.94610323       2.93867983       5.88221236       0.68200000       0.25000000
In      -0.03043894       5.91214298      -0.04685010       0.65600000       0.23000000
In       2.94610323       5.88221236       2.93867983       0.68200000       0.25000000
In      -0.03044627       8.79456171       2.95186390       0.65600000       0.23000000
In       2.94610545       8.82449462      -0.03366372       0.68200000       0.25000000
In      -0.01080957       5.88089757       5.88089757       0.68000000       0.24000000
In       2.94437017       5.88255148       8.82414411       0.68600000       0.24000000
In      -0.01081023       8.82580134       8.82580134       0.68000000       0.24000000
In       2.94437017       8.82414411       5.88255148       0.68600000       0.24000000
In       6.07656619      -0.16237416      -0.16237416       0.63300000       0.22000000
In       8.87175247      -0.02035328       2.92536699       0.68600000       0.24000000
In       6.07656341       3.06740985       3.06740985       0.63300000       0.22000000
In       8.87175247       2.92536699      -0.02035328       0.68600000       0.24000000
In       5.88415337      -0.02044861       5.88727774       0.68700000       0.24000000
In       8.85398484      -0.02635220       8.81987177       0.67800000       0.24000000
In       5.88415182       2.92545838       8.81941954       0.68700000       0.24000000
In       8.85398651       2.93135477       5.88682174       0.67800000       0.24000000
In       5.88415337       5.88727774      -0.02044861       0.68700000       0.24000000
In       8.85398651       5.88682174       2.93135477       0.67800000       0.24000000
In       5.88415182       8.81941954       2.92545838       0.68700000       0.24000000
In       8.85398484       8.81987177      -0.02635220       0.67800000       0.24000000
In       5.94560204       5.92335819       5.92335819       0.66100000       0.23000000
In       8.85042180       5.87657306       8.83011596       0.67900000       0.24000000
In       5.94559125       8.78334805       8.78334805       0.66100000       0.23000000
In       8.85042180       8.83011596       5.87657306       0.67900000       0.24000000
P        3.84262175       0.69298386       0.69298386      -0.45200000      -0.16000000
65
Lattice="11.801682 -8e-06 -8e-06 -8e-06 11.801682 -8e-06 -8e-06 -8e-06 11.801682" Properties=species:S:1:pos:R:3:mulliken_charges:R:1:hirshfeld_charges:R:1 fermi_energy=3.718544537463 core_to_fermi_energy=15.690571930710242 config_type=Interstitial energy=-276.16742097993875 pbc="T T T"
P        1.40071567       1.46963666       4.47483620      -0.64200000      -0.23000000
P        3.89714388       2.11492530       2.12226362      -0.45200000      -0.16000000
P        1.40420464       4.47006718       1.46845033      -0.64200000      -0.23000000
P        4.43751728       4.47465980       4.47480593      -0.66200000      -0.24000000
P        1.41513390       1.45393417      10.25082976      -0.64200000      -0.23000000
P        4.40768777       1.45558139       7.35862501      -0.67600000      -0.24000000
P        1.46949581       4.41844628       7.35357713      -0.67400000      -0.24000000
P        4.42345532       4.42087756      10.30046168      -0.67200000      -0.23000000
P        1.47015329       7.35314715       4.41609185      -0.67400000      -0.24000000
P        4.40781044       7.35910719       1.45508789      -0.67600000      -0.24000000
P        1.41763908      10.25445263       1.45444206      -0.64200000      -0.23000000
P        4.42305465      10.29933599       4.42336572      -0.67200000      -0.23000000
P        1.46200402       7.35837192      10.29524110      -0.67400000      -0.24000000
P        4.41252613       7.34304682       7.34423417      -0.68100000      -0.24000000
P        1.46042483      10.29320046       7.35818511      -0.67400000      -0.24000000
P        4.43129194      10.18597197      10.18429697      -0.66200000      -0.24000000
P        7.40928352       1.43025367       4.43812000      -0.67600000      -0.24000000
P       10.33600654       1.45745823       1.45712234      -0.67700000      -0.24000000
P        7.40842382       4.43707708       1.43088559      -0.67600000      -0.24000000
P       10.31346533       4.41875146       4.41726843      -0.67400000      -0.24000000
P        7.40291737       1.48333008      10.27889858      -0.67600000      -0.24000000
P       10.31217964       1.46255764       7.36365176      -0.68000000      -0.24000000
P        7.37601451       4.40292374       7.37140477      -0.67500000      -0.24000000
P       10.32087479       4.41207429      10.30624805      -0.67600000      -0.24000000
P        7.37562333       7.37211830       4.40094502      -0.67500000      -0.24000000
P       10.31394878       7.36383645       1.46148733      -0.68000000      -0.24000000
P        7.40160446      10.28060514       1.48186615      -0.67600000      -0.24000000
P       10.32062743      10.30548907       4.41029713      -0.67600000      -0.24000000
P        7.38749849       7.33984962      10.31270699      -0.67500000      -0.24000000
P       10.31572923       7.35642974       7.35603366      -0.67500000      -0.24000000
P        7.38802855      10.31165059       7.33975741      -0.67500000      -0.24000000
P       10.31784940      10.30396249      10.30437428      -0.67400000      -0.24000000
In      -0.01153889      -0.02439641      -0.02491024       0.67600000       0.24000000
In       2.80502318      -0.12317052       3.06516870       0.73400000       0.26000000
In      -0.02123244       2.94332164       2.94353530       0.67600000       0.24000000
In       2.80715195       3.05815605      -0.12421966       0.73400000       0.26000000
In      -0.03635363      -0.03769640       5.91722761       0.65600000       0.23000000
In       2.94083337      -0.03427134       8.82032344       0.68200000       0.25000000
In      -0.02575552       2.95700219       8.80672950       0.65600000       0.23000000
In       2.94786677       2.94315026       5.88732836       0.68200000       0.25000000
In      -0.03321928       5.91553101      -0.03597213       0.65600000       0.23000000
In       2.94865730       5.88589661       2.94154497       0.68200000       0.25000000
In      -0.02389439       8.80801155       2.95483162       0.65600000       0.23000000
In       2.94223409       8.82285054      -0.03400644       0.68200000       0.25000000
In      -0.00770054       5.88724453       5.88583700       0.68000000       0.24000000
In       2.94365796       5.88501023       8.83058907       0.68600000       0.24000000
In      -0.01552291       8.82921976       8.83087675       0.68000000       0.24000000
In       2.94294092       8.82821713       5.88592804       0.68600000       0.24000000
In       6.08048060      -0.19107066      -0.19349184       0.63300000       0.22000000
In       8.86737468      -0.01475967       2.92670063       0.68600000       0.24000000
In       6.07431102       3.05520352       3.05662723       0.63300000       0.22000000
In       8.86770533       2.92757599      -0.01489774       0.68600000       0.24000000
In       5.88697307      -0.01552469       5.89336218       0.68700000       0.24000000
In       8.85538391      -0.02118486       8.82457665       0.67800000       0.24000000
In       5.88018828       2.93028517       8.82662521       0.68700000       0.24000000
In       8.85357070       2.93932929       5.89596044       0.67800000       0.24000000
In       5.88659503       5.89242018      -0.01510687       0.68700000       0.24000000
In       8.85357421       5.89693857       2.93733232       0.67800000       0.24000000
In       5.87940098       8.82827919       2.92945972       0.68700000       0.24000000
In       8.85512357       8.82483782      -0.02046495       0.67800000       0.24000000
In       5.93776160       5.91147971       5.91034634       0.66100000       0.23000000
In       8.85266518       5.87590146       8.83336637       0.67900000       0.24000000
In       5.95816977       8.76447387       8.76472594       0.66100000       0.23000000
In       8.85265568       8.83289797       5.87452829       0.67900000       0.24000000
P        3.81185387       0.60272468       0.60051585      -0.45200000      -0.16000000
65
Lattice="11.801682 -8e-06 -8e-06 -8e-06 11.801682 -8e-06 -8e-06 -8e-06 11.801682" Properties=species:S:1:pos:R:3:mulliken_charges:R:1:hirshfeld_charges:R:1 fermi_energy=3.718544537463 core_to_fermi_energy=15.690571930710242 config_type=Interstitial energy=-276.1480867771372 pbc="T T T"
P        1.39865429       1.48225068       4.48028283      -0.64200000      -0.23000000
P        3.96305172       2.02502157       2.03482815      -0.45200000      -0.16000000
P        1.40270307       4.47463951       1.48083740      -0.64200000      -0.23000000
P        4.43510387       4.46599369       4.46595553      -0.66200000      -0.24000000
P        1.42598250       1.45903603      10.26283434      -0.64200000      -0.23000000
P        4.40802964       1.45775905       7.36277388      -0.67600000      -0.24000000
P        1.46821720       4.42067546       7.35964083      -0.67400000      -0.24000000
P        4.42103906       4.42424898      10.30869691      -0.67200000      -0.23000000
P        1.46893546       7.35948392       4.41793978      -0.67400000      -0.24000000
P        4.40820427       7.36331256       1.45716800      -0.67600000      -0.24000000
P        1.42920550      10.26718329       1.45897011      -0.64200000      -0.23000000
P        4.42064149      10.30678990       4.42768826      -0.67200000      -0.23000000
P        1.45525966       7.35672063      10.29689345      -0.67400000      -0.24000000
P        4.41044906       7.33702397       7.33880277      -0.68100000      -0.24000000
P        1.45337658      10.29471871       7.35668990      -0.67400000      -0.24000000
P        4.42392027      10.16101296      10.15891687      -0.66200000      -0.24000000
P        7.41105733       1.43717682       4.44428725      -0.67600000      -0.24000000
P       10.33408668       1.46004286       1.45966554      -0.67700000      -0.24000000
P        7.41038269       4.44343513       1.43770000      -0.67600000      -0.24000000
P       10.31095881       4.42521155       4.42345107      -0.67400000      -0.24000000
P        7.39654389       1.48363917      10.28382143      -0.67600000      -0.24000000
P       10.31402680       1.46779611       7.37210251      -0.68000000      -0.24000000
P        7.37245323       4.40561416       7.37587710      -0.67500000      -0.24000000
P       10.32008228       4.41109603      10.31350330      -0.67600000      -0.24000000
P        7.37221607       7.37659919       4.40350483      -0.67500000      -0.24000000
P       10.31641345       7.37252486       1.46641215      -0.68000000      -0.24000000
P        7.39497192      10.28561839       1.48208415      -0.67600000      -0.24000000
P       10.31999615      10.31282110       4.40889010      -0.67600000      -0.24000000
P        7.39203013       7.33941904      10.31613568      -0.67500000      -0.24000000
P       10.31399679       7.35840885       7.35786357      -0.67500000      -0.24000000
P        7.39264597      10.31497831       7.33918409      -0.67500000      -0.24000000
P       10.31761509      10.30843028      10.30881335      -0.67400000      -0.24000000
In      -0.01009247      -0.02060618      -0.02147595       0.67600000       0.24000000
In       2.80810957      -0.10002498       3.07641422       0.73400000       0.26000000
In      -0.02797743       2.94816491       2.94843209       0.67600000       0.24000000
In       2.81121923       3.06736088      -0.10014581       0.73400000       0.26000000
In      -0.03923009      -0.02997451       5.91793513       0.65600000       0.23000000
In       2.93591273      -0.03447152       8.81544128       0.68200000       0.25000000
In      -0.02099851       2.95740231       8.81812688       0.65600000       0.23000000
In       2.94885759       2.94782584       5.89423651       0.68200000       0.25000000
In      -0.03556040       5.91585894      -0.02815401       0.65600000       0.23000000
In       2.94952957       5.89280470       2.94593751       0.68200000       0.25000000
In      -0.01852021       8.82005549       2.95454928       0.65600000       0.23000000
In       2.93777426       8.81819136      -0.03453360       0.68200000       0.25000000
In      -0.00585590       5.89147330       5.88967091       0.68000000       0.24000000
In       2.94314035       5.88653398       8.83523116       0.68600000       0.24000000
In      -0.01955205       8.83185228       8.83376138       0.68000000       0.24000000
In       2.94225854       8.83219700       5.88824902       0.68600000       0.24000000
In       6.07772807      -0.21335077      -0.21604840       0.63300000       0.22000000
In       8.86168704      -0.00971878       2.92734101       0.68600000       0.24000000
In       6.07160620       3.05493816       3.05608632       0.63300000       0.22000000
In       8.86216927       2.92835931      -0.00992371       0.68600000       0.24000000
In       5.88867035      -0.01157427       5.89673583       0.68700000       0.24000000
In       8.85440850      -0.01639782       8.82945114       0.67800000       0.24000000
In       5.87662462       2.93376393       8.83311501       0.68700000       0.24000000
In       8.85483506       2.94427616       5.90443024       0.67800000       0.24000000
In       5.88824738       5.89570288      -0.01120280       0.68700000       0.24000000
In       8.85517481       5.90584358       2.94187827       0.67800000       0.24000000
In       5.87578030       8.83474708       2.93301887       0.68700000       0.24000000
In       8.85418476       8.82981599      -0.01559674       0.67800000       0.24000000
In       5.93384440       5.90489914       5.90365963       0.66100000       0.23000000
In       8.85510178       5.87458680       8.83665478       0.67900000       0.24000000
In       5.96993961       8.75078726       8.75100569       0.66100000       0.23000000
In       8.85528262       8.83633883       5.87288218       0.67900000       0.24000000
P        3.78071883       0.52067045       0.51746122      -0.45200000      -0.16000000
65
Lattice="11.801682 -8e-06 -8e-06 -8e-06 11.801682 -8e-06 -8e-06 -8e-06 11.801682" Properties=species:S:1:pos:R:3:mulliken_charges:R:1:hirshfeld_charges:R:1 fermi_energy=3.718544537463 core_to_fermi_energy=15.690571930710242 config_type=Interstitial energy=-276.119395721896 pbc="T T T"
P        1.40003716       1.49343181       4.48206440      -0.64200000      -0.23000000
P        4.04801392       1.92951046       1.93966022      -0.45200000      -0.16000000
P        1.40369936       4.47664525       1.49215668      -0.64200000      -0.23000000
P        4.43117488       4.46181706       4.46169865      -0.66200000      -0.24000000
P        1.43818400       1.46363273      10.27555138      -0.64200000      -0.23000000
P        4.40922727       1.45965108       7.36603981      -0.67600000      -0.24000000
P        1.46624727       4.42212772       7.36546388      -0.67400000      -0.24000000
P        4.41888108       4.42619194      10.31594403      -0.67200000      -0.23000000
P        1.46703002       7.36570750       4.41936228      -0.67400000      -0.24000000
P        4.40943223       7.36645389       1.45910927      -0.67600000      -0.24000000
P        1.44184554      10.28016992       1.46278428      -0.64200000      -0.23000000
P        4.41871167      10.31359603       4.43003893      -0.67200000      -0.23000000
P        1.44890932       7.35415475      10.29755909      -0.67400000      -0.24000000
P        4.40900387       7.33447130       7.33652687      -0.68100000      -0.24000000
P        1.44709032      10.29563990       7.35429661      -0.67400000      -0.24000000
P        4.41688989      10.14132798      10.13922413      -0.66200000      -0.24000000
P        7.41272828       1.44453019       4.45037324      -0.67600000      -0.24000000
P       10.33147607       1.46134243       1.46101124      -0.67700000      -0.24000000
P        7.41241785       4.44990881       1.44487902      -0.67600000      -0.24000000
P       10.30997990       4.42961764       4.42790008      -0.67400000      -0.24000000
P        7.38556473       1.48219993      10.29239704      -0.67600000      -0.24000000
P       10.31600256       1.46987914       7.37998638      -0.68000000      -0.24000000
P        7.37057721       4.40782889       7.37996890      -0.67500000      -0.24000000
P       10.31910108       4.40884873      10.31957849      -0.67600000      -0.24000000
P        7.37061938       7.38047224       4.40605768      -0.67500000      -0.24000000
P       10.31877336       7.38068362       1.46851751      -0.68000000      -0.24000000
P        7.38421131      10.29367478       1.48101955      -0.67600000      -0.24000000
P       10.31937293      10.31908001       4.40656754      -0.67600000      -0.24000000
P        7.39549388       7.33965988      10.31955299      -0.67500000      -0.24000000
P       10.31265680       7.35982938       7.35921800      -0.67500000      -0.24000000
P        7.39614210      10.31842188       7.33939710      -0.67500000      -0.24000000
P       10.31594476      10.31177672      10.31206898      -0.67400000      -0.24000000
In      -0.01011939      -0.01831627      -0.01952732       0.67600000       0.24000000
In       2.81771250      -0.07249700       3.08299152       0.73400000       0.26000000
In      -0.03340333       2.95077462       2.95115163       0.67600000       0.24000000
In       2.82071925       3.07374278      -0.07183944       0.73400000       0.26000000
In      -0.04021639      -0.02301227       5.91605208       0.65600000       0.23000000
In       2.93126604      -0.03475592       8.80839817       0.68200000       0.25000000
In      -0.01657946       2.95593129       8.82848945       0.65600000       0.23000000
In       2.94923487       2.95186780       5.90150812       0.68200000       0.25000000
In      -0.03675691       5.91398666      -0.02146263       0.65600000       0.23000000
In       2.94973237       5.90018125       2.95004854       0.68200000       0.25000000
In      -0.01356948       8.83099719       2.95272444       0.65600000       0.23000000
In       2.93330515       8.81078496      -0.03515832       0.68200000       0.25000000
In      -0.00432080       5.89455690       5.89250112       0.68000000       0.24000000
In       2.94304693       5.88715693       8.83893196       0.68600000       0.24000000
In      -0.02313693       8.83413909       8.83594726       0.68000000       0.24000000
In       2.94220810       8.83581491       5.88935244       0.68600000       0.24000000
In       6.06054444      -0.22124700      -0.22339692       0.63300000       0.22000000
In       8.85517594      -0.00549374       2.92768771       0.68600000       0.24000000
In       6.06892165       3.06182508       3.06242482       0.63300000       0.22000000
In       8.85565346       2.92860039      -0.00568656       0.68600000       0.24000000
In       5.89035120      -0.00840502       5.89887257       0.68700000       0.24000000
In       8.85048679      -0.01118619       8.83614625       0.67800000       0.24000000
In       5.87434266       2.93665628       8.83879402       0.68700000       0.24000000
In       8.85780432       2.94794734       5.91246155       0.67800000       0.24000000
In       5.88987035       5.89779389      -0.00813567       0.68700000       0.24000000
In       8.85853245       5.91411317       2.94554843       0.67800000       0.24000000
In       5.87363294       8.83994229       2.93624301       0.68700000       0.24000000
In       8.85045307       8.83641375      -0.01046533       0.67800000       0.24000000
In       5.93127046       5.90182671       5.90076309       0.66100000       0.23000000
In       8.85741810       5.87391693       8.84015917       0.67900000       0.24000000
In       5.98012993       8.74210524       8.74230503       0.66100000       0.23000000
In       8.85784830       8.84009266       5.87214256       0.67900000       0.24000000
P        3.73027071       0.43847617       0.43489267      -0.45200000      -0.16000000
65
Lattice="11.801682 -8e-06 -8e-06 -8e-06 11.801682 -8e-06 -8e-06 -8e-06 11.801682" Properties=species:S:1:pos:R:3:mulliken_charges:R:1:hirshfeld_charges:R:1 fermi_energy=3.718544537463 core_to_fermi_energy=15.690571930710242 config_type=Interstitial energy=-276.0833551521417 pbc="T T T"
P        1.40669524       1.49934710       4.47730842      -0.64200000      -0.23000000
P        4.15027663       1.83326188       1.84321083      -0.45200000      -0.16000000
P        1.40978789       4.47230165       1.49831027      -0.64200000      -0.23000000
P        4.42626031       4.46109614       4.46098161      -0.66200000      -0.24000000
P        1.44860892       1.46646624      10.28564035      -0.64200000      -0.23000000
P        4.41104023       1.46139266       7.36781699      -0.67600000      -0.24000000
P        1.46468745       4.42251666       7.36935304      -0.67400000      -0.24000000
P        4.41822978       4.42626684      10.32092841      -0.67200000      -0.23000000
P        1.46556451       7.36996342       4.41969911      -0.67400000      -0.24000000
P        4.41126268       7.36806339       1.46093774      -0.67600000      -0.24000000
P        1.45279142      10.29067446       1.46488441      -0.64200000      -0.23000000
P        4.41834713      10.31833271       4.43034690      -0.67200000      -0.23000000
P        1.44431341       7.35122244      10.29745686      -0.67400000      -0.24000000
P        4.40847590       7.33621059       7.33839359      -0.68100000      -0.24000000
P        1.44262418      10.29577387       7.35148707      -0.67400000      -0.24000000
P        4.41443159      10.13704559      10.13505111      -0.66200000      -0.24000000
P        7.41448619       1.45100479       4.45586056      -0.67600000      -0.24000000
P       10.32832935       1.46192028       1.46164118      -0.67700000      -0.24000000
P        7.41448383       4.45571992       1.45123240      -0.67600000      -0.24000000
P       10.31134227       4.43139262       4.42976935      -0.67400000      -0.24000000
P        7.37139138       1.47876192      10.30372530      -0.67600000      -0.24000000
P       10.31765519       1.46898899       7.38599993      -0.68000000      -0.24000000
P        7.37024605       4.40985670       7.38273737      -0.67500000      -0.24000000
P       10.31814004       4.40688936      10.32375132      -0.67600000      -0.24000000
P        7.37055420       7.38298237       4.40846966      -0.67500000      -0.24000000
P       10.32076964       7.38696111       1.46776851      -0.68000000      -0.24000000
P        7.37046135      10.30429336       1.47808370      -0.67600000      -0.24000000
P       10.31880619      10.32337780       4.40459848      -0.67600000      -0.24000000
P        7.39662908       7.34141514      10.32221340      -0.67500000      -0.24000000
P       10.31192873       7.36067677       7.36003583      -0.67500000      -0.24000000
P        7.39732654      10.32108991       7.34119972      -0.67500000      -0.24000000
P       10.31302380      10.31343248      10.31365248      -0.67400000      -0.24000000
In      -0.01331485      -0.01742077      -0.01897936       0.67600000       0.24000000
In       2.83727011      -0.04547308       3.08068026       0.73400000       0.26000000
In      -0.03518984       2.95074095       2.95125742       0.67600000       0.24000000
In       2.83957782       3.07179556      -0.04449567       0.73400000       0.26000000
In      -0.03850296      -0.01706918       5.91174472       0.65600000       0.23000000
In       2.92817151      -0.03559947       8.79940799       0.68200000       0.25000000
In      -0.01384460       2.95456655       8.83543948       0.65600000       0.23000000
In       2.94872279       2.95359566       5.90635716       0.68200000       0.25000000
In      -0.03537992       5.90977195      -0.01578776       0.65600000       0.23000000
In       2.94911756       5.90504590       2.95189372       0.68200000       0.25000000
In      -0.01024194       8.83854851       2.95102883       0.65600000       0.23000000
In       2.93030723       8.80139249      -0.03624121       0.68200000       0.25000000
In      -0.00307403       5.89633408       5.89402948       0.68000000       0.24000000
In       2.94343211       5.88667049       8.84138755       0.68600000       0.24000000
In      -0.02548596       8.83572296       8.83739303       0.68000000       0.24000000
In       2.94267319       8.83833139       5.88912001       0.68600000       0.24000000
In       6.02398269      -0.20111554      -0.20243019       0.63300000       0.22000000
In       8.84892988      -0.00317469       2.92788660       0.68600000       0.24000000
In       6.06767251       3.07438745       3.07451868       0.63300000       0.22000000
In       8.84930974       2.92862700      -0.00332801       0.68600000       0.24000000
In       5.89196955      -0.00630032       5.89997948       0.68700000       0.24000000
In       8.84405085      -0.00662832       8.84374398       0.67800000       0.24000000
In       5.87430373       2.93842978       8.84277504       0.68700000       0.24000000
In       8.86196061       2.95044942       5.91873349       0.67800000       0.24000000
In       5.89139232       5.89879988      -0.00610632       0.68700000       0.24000000
In       8.86302516       5.92053793       2.94810826       0.67800000       0.24000000
In       5.87374190       8.84339197       2.93837797       0.68700000       0.24000000
In       8.84426567       8.84380020      -0.00602007       0.67800000       0.24000000
In       5.92881875       5.90214985       5.90130257       0.66100000       0.23000000
In       8.85870247       5.87462986       8.84331776       0.67900000       0.24000000
In       5.98445034       8.74211217       8.74232215       0.66100000       0.23000000
In       8.85936869       8.84345816       5.87284195       0.67900000       0.24000000