63
Lattice="11.8016818 -7.6e-06 -7.6e-06 -7.6e-06 11.8016818 -7.8e-06 -7.6e-06 -7.8e-06 11.8016816" Properties=species:S:1:pos:R:3:mulliken_charges:R:1 virial="-0.001343979365248383 3.847269175329341e-05 3.847269175329341e-05 3.847269175329341e-05 -0.001345261788306826 3.847269175329341e-05 3.847269175329341e-05 3.847269175329341e-05 -0.0013426969421899398" fermi_energy=3.4539138232004998 core_to_fermi_energy=15.43004959127955 config_type=Accurate_Bulk energy=-266.01132491044405 pbc="T T T"
P        1.55012771       1.55012766       4.44988302      -0.67500000
P        4.44988311       1.55012775       1.55012773      -0.67500000
P        1.55012772       4.44988310       1.55012764      -0.67500000
In       0.00282652       0.00282651       0.00282651       0.67500000
In       2.95462123       0.02929407       2.95462116       0.67500000
In       0.02929414       2.95462116       2.95462111       0.67500000
In       2.95462124       2.95462121       0.02929408       0.67500000
P        1.48434103       1.48434088      10.32280798      -0.67500000
P        4.40137046       1.55012171       7.30112644      -0.67500000
P        1.55012184       4.40137033       7.30112637      -0.67500000
P        4.42562053       4.42562037      10.32646475      -0.67500000
In       0.03354722       0.03354709       5.87826327       0.67500000
In       2.97299355       0.03354262       8.81771087       0.67500000
In       0.03354281       2.97299339       8.81771081       0.67500000
In       3.21589065       3.21589049       5.63536603       0.67500000
P        1.55012183       7.30112650       4.40137026      -0.67500000
P        4.40137046       7.30112657       1.55012169      -0.67500000
P        1.48434103      10.32280816       1.48434084      -0.67500000
P        4.42562053      10.32646493       4.42562029      -0.67500000
In       0.03354723       5.87826336       0.03354710       0.67500000
In       3.21589065       5.63536614       3.21589045       0.67500000
In       0.03354280       8.81771097       2.97299333       0.67500000
In       2.97299355       8.81771102       0.03354262       0.67500000
P        1.48433665       7.36690432      10.33012650      -0.67500000
P        4.44987472       7.30111982       7.30111969      -0.67500000
P        1.48433664      10.33012668       7.36690420      -0.67500000
P        4.42561735      10.32646098      10.32646080      -0.67500000
In       0.02928915       5.89663644       5.89663633       0.67500000
In       2.95461305       5.89663290       8.82195969       0.67500000
In       0.00281437       8.84843047       8.84843033       0.67500000
In       2.95461305       8.82195985       5.89663280       0.67500000
P        7.30112655       1.55012179       4.40137037      -0.67500000
P       10.32280815       1.48434103       1.48434100      -0.67500000
P        7.30112654       4.40137044       1.55012177      -0.67500000
P       10.32646498       4.42562047       4.42562039      -0.67500000
In       5.87826337       0.03354723       0.03354723       0.67500000
In       8.81771102       0.03354275       2.97299349       0.67500000
In       5.63536614       3.21589066       3.21589062       0.67500000
In       8.81771102       2.97299355       0.03354275       0.67500000
P        7.36690448       1.48433648      10.33012662      -0.67500000
P       10.33012679       1.48433652       7.36690436      -0.67500000
P        7.30111995       4.44987460       7.30111977      -0.67500000
P       10.32646113       4.42561718      10.32646090      -0.67500000
In       5.89663657       0.02928902       5.89663644       0.67500000
In       8.84843064       0.00281420       8.84843049       0.67500000
In       5.89663308       2.95461287       8.82195976       0.67500000
In       8.82195998       2.95461291       5.89663291       0.67500000
P        7.30111996       7.30111991       4.44987452      -0.67500000
P       10.33012679       7.36690448       1.48433650      -0.67500000
P        7.36690448      10.33012680       1.48433645      -0.67500000
P       10.32646113      10.32646108       4.42561710      -0.67500000
In       5.89663656       5.89663654       0.02928902       0.67500000
In       8.82195998       5.89663301       2.95461286       0.67500000
In       5.89663308       8.82195991       2.95461282       0.67500000
In       8.84843064       8.84843063       0.00281420       0.67500000
P        7.36690014       7.36689998      10.32279868      -0.67500000
P       10.32279898       7.36690002       7.36689990      -0.67500000
P        7.36690014      10.32279886       7.36689986      -0.67500000
P       10.32645766      10.32645750      10.32645732      -0.67500000
In       5.63535332       5.63535315       5.63535303       0.67500000
In       8.81770127       5.87825103       8.81770100       0.67500000
In       5.87825119       8.81770109       8.81770094       0.67500000
In       8.81770128       8.81770115       5.87825093       0.67500000
63
Lattice="11.8016818 -7.6e-06 -7.6e-06 -7.6e-06 11.8016818 -7.8e-06 -7.6e-06 -7.8e-06 11.8016816" Properties=species:S:1:pos:R:3:mulliken_charges:R:1 virial="-0.001343979365248383 3.847269175329341e-05 3.847269175329341e-05 3.847269175329341e-05 -0.001345261788306826 3.847269175329341e-05 3.847269175329341e-05 3.847269175329341e-05 -0.0013426969421899398" fermi_energy=3.4539138232004998 core_to_fermi_energy=15.43004959127955 config_type=Accurate_Bulk energy=-265.8636042855394 pbc="T T T"
P        1.46854853       1.62056750       4.51572727      -0.67500000
P        4.51574502       1.62058000       1.46852306      -0.67500000
P        1.58962532       4.48578153       1.58962472      -0.67500000
In       0.06045717       0.00355826       0.06045710       0.67500000
In       3.04237946       0.26593374       3.04241246       0.67500000
In       0.00615160       3.02366626       2.95780636       0.67500000
In       2.95780795       3.02366484       0.00615508       0.67500000
P        1.48503205       1.50526316      10.35262893      -0.67500000
P        4.40244528       1.53829272       7.36704064      -0.67500000
P        1.45251206       4.49668102       7.41805099      -0.67500000
P        4.43541641       4.48575246      10.30982123      -0.67500000
In      -0.00050503       0.02713159       5.91783918       0.67500000
In       2.96543402       0.02534139       8.87243398       0.67500000
In      -0.01121999       2.97205839       8.87378817       0.67500000
In       3.04455131       3.18319381       5.86716336       0.67500000
P        1.57542114       7.33532581       4.41826650      -0.67500000
P        4.41826665       7.33532450       1.57542049      -0.67500000
P        1.59833274      10.46062971       1.59832970      -0.67500000
P        4.43095168      10.42574923       4.43094788      -0.67500000
In       0.06727347       5.90478044       0.06727348       0.67500000
In       3.27204485       5.66636159       3.27204436       0.67500000
In       0.11897972       8.88389025       2.97534913       0.67500000
In       2.97534800       8.88389185       0.11898082       0.67500000
P        1.50183216       7.43247283      10.39430562      -0.67500000
P        4.43080560       7.34594808       7.27743097      -0.67500000
P        1.47566709      10.34691721       7.39881752      -0.67500000
P        4.43290236      10.31427697      10.34684992      -0.67500000
In       0.01044202       5.96061749       5.89775638       0.67500000
In       2.95328568       5.98575894       8.85246731       0.67500000
In       0.00312880       8.85472632       8.87719451       0.67500000
In       2.95715954       8.90063710       5.88540057       0.67500000
P        7.36704092       1.53829315       4.40244484      -0.67500000
P       10.35262951       1.50526434       1.48503202      -0.67500000
P        7.41804871       4.49667844       1.45251086      -0.67500000
P       10.30981986       4.48575454       4.43541399      -0.67500000
In       5.91783586       0.02713636      -0.00050078       0.67500000
In       8.87243266       0.02534131       2.96543342       0.67500000
In       5.86716450       3.18319588       3.04455285       0.67500000
In       8.87378800       2.97205819      -0.01121966       0.67500000
P        7.38987413       1.49955646      10.30774319      -0.67500000
P       10.30774180       1.49955425       7.38987586      -0.67500000
P        7.26352797       4.48015655       7.26352688      -0.67500000
P       10.33279915       4.49303502      10.33279847      -0.67500000
In       5.91655398       0.07211422       5.91655420       0.67500000
In       8.86291985      -0.01543807       8.86291748       0.67500000
In       5.90643459       2.99010490       8.82885459       0.67500000
In       8.82885385       2.99010535       5.90643494       0.67500000
P        7.27743196       7.34594771       4.43080536      -0.67500000
P       10.39430681       7.43247346       1.50183222      -0.67500000
P        7.39881995      10.34691725       1.47566723      -0.67500000
P       10.34685181      10.31427744       4.43290308      -0.67500000
In       5.89775599       5.96061758       0.01044225       0.67500000
In       8.85246971       5.98575920       2.95328831       0.67500000
In       5.88539941       8.90063893       2.95716166       0.67500000
In       8.87719419       8.85472680       0.00312900       0.67500000
P        7.37975066       7.40496894      10.30364639      -0.67500000
P       10.30364735       7.40496900       7.37974989      -0.67500000
P        7.36843247      10.33604269       7.36843192      -0.67500000
P       10.36431458      10.35063683      10.36431383      -0.67500000
In       5.58599507       5.67277616       5.58599469       0.67500000
In       8.79152469       5.89002588       8.79152492       0.67500000
In       5.87118000       8.83020055       8.80155229       0.67500000
In       8.80155236       8.83020062       5.87117993       0.67500000
63
Lattice="11.8016818 -7.6e-06 -7.6e-06 -7.6e-06 11.8016818 -7.8e-06 -7.6e-06 -7.8e-06 11.8016816" Properties=species:S:1:pos:R:3:mulliken_charges:R:1 virial="-0.001343979365248383 3.847269175329341e-05 3.847269175329341e-05 3.847269175329341e-05 -0.001345261788306826 3.847269175329341e-05 3.847269175329341e-05 3.847269175329341e-05 -0.0013426969421899398" fermi_energy=3.4539138232004998 core_to_fermi_energy=15.43004959127955 config_type=Accurate_Bulk energy=-265.54201517251516 pbc="T T T"
P        1.38483238       1.64031498       4.54756892      -0.67500000
P        4.54749041       1.64026822       1.38496216      -0.67500000
P        1.58966069       4.47953361       1.58966252      -0.67500000
In       0.08655569      -0.03305061       0.08655617       0.67500000
In       3.14456897       0.48612696       3.14440057       0.67500000
In      -0.02504438       3.03775645       2.93968958       0.67500000
In       2.93968440       3.03776100      -0.02505697       0.67500000
P        1.47077985       1.48795656      10.35595038      -0.67500000
P        4.40354975       1.50789482       7.39497341      -0.67500000
P        1.40893066       4.52161503       7.45958053      -0.67500000
P        4.43606509       4.49396609      10.29569118      -0.67500000
In      -0.02774176      -0.01384606       5.93691654       0.67500000
In       2.96000477       0.00177723       8.89311304       0.67500000
In      -0.03327547       2.95700664       8.88867454       0.67500000
In       2.93989237       3.11322896       5.97761707       0.67500000
P        1.57741936       7.33783484       4.41466251      -0.67500000
P        4.41466345       7.33783994       1.57742083      -0.67500000
P        1.67019393      10.53206105       1.67020483      -0.67500000
P        4.40966302      10.47329518       4.40967799      -0.67500000
In       0.06914597       5.89956470       0.06914523       0.67500000
In       3.27294385       5.66851378       3.27294421       0.67500000
In       0.15321855       8.89735925       2.94996964       0.67500000
In       2.94997415       8.89735309       0.15321323       0.67500000
P        1.50294996       7.43452990      10.40660987      -0.67500000
P        4.41593187       7.36372789       7.26258449      -0.67500000
P        1.47426552      10.33187481       7.40780337      -0.67500000
P        4.42490058      10.28176519      10.35223189      -0.67500000
In       0.00248942       5.96892809       5.88900308       0.67500000
In       2.95674395       6.00195571       8.85169003       0.67500000
In      -0.00038920       8.83968891       8.88165999       0.67500000
In       2.95472089       8.92722783       5.86064966       0.67500000
P        7.39497280       1.50789403       4.40355115      -0.67500000
P       10.35594940       1.48795272       1.47078041      -0.67500000
P        7.45959251       4.52162794       1.40893314      -0.67500000
P       10.29569902       4.49395705       4.43607300      -0.67500000
In       5.93692934      -0.01386515      -0.02775823       0.67500000
In       8.89311796       0.00177879       2.96000696       0.67500000
In       5.97760499       3.11321867       2.93988673       0.67500000
In       8.88867520       2.95700869      -0.03327693       0.67500000
P        7.39415765       1.48817074      10.29620769      -0.67500000
P       10.29621551       1.48817867       7.39414889      -0.67500000
P        7.25368534       4.47407381       7.25368848      -0.67500000
P       10.32904227       4.50068965      10.32904412      -0.67500000
In       5.91488325       0.05814057       5.91488184       0.67500000
In       8.86239682      -0.03298684       8.86240617       0.67500000
In       5.90693272       2.98609348       8.82870818       0.67500000
In       8.82871200       2.98609189       5.90693095       0.67500000
P        7.26258239       7.36373025       4.41593125      -0.67500000
P       10.40660702       7.43452832       1.50294846      -0.67500000
P        7.40779595      10.33187541       1.47426389      -0.67500000
P       10.35222677      10.28176411       4.42489543      -0.67500000
In       5.88900545       5.96892835       0.00248800       0.67500000
In       8.85168282       6.00195596       2.95673258       0.67500000
In       5.86065618       8.92722065       2.95471093       0.67500000
In       8.88166239       8.83968829      -0.00039062       0.67500000
P        7.37819431       7.40190920      10.29562125      -0.67500000
P       10.29561948       7.40190906       7.37819559      -0.67500000
P        7.36504809      10.32549431       7.36504874      -0.67500000
P       10.37083446      10.34081382      10.37083544      -0.67500000
In       5.59036901       5.70088052       5.59036822       0.67500000
In       8.78197653       5.88369794       8.78197451       0.67500000
In       5.86777199       8.82056733       8.79376570       0.67500000
In       8.79376682       8.82056703       5.86777158       0.67500000
63
Lattice="11.8016818 -7.6e-06 -7.6e-06 -7.6e-06 11.8016818 -7.8e-06 -7.6e-06 -7.8e-06 11.8016816" Properties=species:S:1:pos:R:3:mulliken_charges:R:1 virial="-0.001343979365248383 3.847269175329341e-05 3.847269175329341e-05 3.847269175329341e-05 -0.001345261788306826 3.847269175329341e-05 3.847269175329341e-05 3.847269175329341e-05 -0.0013426969421899398" fermi_energy=3.4539138232004998 core_to_fermi_energy=15.43004959127955 config_type=Accurate_Bulk energy=-265.02586387585 pbc="T T T"
P        1.32376848       1.63856967       4.55643396      -0.67500000
P        4.55649744       1.63859971       1.32363935      -0.67500000
P        1.58783279       4.47477467       1.58783132      -0.67500000
In       0.09240369      -0.05681405       0.09240354       0.67500000
In       3.29831703       0.74531908       3.29847705       0.67500000
In      -0.04041204       3.04332703       2.92858851       0.67500000
In       2.92859284       3.04332451      -0.04040246       0.67500000
P        1.46218997       1.47960472      10.35560862      -0.67500000
P        4.40689248       1.48970246       7.41117649      -0.67500000
P        1.39111223       4.53187105       7.47589408      -0.67500000
P        4.43772095       4.49629713      10.29062057      -0.67500000
In      -0.04110902      -0.04131182       5.95088702       0.67500000
In       2.95823239      -0.00989197       8.90344381       0.67500000
In      -0.04247778       2.95261981       8.89439774       0.67500000
In       2.87335412       3.05833498       6.03794665       0.67500000
P        1.57942970       7.33821743       4.41567356      -0.67500000
P        4.41567296       7.33821432       1.57942811      -0.67500000
P        1.68684244      10.53755595       1.68683402      -0.67500000
P        4.37479746      10.51304763       4.37478464      -0.67500000
In       0.06894125       5.89503494       0.06894136       0.67500000
In       3.26935941       5.67050869       3.26935861       0.67500000
In       0.15924346       8.89162786       2.93359269       0.67500000
In       2.93359077       8.89163234       0.15924705       0.67500000
P        1.50105626       7.42652751      10.40367650      -0.67500000
P        4.40962838       7.37577284       7.25535872      -0.67500000
P        1.47821702      10.32187389       7.41188250      -0.67500000
P        4.42272597      10.26418864      10.35299959      -0.67500000
In       0.00026863       5.97161218       5.88557954       0.67500000
In       2.96308491       6.00441409       8.84745142       0.67500000
In      -0.00163685       8.83313568       8.88181465       0.67500000
In       2.95929368       8.94681896       5.84236684       0.67500000
P        7.41117663       1.48970432       4.40689095      -0.67500000
P       10.35560878       1.47960809       1.46218851      -0.67500000
P        7.47588292       4.53185958       1.39111262      -0.67500000
P       10.29061425       4.49630499       4.43771523      -0.67500000
In       5.95087718      -0.04129480      -0.04109523       0.67500000
In       8.90344054      -0.00989288       2.95823071       0.67500000
In       6.03796461       3.05835235       2.87336218       0.67500000
In       8.89439798       2.95261828      -0.04247668       0.67500000
P        7.39607395       1.48379903      10.29274757      -0.67500000
P       10.29274082       1.48379349       7.39608169      -0.67500000
P        7.25158971       4.47125796       7.25158694      -0.67500000
P       10.32715595       4.50373242      10.32715412      -0.67500000
In       5.90617140       0.03997170       5.90617247       0.67500000
In       8.85855845      -0.03642333       8.85855078       0.67500000
In       5.90761993       2.98396830       8.82902374       0.67500000
In       8.82902149       2.98396957       5.90762103       0.67500000
P        7.25536121       7.37577114       4.40962844      -0.67500000
P       10.40367930       7.42652920       1.50105717      -0.67500000
P        7.41188795      10.32187406       1.47821787      -0.67500000
P       10.35300250      10.26418896       4.42272995      -0.67500000
In       5.88557867       5.97161243       0.00026896       0.67500000
In       8.84745771       6.00441411       2.96309301       0.67500000
In       5.84236190       8.94682504       2.95930078       0.67500000
In       8.88181358       8.83313646      -0.00163626       0.67500000
P        7.37724855       7.40022066      10.29296404      -0.67500000
P       10.29296582       7.40022066       7.37724735      -0.67500000
P        7.36090075      10.32239324       7.36089982      -0.67500000
P       10.36682936      10.33494828      10.36682807      -0.67500000
In       5.59962347       5.72071847       5.59962319       0.67500000
In       8.77928054       5.88235212       8.77928130       0.67500000
In       5.86882182       8.81675703       8.78974058       0.67500000
In       8.78974082       8.81675772       5.86882140       0.67500000
63
Lattice="11.8016818 -7.6e-06 -7.6e-06 -7.6e-06 11.8016818 -7.8e-06 -7.6e-06 -7.8e-06 11.8016816" Properties=species:S:1:pos:R:3:mulliken_charges:R:1 virial="-0.001343979365248383 3.847269175329341e-05 3.847269175329341e-05 3.847269175329341e-05 -0.001345261788306826 3.847269175329341e-05 3.847269175329341e-05 3.847269175329341e-05 -0.0013426969421899398" fermi_energy=3.4539138232004998 core_to_fermi_energy=15.43004959127955 config_type=Accurate_Bulk energy=-264.5174477952554 pbc="T T T"
P        1.28704636       1.61731103       4.54488071      -0.67500000
P        4.54488081       1.61731178       1.28704810      -0.67500000
P        1.58570442       4.46960968       1.58570437      -0.67500000
In       0.08890970      -0.06758986       0.08890972       0.67500000
In       3.44622962       1.00594119       3.44622779       0.67500000
In      -0.04720122       3.04411346       2.92606622       0.67500000
In       2.92606634       3.04411356      -0.04720135       0.67500000
P        1.45786488       1.47638354      10.35397502      -0.67500000
P        4.40986935       1.47682151       7.42399196      -0.67500000
P        1.38254133       4.53715221       7.48331802      -0.67500000
P        4.43969219       4.49680245      10.28881177      -0.67500000
In      -0.04696366      -0.05760010       5.96128254       0.67500000
In       2.95676035      -0.01815250       8.90967857       0.67500000
In      -0.04732190       2.95157073       8.89741726       0.67500000
In       2.82246997       3.01131683       6.08071854       0.67500000
P        1.58291595       7.33741538       4.41894908      -0.67500000
P        4.41894934       7.33741553       1.58291573      -0.67500000
P        1.66964270      10.50536022       1.66964257      -0.67500000
P        4.33261165      10.55832264       4.33261149      -0.67500000
In       0.06909916       5.89180057       0.06909898       0.67500000
In       3.26485787       5.67088410       3.26485754       0.67500000
In       0.15444022       8.87851088       2.92866033       0.67500000
In       2.92866053       8.87851086       0.15443996       0.67500000
P        1.49941021       7.41889897      10.39940678      -0.67500000
P        4.40651052       7.38399883       7.25227430      -0.67500000
P        1.48277230      10.31385714       7.41312041      -0.67500000
P        4.42418346      10.25460880      10.35252225      -0.67500000
In      -0.00032294       5.97283442       5.88423205       0.67500000
In       2.96767069       6.00389816       8.84492585       0.67500000
In      -0.00178371       8.82982647       8.88170204       0.67500000
In       2.96974762       8.96327001       5.82702079       0.67500000
P        7.42399195       1.47682179       4.40986930      -0.67500000
P       10.35397509       1.47638367       1.45786484      -0.67500000
P        7.48331844       4.53715264       1.38254120      -0.67500000
P       10.28881211       4.49680243       4.43969210      -0.67500000
In       5.96128266      -0.05759995      -0.04696364       0.67500000
In       8.90967861      -0.01815222       2.95676034       0.67500000
In       6.08071799       3.01131786       2.82247073       0.67500000
In       8.89741734       2.95157094      -0.04732197       0.67500000
P        7.39734590       1.48186673      10.29175504      -0.67500000
P       10.29175530       1.48186679       7.39734578      -0.67500000
P        7.25135791       4.46960981       7.25135774      -0.67500000
P       10.32638766       4.50599510      10.32638748      -0.67500000
In       5.89549138       0.02393602       5.89549119       0.67500000
In       8.85520434      -0.03714999       8.85520431       0.67500000
In       5.90836209       2.98273458       8.82941461       0.67500000
In       8.82941492       2.98273458       5.90836197       0.67500000
P        7.25227469       7.38399902       4.40651021      -0.67500000
P       10.39940715       7.41889920       1.49940995      -0.67500000
P        7.41312062      10.31385736       1.48277207      -0.67500000
P       10.35252243      10.25460888       4.42418308      -0.67500000
In       5.88423235       5.97283459      -0.00032317       0.67500000
In       8.84492627       6.00389836       2.96767036       0.67500000
In       5.82702116       8.96327004       2.96974728       0.67500000
In       8.88170236       8.82982670      -0.00178391       0.67500000
P        7.37711674       7.39950936      10.29212544      -0.67500000
P       10.29212579       7.39950934       7.37711646      -0.67500000
P        7.35648502      10.32266750       7.35648475      -0.67500000
P       10.36206680      10.33165978      10.36206645      -0.67500000
In       5.60849330       5.73588549       5.60849276       0.67500000
In       8.77840601       5.88223056       8.77840570       0.67500000
In       5.87107208       8.81552556       8.78733132       0.67500000
In       8.78733168       8.81552560       5.87107188       0.67500000
63
Lattice="11.8016818 -7.6e-06 -7.6e-06 -7.6e-06 11.8016818 -7.8e-06 -7.6e-06 -7.8e-06 11.8016816" Properties=species:S:1:pos:R:3:mulliken_charges:R:1 virial="-0.001343979365248383 3.847269175329341e-05 3.847269175329341e-05 3.847269175329341e-05 -0.001345261788306826 3.847269175329341e-05 3.847269175329341e-05 3.847269175329341e-05 -0.0013426969421899398" fermi_energy=3.4539138232004998 core_to_fermi_energy=15.43004959127955 config_type=Accurate_Bulk energy=-264.06669177221454 pbc="T T T"
P        1.26211371       1.58339588       4.52347504      -0.67500000
P        4.52347566       1.58339677       1.26211408      -0.67500000
P        1.58222618       4.46136611       1.58222613      -0.67500000
In       0.08523250      -0.07329384       0.08523253       0.67500000
In       3.55204546       1.29658984       3.55204520       0.67500000
In      -0.05236601       3.04166283       2.93006846       0.67500000
In       2.93006861       3.04166293      -0.05236605       0.67500000
P        1.45481022       1.47369686      10.35219943      -0.67500000
P        4.41280458       1.46320834       7.43707605      -0.67500000
P        1.37645234       4.54179940       7.48897266      -0.67500000
P        4.44281053       4.49664277      10.28761090      -0.67500000
In      -0.05130577      -0.07061140       5.97262929       0.67500000
In       2.95484677      -0.02732194       8.91553531       0.67500000
In      -0.05145607       2.95146782       8.90075203       0.67500000
In       2.76461759       2.95467327       6.13070405       0.67500000
P        1.58738888       7.33539375       4.42199928      -0.67500000
P        4.42199953       7.33539386       1.58738865      -0.67500000
P        1.65302256      10.47696834       1.65302237      -0.67500000
P        4.28935882      10.61075004       4.28935856      -0.67500000
In       0.06974998       5.88914409       0.06974980       0.67500000
In       3.25911955       5.66657101       3.25911921       0.67500000
In       0.15072431       8.86686799       2.92899232       0.67500000
In       2.92899251       8.86686800       0.15072410       0.67500000
P        1.49887558       7.41336276      10.39745444      -0.67500000
P        4.40466140       7.39031281       7.25255709      -0.67500000
P        1.48814735      10.30442167       7.41296909      -0.67500000
P        4.42678556      10.24695132      10.35300668      -0.67500000
In      -0.00046042       5.97379157       5.88353436       0.67500000
In       2.97099718       6.00259481       8.84463424       0.67500000
In      -0.00137857       8.82720674       8.88238313       0.67500000
In       2.98586169       8.97707635       5.81091939       0.67500000
P        7.43707606       1.46320864       4.41280452      -0.67500000
P       10.35219949       1.47369702       1.45481015      -0.67500000
P        7.48897297       4.54179972       1.37645221      -0.67500000
P       10.28761119       4.49664282       4.44281040      -0.67500000
In       5.97262930      -0.07061109      -0.05130562       0.67500000
In       8.91553533      -0.02732168       2.95484674       0.67500000
In       6.13070380       2.95467463       2.76461849       0.67500000
In       8.90075213       2.95146799      -0.05145613       0.67500000
P        7.39888732       1.48073402      10.29113444      -0.67500000
P       10.29113463       1.48073403       7.39888728      -0.67500000
P        7.25196895       4.46803252       7.25196876      -0.67500000
P       10.32608814       4.50863052      10.32608794      -0.67500000
In       5.87925182       0.00882067       5.87925166       0.67500000
In       8.85226849      -0.03792427       8.85226839       0.67500000
In       5.90931549       2.98150810       8.82965101       0.67500000
In       8.82965130       2.98150812       5.90931539       0.67500000
P        7.25255749       7.39031298       4.40466109      -0.67500000
P       10.39745483       7.41336301       1.49887534      -0.67500000
P        7.41296935      10.30442188       1.48814714      -0.67500000
P       10.35300688      10.24695140       4.42678525      -0.67500000
In       5.88353465       5.97379175      -0.00046065       0.67500000
In       8.84463472       6.00259501       2.97099694       0.67500000
In       5.81091970       8.97707644       2.98586141       0.67500000
In       8.88238344       8.82720697      -0.00137876       0.67500000
P        7.37747751       7.39921021      10.29196740      -0.67500000
P       10.29196777       7.39921019       7.37747722      -0.67500000
P        7.35096023      10.32548656       7.35095996      -0.67500000
P       10.35872967      10.32970250      10.35872932      -0.67500000
In       5.61943973       5.75266065       5.61943920       0.67500000
In       8.77806619       5.88259295       8.77806588       0.67500000
In       5.87435928       8.81574096       8.78585525       0.67500000
In       8.78585561       8.81574101       5.87435908       0.67500000
63