63
Lattice="11.8016818 -7.6e-06 -7.6e-06 -7.6e-06 11.8016818 -7.8e-06 -7.6e-06 -7.8e-06 11.8016816" Properties=species:S:1:pos:R:3:mulliken_charges:R:1 virial="-0.001343979365248383 3.847269175329341e-05 3.847269175329341e-05 3.847269175329341e-05 -0.001345261788306826 3.847269175329341e-05 3.847269175329341e-05 3.847269175329341e-05 -0.0013426969421899398" fermi_energy=3.4539138232004998 core_to_fermi_energy=15.43004959127955 config_type=Accurate_Bulk energy=-266.01132491044405 pbc="T T T"
P        1.55012771       1.55012766       4.44988302      -0.67500000
P        4.44988311       1.55012775       1.55012773      -0.67500000
P        1.55012772       4.44988310       1.55012764      -0.67500000
In       0.00282652       0.00282651       0.00282651       0.67500000
In       2.95462123       0.02929407       2.95462116       0.67500000
In       0.02929414       2.95462116       2.95462111       0.67500000
In       2.95462124       2.95462121       0.02929408       0.67500000
P        1.48434103       1.48434088      10.32280798      -0.67500000
P        4.40137046       1.55012171       7.30112644      -0.67500000
P        1.55012184       4.40137033       7.30112637      -0.67500000
P        4.42562053       4.42562037      10.32646475      -0.67500000
In       0.03354722       0.03354709       5.87826327       0.67500000
In       2.97299355       0.03354262       8.81771087       0.67500000
In       0.03354281       2.97299339       8.81771081       0.67500000
In       3.21589065       3.21589049       5.63536603       0.67500000
P        1.55012183       7.30112650       4.40137026      -0.67500000
P        4.40137046       7.30112657       1.55012169      -0.67500000
P        1.48434103      10.32280816       1.48434084      -0.67500000
P        4.42562053      10.32646493       4.42562029      -0.67500000
In       0.03354723       5.87826336       0.03354710       0.67500000
In       3.21589065       5.63536614       3.21589045       0.67500000
In       0.03354280       8.81771097       2.97299333       0.67500000
In       2.97299355       8.81771102       0.03354262       0.67500000
P        1.48433665       7.36690432      10.33012650      -0.67500000
P        4.44987472       7.30111982       7.30111969      -0.67500000
P        1.48433664      10.33012668       7.36690420      -0.67500000
P        4.42561735      10.32646098      10.32646080      -0.67500000
In       0.02928915       5.89663644       5.89663633       0.67500000
In       2.95461305       5.89663290       8.82195969       0.67500000
In       0.00281437       8.84843047       8.84843033       0.67500000
In       2.95461305       8.82195985       5.89663280       0.67500000
P        7.30112655       1.55012179       4.40137037      -0.67500000
P       10.32280815       1.48434103       1.48434100      -0.67500000
P        7.30112654       4.40137044       1.55012177      -0.67500000
P       10.32646498       4.42562047       4.42562039      -0.67500000
In       5.87826337       0.03354723       0.03354723       0.67500000
In       8.81771102       0.03354275       2.97299349       0.67500000
In       5.63536614       3.21589066       3.21589062       0.67500000
In       8.81771102       2.97299355       0.03354275       0.67500000
P        7.36690448       1.48433648      10.33012662      -0.67500000
P       10.33012679       1.48433652       7.36690436      -0.67500000
P        7.30111995       4.44987460       7.30111977      -0.67500000
P       10.32646113       4.42561718      10.32646090      -0.67500000
In       5.89663657       0.02928902       5.89663644       0.67500000
In       8.84843064       0.00281420       8.84843049       0.67500000
In       5.89663308       2.95461287       8.82195976       0.67500000
In       8.82195998       2.95461291       5.89663291       0.67500000
P        7.30111996       7.30111991       4.44987452      -0.67500000
P       10.33012679       7.36690448       1.48433650      -0.67500000
P        7.36690448      10.33012680       1.48433645      -0.67500000
P       10.32646113      10.32646108       4.42561710      -0.67500000
In       5.89663656       5.89663654       0.02928902       0.67500000
In       8.82195998       5.89663301       2.95461286       0.67500000
In       5.89663308       8.82195991       2.95461282       0.67500000
In       8.84843064       8.84843063       0.00281420       0.67500000
P        7.36690014       7.36689998      10.32279868      -0.67500000
P       10.32279898       7.36690002       7.36689990      -0.67500000
P        7.36690014      10.32279886       7.36689986      -0.67500000
P       10.32645766      10.32645750      10.32645732      -0.67500000
In       5.63535332       5.63535315       5.63535303       0.67500000
In       8.81770127       5.87825103       8.81770100       0.67500000
In       5.87825119       8.81770109       8.81770094       0.67500000
In       8.81770128       8.81770115       5.87825093       0.67500000
63
Lattice="11.8016818 -7.6e-06 -7.6e-06 -7.6e-06 11.8016818 -7.8e-06 -7.6e-06 -7.8e-06 11.8016816" Properties=species:S:1:pos:R:3:mulliken_charges:R:1 virial="-0.001343979365248383 3.847269175329341e-05 3.847269175329341e-05 3.847269175329341e-05 -0.001345261788306826 3.847269175329341e-05 3.847269175329341e-05 3.847269175329341e-05 -0.0013426969421899398" fermi_energy=3.4539138232004998 core_to_fermi_energy=15.43004959127955 config_type=Accurate_Bulk energy=-265.9464564281249 pbc="T T T"
P        1.69713284       1.69713279       4.43106613      -0.67500000
P        4.48979517       1.55933702       1.48959230      -0.67500000
P        1.55933699       4.48979516       1.48959221      -0.67500000
In       0.01511933       0.01511931       0.02590455       0.67500000
In       3.01485812       0.08261178       2.95060339       0.67500000
In       0.08261184       3.01485806       2.95060334       0.67500000
In       2.96920122       2.96920119      -0.00399404       0.67500000
P        1.48375289       1.48375273      10.32487556      -0.67500000
P        4.45036835       1.53244752       7.37171971      -0.67500000
P        1.53244764       4.45036823       7.37171964      -0.67500000
P        4.45003230       4.45003214      10.32084687      -0.67500000
In       0.14351396       0.14351383       5.78994522       0.67500000
In       2.97395147       0.01804719       8.83796011       0.67500000
In       0.01804738       2.97395130       8.83796006       0.67500000
In       3.29166739       3.29166724       5.81251333       0.67500000
P        1.55598488       7.31330674       4.39964198      -0.67500000
P        4.42423924       7.33362273       1.53501512      -0.67500000
P        1.50935316      10.36502248       1.51897738      -0.67500000
P        4.44347082      10.34645206       4.42769663      -0.67500000
In       0.01136312       5.92389439       0.01029896       0.67500000
In       3.20401649       5.68048579       3.15724578       0.67500000
In       0.04774413       8.84502415       2.98185576       0.67500000
In       2.96963457       8.85218338       0.05256546       0.67500000
P        1.46733801       7.43270979      10.33430922      -0.67500000
P        4.44714975       7.31535726       7.30195216      -0.67500000
P        1.49351826      10.37791850       7.32296791      -0.67500000
P        4.44333914      10.31476786      10.32573264      -0.67500000
In       0.03813649       5.91548034       5.90475198       0.67500000
In       2.95634668       5.95233565       8.86569944       0.67500000
In       0.00838473       8.90004385       8.81057324       0.67500000
In       2.96304048       8.83912237       5.88788187       0.67500000
P        7.31330679       1.55598483       4.39964209      -0.67500000
P       10.36502248       1.50935316       1.51897753      -0.67500000
P        7.33362271       4.42423923       1.53501519      -0.67500000
P       10.34645211       4.44347077       4.42769673      -0.67500000
In       5.92389440       0.01136312       0.01029909       0.67500000
In       8.84502422       0.04774407       2.98185591       0.67500000
In       5.68048581       3.20401648       3.15724592       0.67500000
In       8.85218338       2.96963456       0.05256558       0.67500000
P        7.43270994       1.46733785      10.33430933      -0.67500000
P       10.37791861       1.49351814       7.32296806      -0.67500000
P        7.31535740       4.44714963       7.30195223      -0.67500000
P       10.31476801       4.44333897      10.32573274      -0.67500000
In       5.91548047       0.03813637       5.90475208       0.67500000
In       8.90004402       0.00838456       8.81057339       0.67500000
In       5.95233582       2.95634650       8.86569949       0.67500000
In       8.83912250       2.96304035       5.88788197       0.67500000
P        7.28980868       7.28980862       4.47345397      -0.67500000
P       10.33277345       7.39357432       1.50165166      -0.67500000
P        7.39357432      10.33277345       1.50165161      -0.67500000
P       10.37540302      10.37540297       4.43638766      -0.67500000
In       5.91720383       5.91720380       0.02292476       0.67500000
In       8.82851095       5.91450686       2.97152241       0.67500000
In       5.91450693       8.82851089       2.97152237       0.67500000
In       8.86439700       8.86439699       0.00139304       0.67500000
P        7.38526663       7.38526647      10.31614660      -0.67500000
P       10.32633191       7.39366895       7.35635037      -0.67500000
P        7.39366906      10.32633180       7.35635032      -0.67500000
P       10.34669415      10.34669399      10.32943981      -0.67500000
In       5.60039775       5.60039759       5.65503065       0.67500000
In       8.82162686       5.89652874       8.80200793       0.67500000
In       5.89652890       8.82162668       8.80200787       0.67500000
In       8.83788822       8.83788810       5.84794467       0.67500000
63
Lattice="11.8016818 -7.6e-06 -7.6e-06 -7.6e-06 11.8016818 -7.8e-06 -7.6e-06 -7.8e-06 11.8016816" Properties=species:S:1:pos:R:3:mulliken_charges:R:1 virial="-0.001343979365248383 3.847269175329341e-05 3.847269175329341e-05 3.847269175329341e-05 -0.001345261788306826 3.847269175329341e-05 3.847269175329341e-05 3.847269175329341e-05 -0.0013426969421899398" fermi_energy=3.4539138232004998 core_to_fermi_energy=15.43004959127955 config_type=Accurate_Bulk energy=-265.69196192855975 pbc="T T T"
P        1.88266041       1.88266038       4.34463359      -0.67500000
P        4.49919830       1.54140873       1.43920572      -0.67500000
P        1.54140871       4.49919830       1.43920563      -0.67500000
In       0.00925225       0.00925224       0.03804759       0.67500000
In       3.03998905       0.09407905       2.94465465       0.67500000
In       0.09407912       3.03998900       2.94465458       0.67500000
In       2.96411352       2.96411349      -0.02805789       0.67500000
P        1.46896409       1.46896393      10.32474518      -0.67500000
P        4.47343842       1.48800906       7.43240739      -0.67500000
P        1.48800918       4.47343830       7.43240733      -0.67500000
P        4.45358597       4.45358581      10.31883970      -0.67500000
In       0.22093603       0.22093590       5.70088195       0.67500000
In       2.95403264      -0.01724749       8.85564366       0.67500000
In      -0.01724730       2.95403247       8.85564360       0.67500000
In       3.31388110       3.31388096       5.99677065       0.67500000
P        1.55416208       7.29966167       4.39514243      -0.67500000
P        4.42206620       7.33352672       1.53274303      -0.67500000
P        1.50758263      10.37669143       1.54147813      -0.67500000
P        4.43643791      10.34579037       4.43165890      -0.67500000
In      -0.01501535       5.94007838      -0.01041120       0.67500000
In       3.18132697       5.67365931       3.11567917       0.67500000
In       0.04495793       8.84156923       2.98825255       0.67500000
In       2.95698746       8.85698077       0.07272010       0.67500000
P        1.45481878       7.45568667      10.33915110      -0.67500000
P        4.43686917       7.31525307       7.30311645      -0.67500000
P        1.47975839      10.39420552       7.29199609      -0.67500000
P        4.44035275      10.28944369      10.33071109      -0.67500000
In       0.02912087       5.91655035       5.90450021       0.67500000
In       2.95124377       5.97299143       8.89040862       0.67500000
In       0.00294232       8.91303364       8.79509945       0.67500000
In       2.95183262       8.83496332       5.88442941       0.67500000
P        7.29966173       1.55416203       4.39514253      -0.67500000
P       10.37669142       1.50758263       1.54147828      -0.67500000
P        7.33352670       4.42206619       1.53274310      -0.67500000
P       10.34579042       4.43643786       4.43165900      -0.67500000
In       5.94007839      -0.01501535      -0.01041107       0.67500000
In       8.84156930       0.04495787       2.98825271       0.67500000
In       5.67365934       3.18132696       3.11567930       0.67500000
In       8.85698077       2.95698744       0.07272021       0.67500000
P        7.45568683       1.45481861      10.33915122      -0.67500000
P       10.39420565       1.47975827       7.29199623      -0.67500000
P        7.31525320       4.43686904       7.30311652      -0.67500000
P       10.28944385       4.44035257      10.33071118      -0.67500000
In       5.91655048       0.02912075       5.90450031       0.67500000
In       8.91303381       0.00294216       8.79509960       0.67500000
In       5.97299160       2.95124359       8.89040867       0.67500000
In       8.83496345       2.95183249       5.88442951       0.67500000
P        7.28228461       7.28228456       4.47376909      -0.67500000
P       10.32391977       7.39362167       1.50822083      -0.67500000
P        7.39362167      10.32391978       1.50822079      -0.67500000
P       10.38608753      10.38608747       4.43737170      -0.67500000
In       5.91694839       5.91694837       0.02343258       0.67500000
In       8.82575804       5.90577563       2.97742371       0.67500000
In       5.90577570       8.82575798       2.97742367       0.67500000
In       8.86166425       8.86166425       0.00288229       0.67500000
P        7.38350208       7.38350192      10.31650994      -0.67500000
P       10.31873893       7.39529443       7.35431787      -0.67500000
P        7.39529454      10.31873882       7.35431782      -0.67500000
P       10.34520012      10.34519996      10.33185071      -0.67500000
In       5.58958258       5.58958242       5.66865317       0.67500000
In       8.81230760       5.89606466       8.79701891       0.67500000
In       5.89606483       8.81230743       8.79701886       0.67500000
In       8.83760257       8.83760244       5.83955875       0.67500000
63
Lattice="11.8016818 -7.6e-06 -7.6e-06 -7.6e-06 11.8016818 -7.8e-06 -7.6e-06 -7.8e-06 11.8016816" Properties=species:S:1:pos:R:3:mulliken_charges:R:1 virial="-0.001343979365248383 3.847269175329341e-05 3.847269175329341e-05 3.847269175329341e-05 -0.001345261788306826 3.847269175329341e-05 3.847269175329341e-05 3.847269175329341e-05 -0.0013426969421899398" fermi_energy=3.4539138232004998 core_to_fermi_energy=15.43004959127955 config_type=Accurate_Bulk energy=-265.19526790125434 pbc="T T T"
P        2.08813283       2.08813280       4.19931384      -0.67500000
P        4.49923736       1.52736589       1.41978823      -0.67500000
P        1.52736587       4.49923737       1.41978813      -0.67500000
In       0.00788589       0.00788587       0.04098709       0.67500000
In       3.03521949       0.09668112       2.95534769       0.67500000
In       0.09668118       3.03521945       2.95534761       0.67500000
In       2.96275221       2.96275218      -0.03383480       0.67500000
P        1.46522341       1.46522325      10.32492611      -0.67500000
P        4.48141883       1.46630953       7.45358464      -0.67500000
P        1.46630965       4.48141872       7.45358458      -0.67500000
P        4.45439813       4.45439797      10.31799284      -0.67500000
In       0.19992819       0.19992805       5.69827577       0.67500000
In       2.94827039      -0.02881962       8.86480408       0.67500000
In      -0.02881943       2.94827021       8.86480402       0.67500000
In       3.30311670       3.30311656       6.08740787       0.67500000
P        1.55497526       7.29394430       4.39286837      -0.67500000
P        4.41913993       7.33034903       1.53447433      -0.67500000
P        1.50522899      10.38208516       1.54936824      -0.67500000
P        4.43007060      10.34764010       4.43357916      -0.67500000
In      -0.02310782       5.94435209      -0.01690081       0.67500000
In       3.16843362       5.66089232       3.10173844       0.67500000
In       0.04677863       8.83706513       2.98711569       0.67500000
In       2.95406649       8.85844607       0.08113527       0.67500000
P        1.45530883       7.45793151      10.34300029      -0.67500000
P        4.43515557       7.31443595       7.30321533      -0.67500000
P        1.48029746      10.38417509       7.29707994      -0.67500000
P        4.44024404      10.28077658      10.33405399      -0.67500000
In       0.02472985       5.91787210       5.90127284       0.67500000
In       2.95116833       5.97663756       8.89490061       0.67500000
In       0.00047956       8.90985664       8.79753013       0.67500000
In       2.94973820       8.83192753       5.88204444       0.67500000
P        7.29394435       1.55497521       4.39286847      -0.67500000
P       10.38208516       1.50522899       1.54936838      -0.67500000
P        7.33034901       4.41913992       1.53447440      -0.67500000
P       10.34764016       4.43007055       4.43357925      -0.67500000
In       5.94435209      -0.02310782      -0.01690067       0.67500000
In       8.83706520       0.04677857       2.98711584       0.67500000
In       5.66089234       3.16843361       3.10173857       0.67500000
In       8.85844607       2.95406648       0.08113538       0.67500000
P        7.45793166       1.45530866      10.34300040      -0.67500000
P       10.38417522       1.48029733       7.29708008      -0.67500000
P        7.31443608       4.43515544       7.30321540      -0.67500000
P       10.28077674       4.44024386      10.33405408      -0.67500000
In       5.91787223       0.02472973       5.90127294       0.67500000
In       8.90985682       0.00047939       8.79753028       0.67500000
In       5.97663774       2.95116815       8.89490066       0.67500000
In       8.83192767       2.94973806       5.88204453       0.67500000
P        7.28214874       7.28214869       4.46747194      -0.67500000
P       10.32140458       7.39186231       1.50818493      -0.67500000
P        7.39186230      10.32140459       1.50818489      -0.67500000
P       10.36805000      10.36804995       4.42777985      -0.67500000
In       5.91621370       5.91621368       0.02501440       0.67500000
In       8.82791200       5.89899567       2.97769297       0.67500000
In       5.89899573       8.82791194       2.97769293       0.67500000
In       8.86026351       8.86026350       0.00381955       0.67500000
P        7.38217518       7.38217502      10.31743144      -0.67500000
P       10.31635710       7.39345108       7.35525354      -0.67500000
P        7.39345119      10.31635699       7.35525350      -0.67500000
P       10.34381020      10.34381005      10.33412847      -0.67500000
In       5.59548748       5.59548732       5.67241907       0.67500000
In       8.80912508       5.89529571       8.79655630       0.67500000
In       5.89529588       8.80912490       8.79655625       0.67500000
In       8.83205036       8.83205024       5.84251483       0.67500000
63
Lattice="11.8016818 -7.6e-06 -7.6e-06 -7.6e-06 11.8016818 -7.8e-06 -7.6e-06 -7.8e-06 11.8016816" Properties=species:S:1:pos:R:3:mulliken_charges:R:1 virial="-0.001343979365248383 3.847269175329341e-05 3.847269175329341e-05 3.847269175329341e-05 -0.001345261788306826 3.847269175329341e-05 3.847269175329341e-05 3.847269175329341e-05 -0.0013426969421899398" fermi_energy=3.4539138232004998 core_to_fermi_energy=15.43004959127955 config_type=Accurate_Bulk energy=-264.7816869125038 pbc="T T T"
P        2.29155319       2.29155316       4.04849531      -0.67500000
P        4.49625997       1.51668128       1.40831540      -0.67500000
P        1.51668126       4.49625998       1.40831530      -0.67500000
In       0.00709811       0.00709809       0.04260729       0.67500000
In       3.01747288       0.10698349       2.97477570       0.67500000
In       0.10698355       3.01747285       2.97477561       0.67500000
In       2.96196825       2.96196823      -0.03728251       0.67500000
P        1.46301602       1.46301586      10.32464512      -0.67500000
P        4.48579588       1.45083816       7.46503024      -0.67500000
P        1.45083828       4.48579576       7.46503018      -0.67500000
P        4.45501952       4.45501935      10.31681694      -0.67500000
In       0.14727647       0.14727631       5.72892359       0.67500000
In       2.94632142      -0.03504085       8.87141255       0.67500000
In      -0.03504066       2.94632125       8.87141249       0.67500000
In       3.27048766       3.27048752       6.14625390       0.67500000
P        1.55552658       7.29065530       4.39142765      -0.67500000
P        4.41694853       7.32767564       1.53627430      -0.67500000
P        1.50485504      10.38842661       1.55554677      -0.67500000
P        4.42264113      10.35339341       4.43270595      -0.67500000
In      -0.02755026       5.94623954      -0.02007613       0.67500000
In       3.15772496       5.64780828       3.09474013       0.67500000
In       0.04959001       8.83434271       2.98492257       0.67500000
In       2.95251504       8.85963568       0.08661094       0.67500000
P        1.45672095       7.45799499      10.34532444      -0.67500000
P        4.43421507       7.31418768       7.30269178      -0.67500000
P        1.48327120      10.37228881       7.30607625      -0.67500000
P        4.44058406      10.27558637      10.33631483      -0.67500000
In       0.02116931       5.91879876       5.89820202       0.67500000
In       2.95155693       5.97776128       8.89577337       0.67500000
In      -0.00115435       8.90583085       8.80096965       0.67500000
In       2.95001288       8.83022827       5.87890602       0.67500000
P        7.29065535       1.55552653       4.39142775      -0.67500000
P       10.38842661       1.50485504       1.55554691      -0.67500000
P        7.32767562       4.41694853       1.53627436      -0.67500000
P       10.35339346       4.42264107       4.43270605      -0.67500000
In       5.94623954      -0.02755025      -0.02007600       0.67500000
In       8.83434277       0.04958995       2.98492273       0.67500000
In       5.64780830       3.15772495       3.09474026       0.67500000
In       8.85963568       2.95251503       0.08661104       0.67500000
P        7.45799514       1.45672078      10.34532455      -0.67500000
P       10.37228895       1.48327107       7.30607639      -0.67500000
P        7.31418782       4.43421494       7.30269185      -0.67500000
P       10.27558653       4.44058389      10.33631492      -0.67500000
In       5.91879889       0.02116919       5.89820212       0.67500000
In       8.90583103      -0.00115451       8.80096979       0.67500000
In       5.97776145       2.95155675       8.89577342       0.67500000
In       8.83022841       2.95001274       5.87890612       0.67500000
P        7.28453648       7.28453643       4.46160197      -0.67500000
P       10.32047258       7.39101212       1.50805402      -0.67500000
P        7.39101212      10.32047259       1.50805398      -0.67500000
P       10.35231281      10.35231275       4.41882116      -0.67500000
In       5.91561246       5.91561244       0.02617983       0.67500000
In       8.83105885       5.89366059       2.97759553       0.67500000
In       5.89366065       8.83105878       2.97759549       0.67500000
In       8.85935080       8.85935080       0.00440471       0.67500000
P        7.38127149       7.38127133      10.31816547      -0.67500000
P       10.31500975       7.39225741       7.35581760      -0.67500000
P        7.39225753      10.31500964       7.35581756      -0.67500000
P       10.34289557      10.34289541      10.33557482      -0.67500000
In       5.60536495       5.60536478       5.67362377       0.67500000
In       8.80727773       5.89486617       8.79620278       0.67500000
In       5.89486634       8.80727755       8.79620273       0.67500000
In       8.82852056       8.82852044       5.84496548       0.67500000
63
Lattice="11.8016818 -7.6e-06 -7.6e-06 -7.6e-06 11.8016818 -7.8e-06 -7.6e-06 -7.8e-06 11.8016816" Properties=species:S:1:pos:R:3:mulliken_charges:R:1 virial="-0.001343979365248383 3.847269175329341e-05 3.847269175329341e-05 3.847269175329341e-05 -0.001345261788306826 3.847269175329341e-05 3.847269175329341e-05 3.847269175329341e-05 -0.0013426969421899398" fermi_energy=3.4539138232004998 core_to_fermi_energy=15.43004959127955 config_type=Accurate_Bulk energy=-264.59651655858113 pbc="T T T"
P        2.51358292       2.51358289       3.92441976      -0.67500000
P        4.48940531       1.50175538       1.39035234      -0.67500000
P        1.50175536       4.48940531       1.39035224      -0.67500000
In       0.00547722       0.00547721       0.04497301       0.67500000
In       2.98759024       0.14407856       3.00104999       0.67500000
In       0.14407861       2.98759022       3.00104989       0.67500000
In       2.96045791       2.96045788      -0.04659669       0.67500000
P        1.45882015       1.45881999      10.32294599      -0.67500000
P        4.49350439       1.42747829       7.48078828      -0.67500000
P        1.42747841       4.49350427       7.48078822      -0.67500000
P        4.45623945       4.45623928      10.31402408      -0.67500000
In       0.10757029       0.10757013       5.75399554       0.67500000
In       2.94385562      -0.04594952       8.88017735       0.67500000
In      -0.04594934       2.94385545       8.88017729       0.67500000
In       3.19054286       3.19054272       6.21680027       0.67500000
P        1.55453472       7.28753979       4.39032208      -0.67500000
P        4.41417317       7.32386709       1.53909126      -0.67500000
P        1.50583245      10.39951407       1.56415049      -0.67500000
P        4.40840156      10.36723073       4.42683172      -0.67500000
In      -0.03489670       5.94947532      -0.02550651       0.67500000
In       3.13736425       5.64012143       3.08175915       0.67500000
In       0.05275681       8.83397614       2.98202839       0.67500000
In       2.94987009       8.86122652       0.09475209       0.67500000
P        1.45864097       7.45856099      10.34739030      -0.67500000
P        4.43213986       7.31526046       7.30088501      -0.67500000
P        1.48406623      10.36311102       7.31162649      -0.67500000
P        4.44102083      10.26694744      10.33949414      -0.67500000
In       0.01412620       5.91945071       5.89290468       0.67500000
In       2.95288524       5.97860444       8.89526335       0.67500000
In      -0.00239588       8.90162408       8.80410901       0.67500000
In       2.95049566       8.83131331       5.87357718       0.67500000
P        7.28753984       1.55453467       4.39032218      -0.67500000
P       10.39951407       1.50583245       1.56415064      -0.67500000
P        7.32386707       4.41417317       1.53909132      -0.67500000
P       10.36723077       4.40840151       4.42683181      -0.67500000
In       5.94947532      -0.03489670      -0.02550638       0.67500000
In       8.83397620       0.05275675       2.98202855       0.67500000
In       5.64012146       3.13736424       3.08175928       0.67500000
In       8.86122652       2.94987007       0.09475220       0.67500000
P        7.45856114       1.45864080      10.34739041      -0.67500000
P       10.36311116       1.48406610       7.31162663      -0.67500000
P        7.31526060       4.43213972       7.30088508      -0.67500000
P       10.26694759       4.44102066      10.33949423      -0.67500000
In       5.91945084       0.01412608       5.89290478       0.67500000
In       8.90162426      -0.00239604       8.80410916       0.67500000
In       5.97860462       2.95288506       8.89526341       0.67500000
In       8.83131345       2.95049552       5.87357728       0.67500000
P        7.29324744       7.29324738       4.45055578      -0.67500000
P       10.31963226       7.39070078       1.50838865      -0.67500000
P        7.39070077      10.31963226       1.50838862      -0.67500000
P       10.34259952      10.34259946       4.41152465      -0.67500000
In       5.91423311       5.91423309       0.02814615       0.67500000
In       8.83817563       5.88464886       2.97751930       0.67500000
In       5.88464892       8.83817557       2.97751926       0.67500000
In       8.85777576       8.85777575       0.00520146       0.67500000
P        7.37954176       7.37954160      10.31957720      -0.67500000
P       10.31288103       7.39146782       7.35639509      -0.67500000
P        7.39146794      10.31288092       7.35639505      -0.67500000
P       10.34113250      10.34113235      10.33655766      -0.67500000
In       5.62962542       5.62962525       5.67434850       0.67500000
In       8.80436332       5.89471204       8.79549092       0.67500000
In       5.89471221       8.80436314       8.79549087       0.67500000
In       8.82799219       8.82799207       5.84687070       0.67500000
63