 +-------------------------------------------------+
 |                                                 |
 |      CCC   AA    SSS  TTTTT  EEEEE  PPPP        |
 |     C     A  A  S       T    E      P   P       |
 |     C     AAAA   SS     T    EEE    PPPP        |
 |     C     A  A     S    T    E      P           |
 |      CCC  A  A  SSS     T    EEEEE  P           |
 |                                                 |
 +-------------------------------------------------+
 |                                                 |
 | Welcome to Academic Release CASTEP version 22.11|
 | Ab Initio Total Energy Program                  |
 |                                                 |
 | Authors:                                        |
 | M. Segall, M. Probert, C. Pickard, P. Hasnip,   |
 | S. Clark, K. Refson, J. R. Yates, M. Payne      |
 |                                                 |
 | Contributors:                                   |
 | P. Lindan, P. Haynes, J. White, V. Milman,      |
 | N. Govind, M. Gibson, P. Tulip, V. Cocula,      |
 | B. Montanari, D. Quigley, M. Glover,            |
 | L. Bernasconi, A. Perlov, M. Plummer,           |
 | E. McNellis, J. Meyer, J. Gale, D. Jochym       |
 | J. Aarons, B. Walker, R. Gillen, D. Jones       |
 | T. Green, I. J. Bush, C. J. Armstrong,          |
 | E. J. Higgins, E. L. Brown, M. S. McFly,        |
 | J. Wilkins, B-C. Shih, P. J. P. Byrne,          |
 | R. J. Maurer, J. C. Womack, J. Dziedzic,        |
 | A. Bartok-Partay, L. LeBlanc, T. K. Stenczel,   |
 | J. Kermode, S. Sturniolo, B. Shi, B. Durham     |
 | M. Evans, M. J. Smith                           |
 |                                                 |
 | Copyright (c) 2000 - 2021                       |
 |                                                 |
 |     Distributed under license from Cambridge    |
 |     Enterprise for academic use only.           |
 |                                                 |
 | Please cite                                     |
 |                                                 |
 |     "First principles methods using CASTEP"     |
 |                                                 |
 |         Zeitschrift fuer Kristallographie       |
 |           220(5-6) pp. 567-570 (2005)           |
 |                                                 |
 | S. J. Clark, M. D. Segall, C. J. Pickard,       |
 | P. J. Hasnip, M. J. Probert, K. Refson,         |
 | M. C. Payne                                     |
 |                                                 |
 |       in all publications arising from          |
 |              your use of CASTEP                 |
 |                                                 |
 +-------------------------------------------------+
 |                                                 |
 |              http://www.castep.org              |
 |                                                 |
 +-------------------------------------------------+



 Compiled for linux_x86_64_gfortran10-XT on Thu, 16 Mar 2023 13:12:36 +0000
 from code version Version unavailable
 Compiler: GNU Fortran 11.2.0; Optimisation: fast
 MATHLIBS: LibSci (LAPACK version 3.10.1)
 FFT Lib : fftw3 version commercial-fftw-3.3.10-sse2-avx-avx2-avx2_128
 Fundamental constants values: CODATA 2014

 Run started: Mon, 25 Mar 2024 19:53:53 +0000

 Atomic calculation performed for P: 1s2 2s2 2p6 3s2 3p3

 Converged in 47 iterations to an ae energy of -9309.074 eV

   ============================================================                
   | Pseudopotential Report - Date of generation 25-03-2024   |                
   ------------------------------------------------------------                
   | Element: P Ionic charge:  5.00 Level of theory: RSCAN    |                
   | Atomic Solver: Koelling-Harmon                           |                
   |                                                          |                
   |               Reference Electronic Structure             |                
   |         Orbital         Occupation         Energy        |                
   |            3s              2.000           -0.535        |                
   |            3p              3.000           -0.209        |                
   |                                                          |                
   |                 Pseudopotential Definition               |                
   |        Beta     l      e      Rc     scheme   norm       |                
   |          1      0   -0.535   1.807     qc      0         |                
   |          2      0    0.250   1.807     qc      0         |                
   |          3      1   -0.209   1.807     qc      0         |                
   |          4      1    0.250   1.807     qc      0         |                
   |          5      2    0.000   1.807     qc      0         |                
   |          6      2    0.250   1.807     qc      0         |                
   |         loc     3    0.000   1.807     pn      0         |                
   |                                                          |                
   | Augmentation charge Rinner = 1.263                       |                
   | Partial core correction Rc = 1.263                       |                
   ------------------------------------------------------------                
   | "3|1.8|4|4|5|30:31:32"                                   |                
   ------------------------------------------------------------                
   |      Author: Chris J. Pickard, Cambridge University      |                
   ============================================================                
 Warning: otfg_output_psp cannot write out meta-GGA pseudopotentials presently.

 Atomic calculation performed for In:
 1s2 2s2 2p6 3s2 3p6 3d10 4s2 4p6 4d10 5s2 5p1

 Converged in 84 iterations to an ae energy of -160093.327 eV

   ============================================================                
   | Pseudopotential Report - Date of generation 25-03-2024   |                
   ------------------------------------------------------------                
   | Element: In Ionic charge: 13.00 Level of theory: RSCAN   |                
   | Atomic Solver: Koelling-Harmon                           |                
   |                                                          |                
   |               Reference Electronic Structure             |                
   |         Orbital         Occupation         Energy        |                
   |            4d             10.000           -0.711        |                
   |            5s              2.000           -0.313        |                
   |            5p              1.000           -0.095        |                
   |                                                          |                
   |                 Pseudopotential Definition               |                
   |        Beta     l      e      Rc     scheme   norm       |                
   |          1      0   -0.313   2.501     qc      0         |                
   |          2      0    0.250   2.501     qc      0         |                
   |          3      1   -0.095   2.501     qc      0         |                
   |          4      1    0.250   2.501     qc      0         |                
   |          5      2   -0.711   2.207     qc      0         |                
   |          6      2    0.250   2.207     qc      0         |                
   |         loc     3    0.000   2.501     pn      0         |                
   |                                                          |                
   | Augmentation charge Rinner = 1.504                       |                
   | Partial core correction Rc = 1.504                       |                
   ------------------------------------------------------------                
   | "3|2.5|2.5|1.5|7|8|9|50:51:42U2.2U2.2"                   |                
   ------------------------------------------------------------                
   |      Author: Chris J. Pickard, Cambridge University      |                
   ============================================================                
 Warning: otfg_output_psp cannot write out meta-GGA pseudopotentials presently.

 Pseudo atomic calculation performed for P 3s2 3p3

 Converged in 23 iterations to a total energy of -208.0292 eV

 Pseudo atomic calculation performed for In 4d10 5s2 5p1

 Converged in 42 iterations to a total energy of -1747.4500 eV
 Calculation parallelised over 252 processes.
 Data is distributed by G-vector(7-way) and k-point(36-way)
 Each process may use up to 2 threads.

 ************************************ Title ************************************
 

 ***************************** General Parameters ******************************
  
 output verbosity                               : normal  (1)
 write checkpoint data to                       : StackingFaultStructs_(1_1_1)_(1_1_-2)_5.check
 type of calculation                            : geometry optimization
 stress calculation                             : off
 density difference calculation                 : off
 electron localisation func (ELF) calculation   : off
 Hirshfeld analysis                             : on
 polarisation (Berry phase) analysis            : off
 molecular orbital projected DOS                : off
 deltaSCF calculation                           : off
 unlimited duration calculation
 timing information                             : on
 memory usage estimate                          : on
 write extra output files                       : on
 write final potential to formatted file        : off
 write final density to formatted file          : off
 write BibTeX reference list                    : on
 write OTFG pseudopotential files               : on
 write electrostatic potential file             : on
 write bands file                               : on
 checkpoint writing                             : off
  
 output         length unit                     : A
 output           mass unit                     : amu
 output           time unit                     : ps
 output         charge unit                     : e
 output           spin unit                     : hbar/2
 output         energy unit                     : eV
 output          force unit                     : eV/A
 output       velocity unit                     : A/ps
 output       pressure unit                     : GPa
 output     inv_length unit                     : 1/A
 output      frequency unit                     : cm-1
 output force constant unit                     : eV/A**2
 output         volume unit                     : A**3
 output   IR intensity unit                     : (D/A)**2/amu
 output         dipole unit                     : D
 output         efield unit                     : eV/A/e
 output        entropy unit                     : J/mol/K
 output    efield chi2 unit                     : pm/V
  
 wavefunctions paging                           : none
 random number generator seed                   : randomised (195353504)
 data distribution                              : optimal for this architecture
 optimization strategy                          : balance speed and memory

 *********************** Exchange-Correlation Parameters ***********************
  
 using functional                               : RSCAN
 relativistic treatment                         : Koelling-Harmon
 DFT+D: Semi-empirical dispersion correction    : off

 ************************* Pseudopotential Parameters **************************
  
 pseudopotential representation                 : reciprocal space
 <beta|phi> representation                      : reciprocal space
 spin-orbit coupling                            : off

 **************************** Basis Set Parameters *****************************
  
 plane wave basis set cut-off                   :   900.0000   eV
 size of standard grid                          :     2.0000
 size of   fine   gmax                          :    30.7390   1/A
 finite basis set correction                    : none

 **************************** Electronic Parameters ****************************
  
 number of  electrons                           :  432.0    
 net charge of system                           :  0.000    
 treating system as non-spin-polarized
 number of bands                                :        259

 ********************* Electronic Minimization Parameters **********************
  
 Method: Treating system as metallic with density mixing treatment of electrons,
         and number of  SD  steps               :          1
         and number of  CG  steps               :          4
  
 total energy / atom convergence tol.           : 0.1000E-07   eV
 eigen-energy convergence tolerance             : 0.2222E-08   eV
 max force / atom convergence tol.              : ignored
 convergence tolerance window                   :          3   cycles
 max. number of SCF cycles                      :         50
 number of fixed-spin iterations                :         10
 smearing scheme                                : Gaussian
 smearing width                                 : 0.2000       eV
 Fermi energy convergence tolerance             : 0.2721E-13   eV
 periodic dipole correction                     : NONE

 ************************** Density Mixing Parameters **************************
  
 density-mixing scheme                          : Pulay
 max. length of mixing history                  :         15
 charge density mixing amplitude                : 0.5000    
 cut-off energy for mixing                      :  900.0       eV

 *********************** Population Analysis Parameters ************************
  
 Population analysis with cutoff                :  3.000       A
 Population analysis output                     : summary and pdos components

 ********************** Geometry Optimization Parameters ***********************
  
 optimization method                            : LBFGS
 max. no. of LBFGS updates                      : unbounded
 preconditioned LBFGS is activated
 preconditioner type                            : EXP
     stabilization constant                     :     0.1000
     parameter A                                :     3.0000
     nearest neighbor distance                  : automatic
     cut-off distance                           : automatic
     parameter mu                               : automatic
 variable cell method                           : fixed basis quality
 max. number of steps                           :         30
 estimated bulk modulus                         :  500.0       GPa
 estimated <frequency>                          :  1668.       cm-1
 geom line minimiser                            : on
 with line minimiser tolerance                  :     0.4000
 total energy convergence tolerance             : 0.2000E-04   eV/atom
        max ionic |force| tolerance             : 0.1000E-02   eV/A
 max ionic |displacement| tolerance             : 0.1000E-02   A
   max |stress component| tolerance             : 0.1000       GPa
 convergence tolerance window                   :          2   steps
 backup results every                           :          5   steps
 write geom trajectory file                     : on

 *******************************************************************************
  

                           -------------------------------
                                      Unit Cell
                           -------------------------------
        Real Lattice(A)                      Reciprocal Lattice(1/A)
     8.3456610     0.0000000     0.0000000        0.752868503   0.000000000   0.000000000
     0.0000000    14.4551090     0.0000000        0.000000000   0.434668829  -0.177321500
     0.0000000     4.1697430    10.2213060        0.000000000   0.000000000   0.614714529

                       Lattice parameters(A)       Cell Angles
                    a =      8.345661          alpha =   67.807183
                    b =     14.455109          beta  =   90.000000
                    c =     11.039106          gamma =   90.000000

                       Current cell volume =          1233.072183       A**3
                                   density =             2.837630   AMU/A**3
                                           =             4.711995     g/cm^3

                           -------------------------------
                                     Cell Contents
                           -------------------------------
                         Total number of ions in cell =   48
                      Total number of species in cell =    2
                        Max number of any one species =   24

            xxxxxxxxxxxxxxxxxxxxxxxxxxxxxxxxxxxxxxxxxxxxxxxxxxxxxxxxxxxx
            x  Element    Atom        Fractional coordinates of atoms  x
            x            Number           u          v          w      x
            x----------------------------------------------------------x
            x  P            1         0.000000   0.282471   0.754099   x 
            x  P            2         0.000000   0.713798   0.414390   x 
            x  P            3         0.250000   0.532471   0.754099   x 
            x  P            4         0.750000   0.532471   0.754099   x 
            x  P            5         0.250000   0.032471   0.754099   x 
            x  P            6         0.750000   0.032471   0.754099   x 
            x  P            7         0.500000   0.142101   0.085159   x 
            x  P            8         0.500000   0.282471   0.754099   x 
            x  P            9         0.000000   0.642101   0.085159   x 
            x  P           10         0.000000   0.142101   0.085159   x 
            x  P           11         0.250000   0.392101   0.085159   x 
            x  P           12         0.000000   0.213798   0.414390   x 
            x  P           13         0.250000  -0.036202   0.414390   x 
            x  P           14         0.000000  -0.217529   0.754099   x 
            x  P           15         0.500000  -0.217529   0.754099   x 
            x  P           16         0.750000   0.392101   0.085159   x 
            x  P           17         0.500000   0.642101   0.085159   x 
            x  P           18         0.750000   0.892101   0.085159   x 
            x  P           19         0.250000   0.892101   0.085159   x 
            x  P           20         0.500000   0.713798   0.414390   x 
            x  P           21         0.500000   0.213798   0.414390   x 
            x  P           22         0.750000   0.463798   0.414390   x 
            x  P           23         0.750000  -0.036202   0.414390   x 
            x  P           24         0.250000   0.463798   0.414390   x 
            x  In           1         0.500000   0.641872   0.663733   x 
            x  In           2         0.750000  -0.108128   0.663733   x 
            x  In           3         0.250000   0.750572  -0.001984   x 
            x  In           4         0.750000   0.750572  -0.001984   x 
            x  In           5         0.250000  -0.108128   0.663733   x 
            x  In           6         0.500000   0.141872   0.663733   x 
            x  In           7         0.500000   0.500572  -0.001984   x 
            x  In           8         0.250000   0.820147   0.334601   x 
            x  In           9         0.500000   0.570147   0.334601   x 
            x  In          10         0.750000   0.250572  -0.001984   x 
            x  In          11         0.750000   0.320147   0.334601   x 
            x  In          12         0.000000   0.070147   0.334601   x 
            x  In          13         0.000000   0.000572  -0.001984   x 
            x  In          14         0.000000   0.570147   0.334601   x 
            x  In          15         0.250000   0.391872   0.663733   x 
            x  In          16         0.000000   0.500572  -0.001984   x 
            x  In          17         0.250000   0.250572  -0.001984   x 
            x  In          18         0.000000   0.641872   0.663733   x 
            x  In          19         0.000000   0.141872   0.663733   x 
            x  In          20         0.750000   0.820147   0.334601   x 
            x  In          21         0.250000   0.320147   0.334601   x 
            x  In          22         0.500000   0.000572  -0.001984   x 
            x  In          23         0.500000   0.070147   0.334601   x 
            x  In          24         0.750000   0.391872   0.663733   x 
            xxxxxxxxxxxxxxxxxxxxxxxxxxxxxxxxxxxxxxxxxxxxxxxxxxxxxxxxxxxx


                         No user defined ionic velocities

                           -------------------------------
                                   Details of Species
                           -------------------------------

                               Mass of species in AMU
                                    P   30.9737600
                                    In  114.8180000

                          Electric Quadrupole Moment (Barn)
                                    P    1.0000000 No Isotope Defined
                                    In    0.7700000 Isotope115

                          Files used for pseudopotentials:
                                    P 3|1.8|4|4|5|30:31:32
                                    In 3|2.5|2.5|1.5|7|8|9|50:51:42U2.2U2.2

                           -------------------------------
                              k-Points For BZ Sampling
                           -------------------------------
                       MP grid size for SCF calculation is  4  4  4
                            with an offset of   0.125  0.125  0.125
                       Number of kpoints used =            36

                           -------------------------------
                               Symmetry and Constraints
                           -------------------------------

                      Cell is a supercell containing 8 primitive cells
                      Maximum deviation from symmetry =  0.00000         ANG

                      Number of symmetry operations   =           1
                      Number of ionic constraints     =          96
                      Point group of crystal =     1: C1, 1, 1
                      Space group of crystal =     8: Cm, C -2y

             Set iprint > 1 for details on symmetry rotations/translations

                         Centre of mass is NOT constrained
             Set iprint > 1 for details of linear ionic constraints

                         Number of cell constraints= 6
                         Cell constraints are:  0 0 0 0 0 0

                         External pressure/stress (GPa)
                          0.00000   0.00000   0.00000
                                    0.00000   0.00000
                                              0.00000
 
+---------------- MEMORY AND SCRATCH DISK ESTIMATES PER PROCESS --------------+
|                                                     Memory          Disk    |
| Baseline code, static data and system overhead      488.0 MB         0.0 MB |
| BLAS internal memory storage                          0.0 MB         0.0 MB |
| Model and support data                             1579.0 MB         0.0 MB |
| Electronic energy minimisation requirements         249.1 MB         0.0 MB |
| Force calculation requirements                       42.9 MB         0.0 MB |
|                                               ----------------------------- |
| Approx. total storage required per process         2316.1 MB         0.0 MB |
|                                                                             |
| Requirements will fluctuate during execution and may exceed these estimates |
+-----------------------------------------------------------------------------+
Calculating approximate eigenstates for fixed initial Hamiltonian
Cut-off for approx. calculation is   89.988 eV
Improving approx. states at cut-off of  450.000 eV
Resetting cut-off to  900.000 eV
Calculating total energy with cut-off of  900.000 eV.
------------------------------------------------------------------------ <-- SCF
SCF loop      Energy           Fermi           Energy gain       Timer   <-- SCF
                               energy          per atom          (sec)   <-- SCF
------------------------------------------------------------------------ <-- SCF
Initial  -4.72839223E+004  0.00000000E+000                        94.79  <-- SCF
      1  -4.70944339E+004  2.67334274E+000  -3.94767614E+000     165.53  <-- SCF
      2  -4.70947205E+004  2.67273349E+000   5.97193768E-003     220.35  <-- SCF
      3  -4.71447197E+004  3.00924717E+000   1.04165005E+000     284.17  <-- SCF
      4  -4.71540565E+004  3.07067723E+000   1.94516141E-001     360.99  <-- SCF
      5  -4.71471183E+004  3.33375423E+000  -1.44545743E-001     423.41  <-- SCF
      6  -4.71490924E+004  3.37141805E+000   4.11277911E-002     487.14  <-- SCF
      7  -4.71484533E+004  3.42249845E+000  -1.33159724E-002     553.03  <-- SCF
      8  -4.71499799E+004  3.44839421E+000   3.18041919E-002     616.70  <-- SCF
      9  -4.71499465E+004  3.41942617E+000  -6.94809142E-004     681.06  <-- SCF
     10  -4.71499382E+004  3.41623015E+000  -1.72675650E-004     745.54  <-- SCF
     11  -4.71499436E+004  3.41106499E+000   1.10721386E-004     810.28  <-- SCF
     12  -4.71499458E+004  3.41082793E+000   4.69990494E-005     874.41  <-- SCF
     13  -4.71499458E+004  3.41077247E+000  -2.35181672E-007     940.10  <-- SCF
     14  -4.71499458E+004  3.41070070E+000   2.52697115E-007     992.74  <-- SCF
     15  -4.71499458E+004  3.41070135E+000   8.37246813E-008    1040.91  <-- SCF
     16  -4.71499458E+004  3.41059705E+000  -1.48474912E-008    1088.49  <-- SCF
     17  -4.71499458E+004  3.41064263E+000   2.11770774E-008    1133.99  <-- SCF
     18  -4.71499458E+004  3.41065055E+000  -1.30832503E-010    1179.47  <-- SCF
     19  -4.71499458E+004  3.41065443E+000   2.07914116E-010    1224.96  <-- SCF
------------------------------------------------------------------------ <-- SCF
 
Final energy, E             =  -47149.91688565     eV
Final free energy (E-TS)    =  -47149.94581670     eV
(energies not corrected for finite basis set)
 
NB est. 0K energy (E-0.5TS)      =  -47149.93135118     eV
 
 
+---------------- MEMORY AND SCRATCH DISK ESTIMATES PER PROCESS --------------+
|                                                     Memory          Disk    |
| Model and support data                              994.9 MB         0.0 MB |
| Electronic energy minimisation requirements         249.1 MB         0.0 MB |
| Geometry minimisation requirements                  296.5 MB         0.0 MB |
|                                               ----------------------------- |
| Approx. total storage required per process         1540.5 MB         0.0 MB |
|                                                                             |
| Requirements will fluctuate during execution and may exceed these estimates |
+-----------------------------------------------------------------------------+
 

 ******************************** Constrained Forces ********************************
 *                                                                                  *
 *                           Cartesian components (eV/A)                            *
 * -------------------------------------------------------------------------------- *
 *                         x                    y                    z              *
 *                                                                                  *
 * P               1      0.00000(cons'd)      0.00000(cons'd)      0.17297         *
 * P               2      0.00000(cons'd)      0.00000(cons'd)     -0.06875         *
 * P               3      0.00000(cons'd)      0.00000(cons'd)      0.17266         *
 * P               4     -0.00000(cons'd)      0.00000(cons'd)      0.17266         *
 * P               5      0.00000(cons'd)      0.00000(cons'd)      0.17266         *
 * P               6     -0.00000(cons'd)      0.00000(cons'd)      0.17266         *
 * P               7      0.00000(cons'd)      0.00000(cons'd)     -0.14255         *
 * P               8      0.00000(cons'd)      0.00000(cons'd)      0.17297         *
 * P               9      0.00000(cons'd)     -0.00000(cons'd)     -0.14254         *
 * P              10      0.00000(cons'd)     -0.00000(cons'd)     -0.14254         *
 * P              11      0.00000(cons'd)     -0.00000(cons'd)     -0.14009         *
 * P              12      0.00000(cons'd)      0.00000(cons'd)     -0.06874         *
 * P              13      0.00000(cons'd)      0.00000(cons'd)     -0.07053         *
 * P              14      0.00000(cons'd)      0.00000(cons'd)      0.17297         *
 * P              15      0.00000(cons'd)      0.00000(cons'd)      0.17297         *
 * P              16      0.00000(cons'd)      0.00000(cons'd)     -0.14009         *
 * P              17      0.00000(cons'd)     -0.00000(cons'd)     -0.14255         *
 * P              18      0.00000(cons'd)      0.00000(cons'd)     -0.14009         *
 * P              19      0.00000(cons'd)      0.00000(cons'd)     -0.14009         *
 * P              20      0.00000(cons'd)      0.00000(cons'd)     -0.06875         *
 * P              21      0.00000(cons'd)      0.00000(cons'd)     -0.06875         *
 * P              22      0.00000(cons'd)      0.00000(cons'd)     -0.07053         *
 * P              23     -0.00000(cons'd)      0.00000(cons'd)     -0.07053         *
 * P              24      0.00000(cons'd)      0.00000(cons'd)     -0.07053         *
 * In              1      0.00000(cons'd)      0.00000(cons'd)      0.03511         *
 * In              2      0.00000(cons'd)      0.00000(cons'd)      0.03515         *
 * In              3      0.00000(cons'd)      0.00000(cons'd)     -0.12907         *
 * In              4      0.00000(cons'd)      0.00000(cons'd)     -0.12907         *
 * In              5      0.00000(cons'd)      0.00000(cons'd)      0.03516         *
 * In              6      0.00000(cons'd)      0.00000(cons'd)      0.03511         *
 * In              7      0.00000(cons'd)      0.00000(cons'd)     -0.12907         *
 * In              8      0.00000(cons'd)      0.00000(cons'd)      0.13210         *
 * In              9      0.00000(cons'd)      0.00000(cons'd)      0.13206         *
 * In             10      0.00000(cons'd)      0.00000(cons'd)     -0.12907         *
 * In             11      0.00000(cons'd)      0.00000(cons'd)      0.13210         *
 * In             12      0.00000(cons'd)      0.00000(cons'd)      0.13206         *
 * In             13      0.00000(cons'd)      0.00000(cons'd)     -0.12907         *
 * In             14     -0.00000(cons'd)      0.00000(cons'd)      0.13205         *
 * In             15      0.00000(cons'd)      0.00000(cons'd)      0.03516         *
 * In             16      0.00000(cons'd)      0.00000(cons'd)     -0.12907         *
 * In             17      0.00000(cons'd)      0.00000(cons'd)     -0.12907         *
 * In             18      0.00000(cons'd)      0.00000(cons'd)      0.03511         *
 * In             19      0.00000(cons'd)      0.00000(cons'd)      0.03511         *
 * In             20      0.00000(cons'd)      0.00000(cons'd)      0.13210         *
 * In             21      0.00000(cons'd)      0.00000(cons'd)      0.13210         *
 * In             22      0.00000(cons'd)      0.00000(cons'd)     -0.12907         *
 * In             23      0.00000(cons'd)      0.00000(cons'd)      0.13206         *
 * In             24      0.00000(cons'd)      0.00000(cons'd)      0.03515         *
 *                                                                                  *
 ************************************************************************************
 EXP precond LBFGS => estimated nearest neighbor distance :  2.580       A
 EXP precond LBFGS => estimated cutoff distance :  5.160       A

 ************************************** Forces **************************************
 *                                                                                  *
 *                           Cartesian components (eV/A)                            *
 * -------------------------------------------------------------------------------- *
 *                         x                    y                    z              *
 *                                                                                  *
 * P               1      0.00000(cons'd)      0.27716(cons'd)      0.17297         *
 * P               2      0.00000(cons'd)      0.01117(cons'd)     -0.06875         *
 * P               3      0.00000(cons'd)      0.27709(cons'd)      0.17266         *
 * P               4     -0.00000(cons'd)      0.27709(cons'd)      0.17266         *
 * P               5      0.00000(cons'd)      0.27710(cons'd)      0.17266         *
 * P               6     -0.00000(cons'd)      0.27710(cons'd)      0.17266         *
 * P               7     -0.00000(cons'd)     -0.18850(cons'd)     -0.14255         *
 * P               8     -0.00000(cons'd)      0.27717(cons'd)      0.17297         *
 * P               9      0.00000(cons'd)     -0.18849(cons'd)     -0.14254         *
 * P              10      0.00000(cons'd)     -0.18850(cons'd)     -0.14254         *
 * P              11      0.00000(cons'd)     -0.18833(cons'd)     -0.14009         *
 * P              12      0.00000(cons'd)      0.01116(cons'd)     -0.06874         *
 * P              13      0.00000(cons'd)      0.01237(cons'd)     -0.07053         *
 * P              14      0.00000(cons'd)      0.27717(cons'd)      0.17297         *
 * P              15     -0.00000(cons'd)      0.27717(cons'd)      0.17297         *
 * P              16     -0.00000(cons'd)     -0.18834(cons'd)     -0.14009         *
 * P              17     -0.00000(cons'd)     -0.18849(cons'd)     -0.14255         *
 * P              18     -0.00000(cons'd)     -0.18834(cons'd)     -0.14009         *
 * P              19      0.00000(cons'd)     -0.18834(cons'd)     -0.14009         *
 * P              20     -0.00001(cons'd)      0.01117(cons'd)     -0.06875         *
 * P              21     -0.00000(cons'd)      0.01117(cons'd)     -0.06875         *
 * P              22     -0.00000(cons'd)      0.01236(cons'd)     -0.07053         *
 * P              23     -0.00000(cons'd)      0.01237(cons'd)     -0.07053         *
 * P              24      0.00000(cons'd)      0.01236(cons'd)     -0.07053         *
 * In              1     -0.00000(cons'd)      0.15368(cons'd)      0.03511         *
 * In              2     -0.00000(cons'd)      0.15365(cons'd)      0.03515         *
 * In              3      0.00000(cons'd)     -0.14211(cons'd)     -0.12907         *
 * In              4     -0.00000(cons'd)     -0.14211(cons'd)     -0.12907         *
 * In              5      0.00000(cons'd)      0.15365(cons'd)      0.03516         *
 * In              6     -0.00000(cons'd)      0.15368(cons'd)      0.03511         *
 * In              7     -0.00000(cons'd)     -0.14209(cons'd)     -0.12907         *
 * In              8      0.00000(cons'd)     -0.11210(cons'd)      0.13210         *
 * In              9     -0.00000(cons'd)     -0.11202(cons'd)      0.13206         *
 * In             10     -0.00000(cons'd)     -0.14210(cons'd)     -0.12907         *
 * In             11     -0.00000(cons'd)     -0.11209(cons'd)      0.13210         *
 * In             12      0.00000(cons'd)     -0.11202(cons'd)      0.13206         *
 * In             13      0.00000(cons'd)     -0.14208(cons'd)     -0.12907         *
 * In             14      0.00000(cons'd)     -0.11202(cons'd)      0.13205         *
 * In             15      0.00000(cons'd)      0.15365(cons'd)      0.03516         *
 * In             16      0.00000(cons'd)     -0.14208(cons'd)     -0.12907         *
 * In             17      0.00000(cons'd)     -0.14210(cons'd)     -0.12907         *
 * In             18      0.00000(cons'd)      0.15368(cons'd)      0.03511         *
 * In             19      0.00000(cons'd)      0.15368(cons'd)      0.03511         *
 * In             20     -0.00000(cons'd)     -0.11210(cons'd)      0.13210         *
 * In             21      0.00000(cons'd)     -0.11209(cons'd)      0.13210         *
 * In             22     -0.00000(cons'd)     -0.14208(cons'd)     -0.12907         *
 * In             23     -0.00000(cons'd)     -0.11202(cons'd)      0.13206         *
 * In             24     -0.00000(cons'd)      0.15365(cons'd)      0.03515         *
 *                                                                                  *
 ************************************************************************************
 doing test perturbation to get energy scale for EXP preconditioner

                           -------------------------------
                                     Cell Contents
                           -------------------------------

            xxxxxxxxxxxxxxxxxxxxxxxxxxxxxxxxxxxxxxxxxxxxxxxxxxxxxxxxxxxxxxxxx
            x  Element         Atom        Fractional coordinates of atoms  x
            x                 Number           u          v          w      x
            x---------------------------------------------------------------x
            x  P                 1         0.000000   0.282862   0.755955   x
            x  P                 2         0.000000   0.714887   0.415497   x
            x  P                 3         0.251012   0.533239   0.755955   x
            x  P                 4         0.752602   0.533239   0.755955   x
            x  P                 5         0.251012   0.032417   0.755955   x
            x  P                 6         0.752602   0.032417   0.755955   x
            x  P                 7         0.501912   0.142356   0.085395   x
            x  P                 8         0.501912   0.282862   0.755955   x
            x  P                 9         0.000000   0.643220   0.085395   x
            x  P                10         0.000000   0.142356   0.085395   x
            x  P                11         0.251012   0.392817   0.085395   x
            x  P                12         0.000000   0.214113   0.415497   x
            x  P                13         0.251012   0.965130   0.415497   x
            x  P                14         0.000000   0.783519   0.755955   x
            x  P                15         0.501912   0.783519   0.755955   x
            x  P                16         0.752602   0.392817   0.085395   x
            x  P                17         0.501912   0.643220   0.085395   x
            x  P                18         0.752602   0.893536   0.085395   x
            x  P                19         0.251012   0.893536   0.085395   x
            x  P                20         0.501912   0.714887   0.415497   x
            x  P                21         0.501912   0.214113   0.415497   x
            x  P                22         0.752602   0.464539   0.415497   x
            x  P                23         0.752602   0.965130   0.415497   x
            x  P                24         0.251012   0.464539   0.415497   x
            x  In                1         0.501912   0.642796   0.665411   x
            x  In                2         0.752602   0.893039   0.665411   x
            x  In                3         0.251012   0.751542   1.000258   x
            x  In                4         0.752602   0.751542   1.000258   x
            x  In                5         0.251012   0.893039   0.665411   x
            x  In                6         0.501912   0.142023   0.665411   x
            x  In                7         0.501912   0.501278   1.000258   x
            x  In                8         0.251012   0.821388   0.335506   x
            x  In                9         0.501912   0.571073   0.335506   x
            x  In               10         0.752602   0.250915   1.000258   x
            x  In               11         0.752602   0.320670   0.335506   x
            x  In               12         0.000000   0.070209   0.335506   x
            x  In               13         0.000000   0.000478   1.000258   x
            x  In               14         0.000000   0.571073   0.335506   x
            x  In               15         0.251012   0.392449   0.665411   x
            x  In               16         0.000000   0.501278   1.000258   x
            x  In               17         0.251012   0.250915   1.000258   x
            x  In               18         0.000000   0.642796   0.665411   x
            x  In               19         0.000000   0.142023   0.665411   x
            x  In               20         0.752602   0.821388   0.335506   x
            x  In               21         0.251012   0.320670   0.335506   x
            x  In               22         0.501912   0.000478   1.000258   x
            x  In               23         0.501912   0.070209   0.335506   x
            x  In               24         0.752602   0.392449   0.665411   x
            xxxxxxxxxxxxxxxxxxxxxxxxxxxxxxxxxxxxxxxxxxxxxxxxxxxxxxxxxxxxxxxxx


------------------------------------------------------------------------ <-- SCF
SCF loop      Energy           Fermi           Energy gain       Timer   <-- SCF
                               energy          per atom          (sec)   <-- SCF
------------------------------------------------------------------------ <-- SCF
Initial  -4.71471253E+004  0.00000000E+000                      1291.08  <-- SCF
      1  -4.71495838E+004  3.42587418E+000   5.12186563E-002    1356.22  <-- SCF
      2  -4.71499258E+004  3.42577348E+000   7.12631697E-003    1433.16  <-- SCF
      3  -4.71499289E+004  3.42597793E+000   6.47136473E-005    1498.58  <-- SCF
      4  -4.71499307E+004  3.42570723E+000   3.75209483E-005    1566.79  <-- SCF
      5  -4.71499312E+004  3.42549349E+000   8.93919213E-006    1634.52  <-- SCF
      6  -4.71499312E+004  3.42539824E+000   1.17089780E-006    1701.58  <-- SCF
      7  -4.71499312E+004  3.42538479E+000   6.02369601E-008    1761.86  <-- SCF
      8  -4.71499312E+004  3.42537102E+000  -8.35458984E-009    1813.88  <-- SCF
      9  -4.71499312E+004  3.42536618E+000  -5.65351092E-010    1859.82  <-- SCF
------------------------------------------------------------------------ <-- SCF
 
Final energy, E             =  -47149.90264171     eV
Final free energy (E-TS)    =  -47149.93121113     eV
(energies not corrected for finite basis set)
 
NB est. 0K energy (E-0.5TS)      =  -47149.91692642     eV
 

 ************************************** Forces **************************************
 *                                                                                  *
 *                           Cartesian components (eV/A)                            *
 * -------------------------------------------------------------------------------- *
 *                         x                    y                    z              *
 *                                                                                  *
 * P               1      0.09367(cons'd)      0.24923(cons'd)      0.15629         *
 * P               2      0.14871(cons'd)     -0.03321(cons'd)     -0.05070         *
 * P               3      0.01205(cons'd)      0.30281(cons'd)      0.10901         *
 * P               4     -0.08038(cons'd)      0.24491(cons'd)      0.15947         *
 * P               5      0.01190(cons'd)      0.40137(cons'd)      0.13357         *
 * P               6     -0.08055(cons'd)      0.34385(cons'd)      0.18399         *
 * P               7     -0.02681(cons'd)     -0.10853(cons'd)     -0.05397         *
 * P               8     -0.02380(cons'd)      0.29779(cons'd)      0.11401         *
 * P               9      0.14211(cons'd)     -0.19288(cons'd)     -0.00774         *
 * P              10      0.14149(cons'd)     -0.16629(cons'd)     -0.01758         *
 * P              11      0.01071(cons'd)     -0.11687(cons'd)     -0.04898         *
 * P              12      0.14864(cons'd)     -0.01944(cons'd)     -0.04763         *
 * P              13      0.00538(cons'd)     -0.05200(cons'd)     -0.04705         *
 * P              14      0.09393(cons'd)      0.23987(cons'd)      0.15492         *
 * P              15     -0.02385(cons'd)      0.28898(cons'd)      0.11275         *
 * P              16     -0.12364(cons'd)     -0.18657(cons'd)     -0.00533         *
 * P              17     -0.02645(cons'd)     -0.13406(cons'd)     -0.04488         *
 * P              18     -0.12936(cons'd)     -0.27746(cons'd)      0.02855         *
 * P              19      0.01017(cons'd)     -0.20460(cons'd)     -0.01810         *
 * P              20     -0.02165(cons'd)      0.02356(cons'd)     -0.08656         *
 * P              21     -0.02241(cons'd)      0.03696(cons'd)     -0.08353         *
 * P              22     -0.13099(cons'd)     -0.03477(cons'd)     -0.04434         *
 * P              23     -0.13697(cons'd)     -0.12240(cons'd)     -0.00176         *
 * P              24      0.00601(cons'd)      0.03284(cons'd)     -0.08698         *
 * In              1     -0.02405(cons'd)      0.14245(cons'd)      0.04326         *
 * In              2     -0.08708(cons'd)      0.09244(cons'd)     -0.02439         *
 * In              3      0.01131(cons'd)     -0.20071(cons'd)     -0.16404         *
 * In              4     -0.09646(cons'd)     -0.15088(cons'd)     -0.23018         *
 * In              5      0.01347(cons'd)      0.05555(cons'd)      0.01806         *
 * In              6     -0.02397(cons'd)      0.15539(cons'd)      0.03441         *
 * In              7     -0.02270(cons'd)     -0.19701(cons'd)     -0.16747         *
 * In              8      0.00143(cons'd)     -0.14257(cons'd)      0.16128         *
 * In              9     -0.01311(cons'd)     -0.13412(cons'd)      0.14960         *
 * In             10     -0.09559(cons'd)     -0.15857(cons'd)     -0.22139         *
 * In             11     -0.10979(cons'd)     -0.07060(cons'd)      0.11546         *
 * In             12      0.12601(cons'd)      0.01003(cons'd)      0.06699         *
 * In             13      0.11153(cons'd)     -0.07184(cons'd)     -0.25569         *
 * In             14      0.12015(cons'd)     -0.07976(cons'd)      0.11437         *
 * In             15      0.01349(cons'd)      0.13922(cons'd)      0.04211         *
 * In             16      0.10576(cons'd)     -0.15489(cons'd)     -0.22282         *
 * In             17      0.01134(cons'd)     -0.20821(cons'd)     -0.15548         *
 * In             18      0.09623(cons'd)      0.17383(cons'd)      0.00746         *
 * In             19      0.09610(cons'd)      0.18669(cons'd)     -0.00143         *
 * In             20     -0.11005(cons'd)     -0.07822(cons'd)      0.11972         *
 * In             21      0.00144(cons'd)     -0.13501(cons'd)      0.15708         *
 * In             22     -0.02293(cons'd)     -0.11592(cons'd)     -0.19836         *
 * In             23     -0.01345(cons'd)     -0.04646(cons'd)      0.10437         *
 * In             24     -0.08698(cons'd)      0.17608(cons'd)     -0.00036         *
 *                                                                                  *
 ************************************************************************************
 EXP precond LBFGS => estimated parameter mu :  1.420       eV/A**2
 LBFGS: finished iteration     0 with enthalpy= -4.71499458E+004 eV
  
 +-----------+-----------------+-----------------+------------+-----+ <-- LBFGS
 | Parameter |      value      |    tolerance    |    units   | OK? | <-- LBFGS
 +-----------+-----------------+-----------------+------------+-----+ <-- LBFGS
 |  dE/ion   |   0.000000E+000 |   2.000000E-005 |         eV | No  | <-- LBFGS
 |  |F|max   |   4.231748E-001 |   1.000000E-003 |       eV/A | No  | <-- LBFGS
 |  |dR|max  |   3.340740E-015 |   1.000000E-003 |          A | No  | <-- LBFGS
 +-----------+-----------------+-----------------+------------+-----+ <-- LBFGS
  

================================================================================
 Starting LBFGS iteration          1 ...
================================================================================
  
 +------------+-------------+-------------+-----------------+ <-- min LBFGS
 |    Step    |   lambda    |   F.delta'  |    enthalpy     | <-- min LBFGS
 +------------+-------------+-------------+-----------------+ <-- min LBFGS
 |  previous  |    0.000000 |    0.281280 |   -47149.945817 | <-- min LBFGS
 +------------+-------------+-------------+-----------------+ <-- min LBFGS
  

--------------------------------------------------------------------------------
 LBFGS: starting iteration         1 with trial guess (lambda=  1.000000)
--------------------------------------------------------------------------------

                           -------------------------------
                                     Cell Contents
                           -------------------------------

            xxxxxxxxxxxxxxxxxxxxxxxxxxxxxxxxxxxxxxxxxxxxxxxxxxxxxxxxxxxxxxxxx
            x  Element         Atom        Fractional coordinates of atoms  x
            x                 Number           u          v          w      x
            x---------------------------------------------------------------x
            x  P                 1         0.000000   0.281795   0.756443   x
            x  P                 2         0.000000   0.713805   0.414366   x
            x  P                 3         0.250000   0.531796   0.756442   x
            x  P                 4         0.750000   0.531796   0.756442   x
            x  P                 5         0.250000   0.031796   0.756442   x
            x  P                 6         0.750000   0.031796   0.756442   x
            x  P                 7         0.500000   0.142815   0.082687   x
            x  P                 8         0.500000   0.281795   0.756443   x
            x  P                 9         0.000000   0.642815   0.082687   x
            x  P                10         0.000000   0.142815   0.082687   x
            x  P                11         0.250000   0.392807   0.082712   x
            x  P                12         0.000000   0.213805   0.414366   x
            x  P                13         0.250000  -0.036190   0.414348   x
            x  P                14         0.000000  -0.218205   0.756443   x
            x  P                15         0.500000  -0.218205   0.756443   x
            x  P                16         0.750000   0.392807   0.082712   x
            x  P                17         0.500000   0.642815   0.082687   x
            x  P                18         0.750000   0.892807   0.082712   x
            x  P                19         0.250000   0.892807   0.082712   x
            x  P                20         0.500000   0.713805   0.414366   x
            x  P                21         0.500000   0.213805   0.414366   x
            x  P                22         0.750000   0.463810   0.414348   x
            x  P                23         0.750000  -0.036190   0.414348   x
            x  P                24         0.250000   0.463810   0.414348   x
            x  In                1         0.500000   0.641441   0.665228   x
            x  In                2         0.750000  -0.108559   0.665226   x
            x  In                3         0.250000   0.751242  -0.004304   x
            x  In                4         0.750000   0.751242  -0.004304   x
            x  In                5         0.250000  -0.108559   0.665226   x
            x  In                6         0.500000   0.141441   0.665228   x
            x  In                7         0.500000   0.501241  -0.004301   x
            x  In                8         0.250000   0.819865   0.335579   x
            x  In                9         0.500000   0.569867   0.335574   x
            x  In               10         0.750000   0.251242  -0.004304   x
            x  In               11         0.750000   0.319865   0.335579   x
            x  In               12         0.000000   0.069867   0.335574   x
            x  In               13         0.000000   0.001241  -0.004301   x
            x  In               14        -0.000000   0.569867   0.335574   x
            x  In               15         0.250000   0.391441   0.665226   x
            x  In               16         0.000000   0.501241  -0.004301   x
            x  In               17         0.250000   0.251242  -0.004304   x
            x  In               18         0.000000   0.641441   0.665228   x
            x  In               19         0.000000   0.141441   0.665228   x
            x  In               20         0.750000   0.819865   0.335579   x
            x  In               21         0.250000   0.319865   0.335579   x
            x  In               22         0.500000   0.001241  -0.004301   x
            x  In               23         0.500000   0.069867   0.335574   x
            x  In               24         0.750000   0.391441   0.665226   x
            xxxxxxxxxxxxxxxxxxxxxxxxxxxxxxxxxxxxxxxxxxxxxxxxxxxxxxxxxxxxxxxxx


------------------------------------------------------------------------ <-- SCF
SCF loop      Energy           Fermi           Energy gain       Timer   <-- SCF
                               energy          per atom          (sec)   <-- SCF
------------------------------------------------------------------------ <-- SCF
Initial  -4.71431580E+004  0.00000000E+000                      1900.22  <-- SCF
      1  -4.71494598E+004  3.43420443E+000   1.31286131E-001    1965.30  <-- SCF
      2  -4.71499874E+004  3.43406311E+000   1.09920723E-002    2042.12  <-- SCF
      3  -4.71499863E+004  3.43398157E+000  -2.28745825E-005    2107.87  <-- SCF
      4  -4.71499863E+004  3.43503621E+000   3.21252831E-007    2177.67  <-- SCF
      5  -4.71499863E+004  3.43601544E+000  -1.34523720E-006    2244.14  <-- SCF
      6  -4.71499862E+004  3.43633630E+000  -1.81874465E-006    2312.89  <-- SCF
      7  -4.71499861E+004  3.43646112E+000  -6.01430701E-007    2375.94  <-- SCF
      8  -4.71499861E+004  3.43653061E+000  -9.91545382E-008    2434.21  <-- SCF
      9  -4.71499861E+004  3.43653535E+000   4.21886485E-009    2482.08  <-- SCF
     10  -4.71499861E+004  3.43653520E+000   1.63160377E-009    2527.59  <-- SCF
     11  -4.71499861E+004  3.43653359E+000   3.87212649E-010    2572.50  <-- SCF
------------------------------------------------------------------------ <-- SCF
 
Final energy, E             =  -47149.95841964     eV
Final free energy (E-TS)    =  -47149.98613054     eV
(energies not corrected for finite basis set)
 
NB est. 0K energy (E-0.5TS)      =  -47149.97227509     eV
 

 ******************************** Constrained Forces ********************************
 *                                                                                  *
 *                           Cartesian components (eV/A)                            *
 * -------------------------------------------------------------------------------- *
 *                         x                    y                    z              *
 *                                                                                  *
 * P               1      0.00000(cons'd)      0.00000(cons'd)      0.06851         *
 * P               2      0.00000(cons'd)      0.00000(cons'd)      0.06147         *
 * P               3      0.00000(cons'd)      0.00000(cons'd)      0.06616         *
 * P               4      0.00000(cons'd)      0.00000(cons'd)      0.06615         *
 * P               5      0.00000(cons'd)      0.00000(cons'd)      0.06616         *
 * P               6      0.00000(cons'd)      0.00000(cons'd)      0.06615         *
 * P               7      0.00000(cons'd)      0.00000(cons'd)      0.11775         *
 * P               8      0.00000(cons'd)      0.00000(cons'd)      0.06851         *
 * P               9      0.00000(cons'd)      0.00000(cons'd)      0.11774         *
 * P              10      0.00000(cons'd)      0.00000(cons'd)      0.11775         *
 * P              11      0.00000(cons'd)     -0.00000(cons'd)      0.11496         *
 * P              12      0.00000(cons'd)      0.00000(cons'd)      0.06148         *
 * P              13      0.00000(cons'd)      0.00000(cons'd)      0.06129         *
 * P              14      0.00000(cons'd)      0.00000(cons'd)      0.06851         *
 * P              15      0.00000(cons'd)      0.00000(cons'd)      0.06851         *
 * P              16      0.00000(cons'd)     -0.00000(cons'd)      0.11496         *
 * P              17      0.00000(cons'd)     -0.00000(cons'd)      0.11774         *
 * P              18      0.00000(cons'd)      0.00000(cons'd)      0.11497         *
 * P              19      0.00000(cons'd)     -0.00000(cons'd)      0.11497         *
 * P              20      0.00000(cons'd)      0.00000(cons'd)      0.06147         *
 * P              21      0.00000(cons'd)      0.00000(cons'd)      0.06148         *
 * P              22      0.00000(cons'd)      0.00000(cons'd)      0.06129         *
 * P              23      0.00000(cons'd)      0.00000(cons'd)      0.06129         *
 * P              24      0.00000(cons'd)      0.00000(cons'd)      0.06129         *
 * In              1      0.00000(cons'd)     -0.00000(cons'd)     -0.08438         *
 * In              2      0.00000(cons'd)     -0.00000(cons'd)     -0.08511         *
 * In              3      0.00000(cons'd)      0.00000(cons'd)     -0.05250         *
 * In              4      0.00000(cons'd)      0.00000(cons'd)     -0.05250         *
 * In              5      0.00000(cons'd)     -0.00000(cons'd)     -0.08512         *
 * In              6      0.00000(cons'd)     -0.00000(cons'd)     -0.08441         *
 * In              7      0.00000(cons'd)      0.00000(cons'd)     -0.05247         *
 * In              8      0.00000(cons'd)      0.00000(cons'd)     -0.10735         *
 * In              9      0.00000(cons'd)      0.00000(cons'd)     -0.10833         *
 * In             10      0.00000(cons'd)      0.00000(cons'd)     -0.05252         *
 * In             11      0.00000(cons'd)      0.00000(cons'd)     -0.10734         *
 * In             12      0.00000(cons'd)      0.00000(cons'd)     -0.10830         *
 * In             13      0.00000(cons'd)      0.00000(cons'd)     -0.05245         *
 * In             14      0.00000(cons'd)      0.00000(cons'd)     -0.10830         *
 * In             15      0.00000(cons'd)      0.00000(cons'd)     -0.08514         *
 * In             16      0.00000(cons'd)      0.00000(cons'd)     -0.05246         *
 * In             17      0.00000(cons'd)      0.00000(cons'd)     -0.05252         *
 * In             18      0.00000(cons'd)     -0.00000(cons'd)     -0.08436         *
 * In             19      0.00000(cons'd)      0.00000(cons'd)     -0.08439         *
 * In             20      0.00000(cons'd)      0.00000(cons'd)     -0.10733         *
 * In             21      0.00000(cons'd)      0.00000(cons'd)     -0.10737         *
 * In             22      0.00000(cons'd)      0.00000(cons'd)     -0.05246         *
 * In             23      0.00000(cons'd)      0.00000(cons'd)     -0.10833         *
 * In             24      0.00000(cons'd)      0.00000(cons'd)     -0.08512         *
 *                                                                                  *
 ************************************************************************************
  
 +------------+-------------+-------------+-----------------+ <-- min LBFGS
 |    Step    |   lambda    |   F.delta'  |    enthalpy     | <-- min LBFGS
 +------------+-------------+-------------+-----------------+ <-- min LBFGS
 |  previous  |    0.000000 |    0.281280 |   -47149.945817 | <-- min LBFGS
 | trial step |    1.000000 |   -0.054778 |   -47149.986131 | <-- min LBFGS
 +------------+-------------+-------------+-----------------+ <-- min LBFGS
  
 LBFGS: finished iteration     1 with enthalpy= -4.71499861E+004 eV
  
 +-----------+-----------------+-----------------+------------+-----+ <-- LBFGS
 | Parameter |      value      |    tolerance    |    units   | OK? | <-- LBFGS
 +-----------+-----------------+-----------------+------------+-----+ <-- LBFGS
 |  dE/ion   |   8.398717E-004 |   2.000000E-005 |         eV | No  | <-- LBFGS
 |  |F|max   |   1.177473E-001 |   1.000000E-003 |       eV/A | No  | <-- LBFGS
 |  |dR|max  |   2.527657E-002 |   1.000000E-003 |          A | No  | <-- LBFGS
 +-----------+-----------------+-----------------+------------+-----+ <-- LBFGS
  

================================================================================
 Starting LBFGS iteration          2 ...
================================================================================
  
 +------------+-------------+-------------+-----------------+ <-- min LBFGS
 |    Step    |   lambda    |   F.delta'  |    enthalpy     | <-- min LBFGS
 +------------+-------------+-------------+-----------------+ <-- min LBFGS
 |  previous  |    0.000000 |    0.194680 |   -47149.986131 | <-- min LBFGS
 +------------+-------------+-------------+-----------------+ <-- min LBFGS
  

--------------------------------------------------------------------------------
 LBFGS: starting iteration         2 with trial guess (lambda=  1.000000)
--------------------------------------------------------------------------------

                           -------------------------------
                                     Cell Contents
                           -------------------------------

            xxxxxxxxxxxxxxxxxxxxxxxxxxxxxxxxxxxxxxxxxxxxxxxxxxxxxxxxxxxxxxxxx
            x  Element         Atom        Fractional coordinates of atoms  x
            x                 Number           u          v          w      x
            x---------------------------------------------------------------x
            x  P                 1         0.000000   0.281560   0.757258   x
            x  P                 2         0.000000   0.713776   0.414467   x
            x  P                 3         0.250000   0.531567   0.757235   x
            x  P                 4         0.750000   0.531567   0.757235   x
            x  P                 5         0.250000   0.031567   0.757235   x
            x  P                 6         0.750000   0.031567   0.757235   x
            x  P                 7         0.500000   0.142653   0.083248   x
            x  P                 8         0.500000   0.281560   0.757257   x
            x  P                 9         0.000000   0.642653   0.083248   x
            x  P                10         0.000000   0.142653   0.083248   x
            x  P                11         0.250000   0.392651   0.083254   x
            x  P                12         0.000000   0.213776   0.414467   x
            x  P                13         0.250000  -0.036218   0.414443   x
            x  P                14         0.000000  -0.218440   0.757258   x
            x  P                15         0.500000  -0.218440   0.757258   x
            x  P                16         0.750000   0.392651   0.083254   x
            x  P                17         0.500000   0.642653   0.083248   x
            x  P                18         0.750000   0.892651   0.083255   x
            x  P                19         0.250000   0.892651   0.083255   x
            x  P                20         0.500000   0.713776   0.414467   x
            x  P                21         0.500000   0.213776   0.414467   x
            x  P                22         0.750000   0.463783   0.414443   x
            x  P                23         0.750000  -0.036218   0.414443   x
            x  P                24         0.250000   0.463783   0.414443   x
            x  In                1         0.500000   0.641552   0.664843   x
            x  In                2         0.750000  -0.108447   0.664837   x
            x  In                3         0.250000   0.751361  -0.004719   x
            x  In                4         0.750000   0.751361  -0.004719   x
            x  In                5         0.250000  -0.108447   0.664837   x
            x  In                6         0.500000   0.141552   0.664843   x
            x  In                7         0.500000   0.501362  -0.004720   x
            x  In                8         0.250000   0.820051   0.334933   x
            x  In                9         0.500000   0.570055   0.334921   x
            x  In               10         0.750000   0.251361  -0.004719   x
            x  In               11         0.750000   0.320051   0.334933   x
            x  In               12         0.000000   0.070055   0.334921   x
            x  In               13         0.000000   0.001361  -0.004720   x
            x  In               14        -0.000000   0.570055   0.334921   x
            x  In               15         0.250000   0.391553   0.664837   x
            x  In               16         0.000000   0.501362  -0.004720   x
            x  In               17         0.250000   0.251361  -0.004719   x
            x  In               18         0.000000   0.641552   0.664843   x
            x  In               19         0.000000   0.141552   0.664843   x
            x  In               20         0.750000   0.820051   0.334933   x
            x  In               21         0.250000   0.320051   0.334933   x
            x  In               22         0.500000   0.001361  -0.004720   x
            x  In               23         0.500000   0.070055   0.334920   x
            x  In               24         0.750000   0.391553   0.664837   x
            xxxxxxxxxxxxxxxxxxxxxxxxxxxxxxxxxxxxxxxxxxxxxxxxxxxxxxxxxxxxxxxxx


------------------------------------------------------------------------ <-- SCF
SCF loop      Energy           Fermi           Energy gain       Timer   <-- SCF
                               energy          per atom          (sec)   <-- SCF
------------------------------------------------------------------------ <-- SCF
Initial  -4.71493862E+004  0.00000000E+000                      2612.76  <-- SCF
      1  -4.71499889E+004  3.42505184E+000   1.25566214E-002    2677.88  <-- SCF
      2  -4.71500004E+004  3.42504230E+000   2.40319305E-004    2754.43  <-- SCF
      3  -4.71500004E+004  3.42453838E+000  -5.86698961E-007    2820.09  <-- SCF
      4  -4.71500004E+004  3.42436394E+000   3.99472235E-007    2890.10  <-- SCF
      5  -4.71500004E+004  3.42434079E+000   1.89033761E-007    2949.79  <-- SCF
      6  -4.71500004E+004  3.42431214E+000   4.08961781E-008    3005.18  <-- SCF
      7  -4.71500004E+004  3.42430929E+000   1.25663652E-009    3051.41  <-- SCF
      8  -4.71500004E+004  3.42431019E+000  -7.09589093E-010    3097.41  <-- SCF
------------------------------------------------------------------------ <-- SCF
 
Final energy, E             =  -47149.97287895     eV
Final free energy (E-TS)    =  -47150.00042474     eV
(energies not corrected for finite basis set)
 
NB est. 0K energy (E-0.5TS)      =  -47149.98665185     eV
 

 ******************************** Constrained Forces ********************************
 *                                                                                  *
 *                           Cartesian components (eV/A)                            *
 * -------------------------------------------------------------------------------- *
 *                         x                    y                    z              *
 *                                                                                  *
 * P               1      0.00000(cons'd)      0.00000(cons'd)      0.03665         *
 * P               2      0.00000(cons'd)      0.00000(cons'd)      0.03118         *
 * P               3      0.00000(cons'd)      0.00000(cons'd)      0.03532         *
 * P               4      0.00000(cons'd)      0.00000(cons'd)      0.03532         *
 * P               5      0.00000(cons'd)      0.00000(cons'd)      0.03532         *
 * P               6      0.00000(cons'd)      0.00000(cons'd)      0.03532         *
 * P               7      0.00000(cons'd)      0.00000(cons'd)      0.03508         *
 * P               8     -0.00000(cons'd)      0.00000(cons'd)      0.03665         *
 * P               9      0.00000(cons'd)      0.00000(cons'd)      0.03509         *
 * P              10      0.00000(cons'd)     -0.00000(cons'd)      0.03509         *
 * P              11      0.00000(cons'd)     -0.00000(cons'd)      0.03505         *
 * P              12      0.00000(cons'd)      0.00000(cons'd)      0.03117         *
 * P              13      0.00000(cons'd)      0.00000(cons'd)      0.03143         *
 * P              14      0.00000(cons'd)      0.00000(cons'd)      0.03665         *
 * P              15     -0.00000(cons'd)      0.00000(cons'd)      0.03664         *
 * P              16     -0.00000(cons'd)      0.00000(cons'd)      0.03506         *
 * P              17     -0.00000(cons'd)     -0.00000(cons'd)      0.03508         *
 * P              18     -0.00000(cons'd)     -0.00000(cons'd)      0.03506         *
 * P              19      0.00000(cons'd)      0.00000(cons'd)      0.03506         *
 * P              20     -0.00000(cons'd)      0.00000(cons'd)      0.03117         *
 * P              21      0.00000(cons'd)      0.00000(cons'd)      0.03116         *
 * P              22     -0.00000(cons'd)      0.00000(cons'd)      0.03143         *
 * P              23     -0.00000(cons'd)      0.00000(cons'd)      0.03143         *
 * P              24      0.00000(cons'd)      0.00000(cons'd)      0.03142         *
 * In              1      0.00000(cons'd)      0.00000(cons'd)     -0.03655         *
 * In              2      0.00000(cons'd)      0.00000(cons'd)     -0.03712         *
 * In              3     -0.00000(cons'd)      0.00000(cons'd)     -0.03438         *
 * In              4     -0.00000(cons'd)      0.00000(cons'd)     -0.03438         *
 * In              5      0.00000(cons'd)     -0.00000(cons'd)     -0.03712         *
 * In              6      0.00000(cons'd)     -0.00000(cons'd)     -0.03653         *
 * In              7      0.00000(cons'd)      0.00000(cons'd)     -0.03421         *
 * In              8      0.00000(cons'd)      0.00000(cons'd)     -0.03143         *
 * In              9      0.00000(cons'd)      0.00000(cons'd)     -0.03101         *
 * In             10      0.00000(cons'd)      0.00000(cons'd)     -0.03437         *
 * In             11      0.00000(cons'd)      0.00000(cons'd)     -0.03144         *
 * In             12      0.00000(cons'd)      0.00000(cons'd)     -0.03103         *
 * In             13      0.00000(cons'd)      0.00000(cons'd)     -0.03421         *
 * In             14      0.00000(cons'd)      0.00000(cons'd)     -0.03103         *
 * In             15      0.00000(cons'd)      0.00000(cons'd)     -0.03711         *
 * In             16      0.00000(cons'd)      0.00000(cons'd)     -0.03421         *
 * In             17      0.00000(cons'd)      0.00000(cons'd)     -0.03437         *
 * In             18      0.00000(cons'd)      0.00000(cons'd)     -0.03657         *
 * In             19      0.00000(cons'd)      0.00000(cons'd)     -0.03655         *
 * In             20      0.00000(cons'd)      0.00000(cons'd)     -0.03144         *
 * In             21     -0.00000(cons'd)      0.00000(cons'd)     -0.03142         *
 * In             22      0.00000(cons'd)      0.00000(cons'd)     -0.03421         *
 * In             23      0.00000(cons'd)      0.00000(cons'd)     -0.03101         *
 * In             24      0.00000(cons'd)      0.00000(cons'd)     -0.03712         *
 *                                                                                  *
 ************************************************************************************
  
 +------------+-------------+-------------+-----------------+ <-- min LBFGS
 |    Step    |   lambda    |   F.delta'  |    enthalpy     | <-- min LBFGS
 +------------+-------------+-------------+-----------------+ <-- min LBFGS
 |  previous  |    0.000000 |    0.194680 |   -47149.986131 | <-- min LBFGS
 | trial step |    1.000000 |    0.078298 |   -47150.000425 | <-- min LBFGS
 +------------+-------------+-------------+-----------------+ <-- min LBFGS
  

--------------------------------------------------------------------------------
 LBFGS: improving iteration         2 with line minimization (lambda=  1.672758)
--------------------------------------------------------------------------------

                           -------------------------------
                                     Cell Contents
                           -------------------------------

            xxxxxxxxxxxxxxxxxxxxxxxxxxxxxxxxxxxxxxxxxxxxxxxxxxxxxxxxxxxxxxxxx
            x  Element         Atom        Fractional coordinates of atoms  x
            x                 Number           u          v          w      x
            x---------------------------------------------------------------x
            x  P                 1         0.000000   0.281402   0.757805   x
            x  P                 2         0.000000   0.713756   0.414534   x
            x  P                 3         0.250000   0.531413   0.757769   x
            x  P                 4         0.750000   0.531413   0.757769   x
            x  P                 5         0.250000   0.031413   0.757769   x
            x  P                 6         0.750000   0.031413   0.757769   x
            x  P                 7         0.500000   0.142544   0.083625   x
            x  P                 8         0.500000   0.281402   0.757805   x
            x  P                 9         0.000000   0.642544   0.083626   x
            x  P                10         0.000000   0.142544   0.083626   x
            x  P                11         0.250000   0.392546   0.083619   x
            x  P                12         0.000000   0.213756   0.414534   x
            x  P                13         0.250000  -0.036236   0.414507   x
            x  P                14         0.000000  -0.218598   0.757806   x
            x  P                15         0.500000  -0.218598   0.757806   x
            x  P                16         0.750000   0.392546   0.083619   x
            x  P                17         0.500000   0.642544   0.083626   x
            x  P                18         0.750000   0.892546   0.083620   x
            x  P                19         0.250000   0.892546   0.083620   x
            x  P                20         0.500000   0.713756   0.414534   x
            x  P                21         0.500000   0.213756   0.414534   x
            x  P                22         0.750000   0.463764   0.414507   x
            x  P                23         0.750000  -0.036236   0.414507   x
            x  P                24         0.250000   0.463764   0.414507   x
            x  In                1         0.500000   0.641626   0.664584   x
            x  In                2         0.750000  -0.108371   0.664575   x
            x  In                3         0.250000   0.751442  -0.004998   x
            x  In                4         0.750000   0.751442  -0.004998   x
            x  In                5         0.250000  -0.108371   0.664575   x
            x  In                6         0.500000   0.141627   0.664584   x
            x  In                7         0.500000   0.501443  -0.005002   x
            x  In                8         0.250000   0.820177   0.334498   x
            x  In                9         0.500000   0.570182   0.334481   x
            x  In               10         0.750000   0.251442  -0.004999   x
            x  In               11         0.750000   0.320177   0.334498   x
            x  In               12         0.000000   0.070182   0.334482   x
            x  In               13         0.000000   0.001443  -0.005001   x
            x  In               14        -0.000000   0.570182   0.334482   x
            x  In               15         0.250000   0.391629   0.664575   x
            x  In               16         0.000000   0.501443  -0.005001   x
            x  In               17         0.250000   0.251442  -0.004999   x
            x  In               18         0.000000   0.641626   0.664584   x
            x  In               19         0.000000   0.141626   0.664584   x
            x  In               20         0.750000   0.820177   0.334499   x
            x  In               21         0.250000   0.320177   0.334498   x
            x  In               22         0.500000   0.001443  -0.005001   x
            x  In               23         0.500000   0.070182   0.334481   x
            x  In               24         0.750000   0.391629   0.664575   x
            xxxxxxxxxxxxxxxxxxxxxxxxxxxxxxxxxxxxxxxxxxxxxxxxxxxxxxxxxxxxxxxxx


------------------------------------------------------------------------ <-- SCF
SCF loop      Energy           Fermi           Energy gain       Timer   <-- SCF
                               energy          per atom          (sec)   <-- SCF
------------------------------------------------------------------------ <-- SCF
Initial  -4.71496144E+004  0.00000000E+000                      3137.67  <-- SCF
      1  -4.71499980E+004  3.41654003E+000   7.99173650E-003    3202.83  <-- SCF
      2  -4.71500032E+004  3.41653573E+000   1.08711703E-004    3279.39  <-- SCF
      3  -4.71500032E+004  3.41620968E+000  -3.21570180E-007    3344.99  <-- SCF
      4  -4.71500032E+004  3.41609689E+000   1.57227542E-007    3414.21  <-- SCF
      5  -4.71500032E+004  3.41608129E+000   7.99017943E-008    3470.15  <-- SCF
      6  -4.71500032E+004  3.41606057E+000   1.64062670E-008    3521.34  <-- SCF
      7  -4.71500032E+004  3.41605936E+000   6.88707452E-010    3566.59  <-- SCF
      8  -4.71500032E+004  3.41605981E+000  -3.09873239E-010    3612.05  <-- SCF
------------------------------------------------------------------------ <-- SCF
 
Final energy, E             =  -47149.97573517     eV
Final free energy (E-TS)    =  -47150.00317012     eV
(energies not corrected for finite basis set)
 
NB est. 0K energy (E-0.5TS)      =  -47149.98945265     eV
 

 ******************************** Constrained Forces ********************************
 *                                                                                  *
 *                           Cartesian components (eV/A)                            *
 * -------------------------------------------------------------------------------- *
 *                         x                    y                    z              *
 *                                                                                  *
 * P               1      0.00000(cons'd)      0.00000(cons'd)      0.01562         *
 * P               2      0.00000(cons'd)      0.00000(cons'd)      0.01044         *
 * P               3      0.00000(cons'd)      0.00000(cons'd)      0.01540         *
 * P               4     -0.00000(cons'd)      0.00000(cons'd)      0.01541         *
 * P               5      0.00000(cons'd)      0.00000(cons'd)      0.01540         *
 * P               6      0.00000(cons'd)      0.00000(cons'd)      0.01540         *
 * P               7     -0.00000(cons'd)      0.00000(cons'd)     -0.02218         *
 * P               8      0.00000(cons'd)      0.00000(cons'd)      0.01561         *
[...]
     In     7      S                   -0.455
     In     8      Dzz                  1.997
     In     8      Dzy                  1.998
     In     8      Dzx                  1.998
     In     8      Dxx-yy               1.997
     In     8      Dxy                  1.997
     In     8      S                    1.466
     In     8      Px                   0.489
     In     8      Py                   0.489
     In     8      Pz                   0.489
     In     8      S                   -0.518
     In     9      Dzz                  1.997
     In     9      Dzy                  1.998
     In     9      Dzx                  1.998
     In     9      Dxx-yy               1.997
     In     9      Dxy                  1.997
     In     9      S                    1.466
     In     9      Px                   0.489
     In     9      Py                   0.489
     In     9      Pz                   0.489
     In     9      S                   -0.518
     In    10      Dzz                  1.999
     In    10      Dzy                  1.999
     In    10      Dzx                  1.999
     In    10      Dxx-yy               1.998
     In    10      Dxy                  1.998
     In    10      S                    1.392
     In    10      Px                   0.479
     In    10      Py                   0.475
     In    10      Pz                   0.358
     In    10      S                   -0.455
     In    11      Dzz                  1.997
     In    11      Dzy                  1.998
     In    11      Dzx                  1.998
     In    11      Dxx-yy               1.997
     In    11      Dxy                  1.997
     In    11      S                    1.466
     In    11      Px                   0.489
     In    11      Py                   0.489
     In    11      Pz                   0.489
     In    11      S                   -0.518
     In    12      Dzz                  1.997
     In    12      Dzy                  1.998
     In    12      Dzx                  1.998
     In    12      Dxx-yy               1.997
     In    12      Dxy                  1.997
     In    12      S                    1.466
     In    12      Px                   0.489
     In    12      Py                   0.489
     In    12      Pz                   0.489
     In    12      S                   -0.518
     In    13      Dzz                  1.999
     In    13      Dzy                  1.999
     In    13      Dzx                  1.999
     In    13      Dxx-yy               1.998
     In    13      Dxy                  1.998
     In    13      S                    1.392
     In    13      Px                   0.479
     In    13      Py                   0.475
     In    13      Pz                   0.358
     In    13      S                   -0.455
     In    14      Dzz                  1.997
     In    14      Dzy                  1.998
     In    14      Dzx                  1.998
     In    14      Dxx-yy               1.997
     In    14      Dxy                  1.997
     In    14      S                    1.466
     In    14      Px                   0.489
     In    14      Py                   0.489
     In    14      Pz                   0.489
     In    14      S                   -0.518
     In    15      Dzz                  1.996
     In    15      Dzy                  1.999
     In    15      Dzx                  1.999
     In    15      Dxx-yy               1.998
     In    15      Dxy                  1.998
     In    15      S                    1.378
     In    15      Px                   0.491
     In    15      Py                   0.482
     In    15      Pz                   0.518
     In    15      S                   -0.440
     In    16      Dzz                  1.999
     In    16      Dzy                  1.999
     In    16      Dzx                  1.999
     In    16      Dxx-yy               1.998
     In    16      Dxy                  1.998
     In    16      S                    1.392
     In    16      Px                   0.479
     In    16      Py                   0.475
     In    16      Pz                   0.358
     In    16      S                   -0.455
     In    17      Dzz                  1.999
     In    17      Dzy                  1.999
     In    17      Dzx                  1.999
     In    17      Dxx-yy               1.998
     In    17      Dxy                  1.998
     In    17      S                    1.392
     In    17      Px                   0.479
     In    17      Py                   0.475
     In    17      Pz                   0.358
     In    17      S                   -0.455
     In    18      Dzz                  1.996
     In    18      Dzy                  1.999
     In    18      Dzx                  1.999
     In    18      Dxx-yy               1.998
     In    18      Dxy                  1.998
     In    18      S                    1.378
     In    18      Px                   0.491
     In    18      Py                   0.482
     In    18      Pz                   0.518
     In    18      S                   -0.440
     In    19      Dzz                  1.996
     In    19      Dzy                  1.999
     In    19      Dzx                  1.999
     In    19      Dxx-yy               1.998
     In    19      Dxy                  1.998
     In    19      S                    1.379
     In    19      Px                   0.491
     In    19      Py                   0.482
     In    19      Pz                   0.518
     In    19      S                   -0.440
     In    20      Dzz                  1.997
     In    20      Dzy                  1.998
     In    20      Dzx                  1.998
     In    20      Dxx-yy               1.997
     In    20      Dxy                  1.997
     In    20      S                    1.466
     In    20      Px                   0.489
     In    20      Py                   0.489
     In    20      Pz                   0.489
     In    20      S                   -0.518
     In    21      Dzz                  1.997
     In    21      Dzy                  1.998
     In    21      Dzx                  1.998
     In    21      Dxx-yy               1.997
     In    21      Dxy                  1.997
     In    21      S                    1.466
     In    21      Px                   0.489
     In    21      Py                   0.489
     In    21      Pz                   0.489
     In    21      S                   -0.518
     In    22      Dzz                  1.999
     In    22      Dzy                  1.999
     In    22      Dzx                  1.999
     In    22      Dxx-yy               1.998
     In    22      Dxy                  1.998
     In    22      S                    1.392
     In    22      Px                   0.479
     In    22      Py                   0.475
     In    22      Pz                   0.358
     In    22      S                   -0.455
     In    23      Dzz                  1.997
     In    23      Dzy                  1.998
     In    23      Dzx                  1.998
     In    23      Dxx-yy               1.997
     In    23      Dxy                  1.997
     In    23      S                    1.466
     In    23      Px                   0.489
     In    23      Py                   0.489
     In    23      Pz                   0.489
     In    23      S                   -0.518
     In    24      Dzz                  1.996
     In    24      Dzy                  1.999
     In    24      Dzx                  1.999
     In    24      Dxx-yy               1.998
     In    24      Dxy                  1.998
     In    24      S                    1.378
     In    24      Px                   0.491
     In    24      Py                   0.482
     In    24      Pz                   0.518
     In    24      S                   -0.440
  -------------------------------------------
                           Total:     432.000
  -------------------------------------------

     Atomic Populations (Mulliken)
     -----------------------------
Species          Ion     s       p       d       f      Total   Charge (e)
==========================================================================
  P               1     1.784   3.891   0.000   0.000   5.675    -0.675
  P               2     1.737   3.920   0.000   0.000   5.657    -0.657
  P               3     1.784   3.891   0.000   0.000   5.675    -0.675
  P               4     1.784   3.891   0.000   0.000   5.675    -0.675
  P               5     1.784   3.891   0.000   0.000   5.675    -0.675
  P               6     1.784   3.891   0.000   0.000   5.675    -0.675
  P               7     1.759   3.846   0.000   0.000   5.605    -0.605
  P               8     1.784   3.891   0.000   0.000   5.675    -0.675
  P               9     1.759   3.846   0.000   0.000   5.605    -0.605
  P              10     1.759   3.846   0.000   0.000   5.605    -0.605
  P              11     1.759   3.846   0.000   0.000   5.605    -0.605
  P              12     1.737   3.920   0.000   0.000   5.657    -0.657
  P              13     1.737   3.920   0.000   0.000   5.657    -0.657
  P              14     1.784   3.891   0.000   0.000   5.675    -0.675
  P              15     1.784   3.891   0.000   0.000   5.675    -0.675
  P              16     1.759   3.846   0.000   0.000   5.605    -0.605
  P              17     1.759   3.846   0.000   0.000   5.605    -0.605
  P              18     1.759   3.846   0.000   0.000   5.605    -0.605
  P              19     1.759   3.846   0.000   0.000   5.605    -0.605
  P              20     1.737   3.920   0.000   0.000   5.657    -0.657
  P              21     1.737   3.920   0.000   0.000   5.657    -0.657
  P              22     1.737   3.920   0.000   0.000   5.657    -0.657
  P              23     1.737   3.920   0.000   0.000   5.657    -0.657
  P              24     1.737   3.920   0.000   0.000   5.657    -0.657
  In              1     0.939   1.491   9.990   0.000  12.420     0.580
  In              2     0.939   1.491   9.990   0.000  12.420     0.580
  In              3     0.937   1.312   9.992   0.000  12.241     0.759
  In              4     0.937   1.312   9.992   0.000  12.241     0.759
  In              5     0.939   1.491   9.990   0.000  12.420     0.580
  In              6     0.939   1.491   9.990   0.000  12.420     0.580
  In              7     0.937   1.312   9.992   0.000  12.241     0.759
  In              8     0.948   1.466   9.988   0.000  12.402     0.598
  In              9     0.948   1.466   9.988   0.000  12.402     0.598
  In             10     0.937   1.312   9.992   0.000  12.241     0.759
  In             11     0.948   1.466   9.988   0.000  12.402     0.598
  In             12     0.948   1.466   9.988   0.000  12.402     0.598
  In             13     0.937   1.312   9.992   0.000  12.241     0.759
  In             14     0.948   1.466   9.988   0.000  12.402     0.598
  In             15     0.939   1.491   9.990   0.000  12.420     0.580
  In             16     0.937   1.312   9.992   0.000  12.241     0.759
  In             17     0.937   1.312   9.992   0.000  12.241     0.759
  In             18     0.939   1.491   9.990   0.000  12.420     0.580
  In             19     0.939   1.491   9.990   0.000  12.420     0.580
  In             20     0.948   1.466   9.988   0.000  12.402     0.598
  In             21     0.948   1.466   9.988   0.000  12.402     0.598
  In             22     0.937   1.312   9.992   0.000  12.241     0.759
  In             23     0.948   1.466   9.988   0.000  12.402     0.598
  In             24     0.939   1.491   9.990   0.000  12.420     0.580
==========================================================================

                 Bond                   Population      Length (A)
======================================================================
              P 13 -- In 8                   0.68        2.54476
              P 23 -- In 20                  0.68        2.54476
              P 22 -- In 11                  0.68        2.54476
              P 24 -- In 21                  0.68        2.54476
              P 24 -- In 14                  0.64        2.54478
              P 22 -- In 14                  0.64        2.54478
              P 22 -- In 9                   0.64        2.54478
              P 13 -- In 12                  0.64        2.54478
              P 23 -- In 12                  0.64        2.54478
              P 23 -- In 23                  0.64        2.54478
              P 24 -- In 9                   0.64        2.54478
              P 13 -- In 23                  0.64        2.54478
              P 21 -- In 11                  0.64        2.54483
              P 20 -- In 20                  0.64        2.54483
              P 12 -- In 11                  0.64        2.54483
              P 2  -- In 20                  0.64        2.54483
              P 2  -- In 8                   0.64        2.54483
              P 12 -- In 21                  0.64        2.54483
              P 20 -- In 8                   0.64        2.54483
              P 21 -- In 21                  0.64        2.54483
              P 20 -- In 9                   0.68        2.54485
              P 21 -- In 23                  0.68        2.54485
              P 12 -- In 12                  0.68        2.54485
              P 2  -- In 14                  0.68        2.54485
              P 2  -- In 18                  0.64        2.55421
              P 20 -- In 1                   0.64        2.55421
              P 12 -- In 19                  0.64        2.55421
              P 21 -- In 6                   0.64        2.55421
              P 22 -- In 24                  0.64        2.55431
              P 24 -- In 15                  0.64        2.55431
              P 23 -- In 2                   0.64        2.55431
              P 13 -- In 5                   0.64        2.55431
              P 9  -- In 14                  0.53        2.56761
              P 17 -- In 9                   0.53        2.56761
              P 10 -- In 12                  0.53        2.56761
              P 7  -- In 23                  0.53        2.56761
              P 18 -- In 20                  0.53        2.56763
              P 16 -- In 11                  0.53        2.56763
              P 19 -- In 8                   0.53        2.56763
              P 11 -- In 21                  0.53        2.56763
              P 9  -- In 16                  0.70        2.57514
              P 17 -- In 7                   0.70        2.57514
              P 10 -- In 13                  0.70        2.57514
              P 7  -- In 22                  0.70        2.57514
              P 19 -- In 13                  0.65        2.57515
              P 11 -- In 16                  0.65        2.57515
              P 18 -- In 13                  0.65        2.57515
              P 16 -- In 16                  0.65        2.57515
              P 18 -- In 22                  0.65        2.57515
              P 16 -- In 7                   0.65        2.57515
              P 19 -- In 22                  0.65        2.57515
              P 11 -- In 7                   0.65        2.57515
              P 17 -- In 4                   0.65        2.57516
              P 7  -- In 10                  0.65        2.57516
              P 9  -- In 3                   0.65        2.57516
              P 9  -- In 4                   0.65        2.57516
              P 10 -- In 10                  0.65        2.57516
              P 10 -- In 17                  0.65        2.57516
              P 17 -- In 3                   0.65        2.57516
              P 7  -- In 17                  0.65        2.57516
              P 19 -- In 3                   0.70        2.57517
              P 11 -- In 17                  0.70        2.57517
              P 18 -- In 4                   0.70        2.57517
              P 16 -- In 10                  0.70        2.57518
              P 3  -- In 18                  0.63        2.59190
              P 4  -- In 18                  0.63        2.59190
              P 5  -- In 19                  0.63        2.59190
              P 4  -- In 1                   0.63        2.59190
              P 6  -- In 19                  0.63        2.59190
              P 6  -- In 6                   0.63        2.59190
              P 3  -- In 1                   0.63        2.59190
              P 5  -- In 6                   0.63        2.59190
              P 5  -- In 5                   0.67        2.59195
              P 6  -- In 2                   0.67        2.59195
              P 3  -- In 15                  0.67        2.59195
              P 4  -- In 24                  0.67        2.59195
              P 8  -- In 6                   0.67        2.59200
              P 1  -- In 19                  0.67        2.59200
              P 15 -- In 1                   0.67        2.59200
              P 14 -- In 18                  0.67        2.59200
              P 15 -- In 2                   0.63        2.59205
              P 8  -- In 24                  0.63        2.59205
              P 14 -- In 2                   0.63        2.59205
              P 14 -- In 5                   0.63        2.59205
              P 1  -- In 24                  0.63        2.59205
              P 1  -- In 15                  0.63        2.59205
              P 15 -- In 5                   0.63        2.59205
              P 8  -- In 15                  0.63        2.59205
======================================================================


     Hirshfeld Analysis
     ------------------
Species   Ion     Hirshfeld Charge (e)
======================================
  P        1                -0.27
  P        2                -0.23
  P        3                -0.27
  P        4                -0.27
  P        5                -0.27
  P        6                -0.27
  P        7                -0.22
  P        8                -0.27
  P        9                -0.22
  P       10                -0.22
  P       11                -0.22
  P       12                -0.23
  P       13                -0.23
  P       14                -0.27
  P       15                -0.27
  P       16                -0.22
  P       17                -0.22
  P       18                -0.22
  P       19                -0.22
  P       20                -0.23
  P       21                -0.23
  P       22                -0.23
  P       23                -0.23
  P       24                -0.23
  In       1                 0.20
  In       2                 0.20
  In       3                 0.29
  In       4                 0.29
  In       5                 0.20
  In       6                 0.20
  In       7                 0.29
  In       8                 0.23
  In       9                 0.23
  In      10                 0.29
  In      11                 0.23
  In      12                 0.23
  In      13                 0.29
  In      14                 0.23
  In      15                 0.20
  In      16                 0.29
  In      17                 0.29
  In      18                 0.20
  In      19                 0.20
  In      20                 0.23
  In      21                 0.23
  In      22                 0.29
  In      23                 0.23
  In      24                 0.20
======================================

 
 A BibTeX formatted list of references used in this run has been written to 
 StackingFaultStructs_(1_1_1)_(1_1_-2)_5.bib
 
Initialisation time =     23.26 s
Calculation time    =   5348.67 s
Finalisation time   =      3.64 s
Total time          =   5375.56 s
Peak Memory Use     = 3463364 kB
 
Overall parallel efficiency rating: Poor (44%)
 
Data was distributed by:-
G-vector (7-way); efficiency rating: Poor (49%)
k-point (36-way); efficiency rating: Very good (81%)
