 +-------------------------------------------------+
 |                                                 |
 |      CCC   AA    SSS  TTTTT  EEEEE  PPPP        |
 |     C     A  A  S       T    E      P   P       |
 |     C     AAAA   SS     T    EEE    PPPP        |
 |     C     A  A     S    T    E      P           |
 |      CCC  A  A  SSS     T    EEEEE  P           |
 |                                                 |
 +-------------------------------------------------+
 |                                                 |
 | Welcome to Academic Release CASTEP version 24.1 |
 | Ab Initio Total Energy Program                  |
 |                                                 |
 | Authors:                                        |
 | M. Segall, M. Probert, C. Pickard, P. Hasnip,   |
 | S. Clark, K. Refson, J. R. Yates,               |
 | A. Bartok-Partay, M. Payne                      |
 |                                                 |
 | Contributors:                                   |
 | P. Lindan, P. Haynes, J. White, V. Milman,      |
 | N. Govind, M. Gibson, P. Tulip, V. Cocula,      |
 | B. Montanari, D. Quigley, M. Glover,            |
 | L. Bernasconi, A. Perlov, M. Plummer,           |
 | E. McNellis, J. Meyer, J. Gale, D. Jochym       |
 | J. Aarons, B. Walker, R. Gillen, D. Jones       |
 | T. Green, I. J. Bush, C. J. Armstrong,          |
 | E. J. Higgins, E. L. Brown, M. S. McFly,        |
 | J. Wilkins, B-C. Shih, P. J. P. Byrne,          |
 | R. J. Maurer, J. C. Womack, J. Dziedzic,        |
 | L. LeBlanc, T. K. Stenczel, J. Kermode,         |
 | S. Sturniolo, B. Shi, B. Durham, M. Evans,      |
 | M. J. Smith, A. Tamerus, Z. Hawkhead,           |
 | V. Ravindran, T. Hollins, S. A. Joyce,          |
 | R. T. Strong, A. M. Reilly, S. J. Donaldson     |
 |                                                 |
 | Copyright (c) 2000 - 2023                       |
 |                                                 |
 |     Distributed under license from Cambridge    |
 |     Enterprise for academic use only.           |
 |                                                 |
 | Please cite                                     |
 |                                                 |
 |     "First principles methods using CASTEP"     |
 |                                                 |
 |         Zeitschrift fuer Kristallographie       |
 |           220(5-6) pp. 567-570 (2005)           |
 |                                                 |
 | S. J. Clark, M. D. Segall, C. J. Pickard,       |
 | P. J. Hasnip, M. J. Probert, K. Refson,         |
 | M. C. Payne                                     |
 |                                                 |
 |       in all publications arising from          |
 |              your use of CASTEP                 |
 |                                                 |
 +-------------------------------------------------+
 |                                                 |
 |              http://www.castep.org              |
 |                                                 |
 +-------------------------------------------------+



 Compiled for  GNU 11.2.0 on 04-04-2024 18:39:17
 from code version 6355fd106 Castep241_branch Thu Mar 7 17:56:19 2024 +0000
 Compiler: GNU Fortran 11.2.0; Optimisation: FAST
 Comms   : MPI VERSION : CRAY MPICH version 8.1.23.14 (ANL base 3.4a2)
 MATHLIBS: default (LAPACK version 3.10.1)
 FFT Lib : fftw3 version commercial-fftw-3.3.10-sse2-avx-avx2-avx2_128
 Fundamental constants values: CODATA 2018

 Run started: Tue, 29 Apr 2025 18:35:25 +0100

 Atomic calculation performed for P: 1s2 2s2 2p6 3s2 3p3

 Converged in 47 iterations to an ae energy of -9309.074 eV

   ============================================================                
   | Pseudopotential Report - Date of generation 29-04-2025   |                
   ------------------------------------------------------------                
   | Element: P Ionic charge:  5.00 Level of theory: RSCAN    |                
   | Atomic Solver: Koelling-Harmon                           |                
   |                                                          |                
   |               Reference Electronic Structure             |                
   |         Orbital         Occupation         Energy        |                
   |            3s              2.000           -0.535        |                
   |            3p              3.000           -0.209        |                
   |                                                          |                
   |                 Pseudopotential Definition               |                
   |        Beta     l      e      Rc     scheme   norm       |                
   |          1      0   -0.535   1.807     qc      0         |                
   |          2      0    0.250   1.807     qc      0         |                
   |          3      1   -0.209   1.807     qc      0         |                
   |          4      1    0.250   1.807     qc      0         |                
   |          5      2    0.000   1.807     qc      0         |                
   |          6      2    0.250   1.807     qc      0         |                
   |         loc     3    0.000   1.807     pn      0         |                
   |                                                          |                
   | Augmentation charge Rinner = 1.263                       |                
   | Partial core correction Rc = 1.263                       |                
   ------------------------------------------------------------                
   | "3|1.8|4|4|5|30:31:32"                                   |                
   ------------------------------------------------------------                
   |      Author: Chris J. Pickard, Cambridge University      |                
   ============================================================                
 Warning: otfg_output_psp cannot write out meta-GGA pseudopotentials presently.

 Atomic calculation performed for In:
 1s2 2s2 2p6 3s2 3p6 3d10 4s2 4p6 4d10 5s2 5p1

 Converged in 84 iterations to an ae energy of -160093.328 eV

   ============================================================                
   | Pseudopotential Report - Date of generation 29-04-2025   |                
   ------------------------------------------------------------                
   | Element: In Ionic charge: 13.00 Level of theory: RSCAN   |                
   | Atomic Solver: Koelling-Harmon                           |                
   |                                                          |                
   |               Reference Electronic Structure             |                
   |         Orbital         Occupation         Energy        |                
   |            4d             10.000           -0.711        |                
   |            5s              2.000           -0.313        |                
   |            5p              1.000           -0.095        |                
   |                                                          |                
   |                 Pseudopotential Definition               |                
   |        Beta     l      e      Rc     scheme   norm       |                
   |          1      0   -0.313   2.501     qc      0         |                
   |          2      0    0.250   2.501     qc      0         |                
   |          3      1   -0.095   2.501     qc      0         |                
   |          4      1    0.250   2.501     qc      0         |                
   |          5      2   -0.711   2.207     qc      0         |                
   |          6      2    0.250   2.207     qc      0         |                
   |         loc     3    0.000   2.501     pn      0         |                
   |                                                          |                
   | Augmentation charge Rinner = 1.504                       |                
   | Partial core correction Rc = 1.504                       |                
   ------------------------------------------------------------                
   | "3|2.5|2.5|1.5|7|8|9|50:51:42U2.2U2.2"                   |                
   ------------------------------------------------------------                
   |      Author: Chris J. Pickard, Cambridge University      |                
   ============================================================                
 Warning: otfg_output_psp cannot write out meta-GGA pseudopotentials presently.

 Pseudo atomic calculation performed for P 3s2 3p3

 Converged in 23 iterations to a total energy of -208.0292 eV

 Pseudo atomic calculation performed for In 4d10 5s2 5p1

 Converged in 42 iterations to a total energy of -1747.4501 eV
 Calculation parallelised over 120 processes.
 Data is distributed by G-vector(6-way) and k-point(20-way)
 Each process may use up to 16 threads.

 ************************************ Title ************************************
 

 ***************************** General Parameters ******************************
  
 output verbosity                               : normal  (1)
 write checkpoint data to                       : 30deg_Singlepoints_5.check
 type of calculation                            : single point energy
 stress calculation                             : off
 density difference calculation                 : off
 electron localisation func (ELF) calculation   : off
 Hirshfeld analysis                             : on
 polarisation (Berry phase) analysis            : off
 molecular orbital projected DOS                : off
 deltaSCF calculation                           : off
 unlimited duration calculation
 timing information                             : on
 memory usage estimate                          : on
 write extra output files                       : on
 write final potential to formatted file        : off
 write final density to formatted file          : off
 write BibTeX reference list                    : on
 write OTFG pseudopotential files               : on
 write electrostatic potential file             : on
 write bands file                               : on
 checkpoint writing                             : off
  
 output         length unit                     : A
 output           mass unit                     : amu
 output           time unit                     : ps
 output         charge unit                     : e
 output           spin unit                     : hbar/2
 output         energy unit                     : eV
 output          force unit                     : eV/A
 output       velocity unit                     : A/ps
 output       pressure unit                     : GPa
 output     inv_length unit                     : 1/A
 output      frequency unit                     : cm-1
 output force constant unit                     : eV/A**2
 output         volume unit                     : A**3
 output   IR intensity unit                     : (D/A)**2/amu
 output         dipole unit                     : D
 output         efield unit                     : eV/A/e
 output        entropy unit                     : J/mol/K
 output    efield chi2 unit                     : pm/V
  
 wavefunctions paging                           : none
 random number generator seed                   :  183526009
 data distribution                              : optimal for this architecture
 optimization strategy                          : balance speed and memory

 *********************** Exchange-Correlation Parameters ***********************
  
 using functional                               : RSCAN
 relativistic treatment                         : Koelling-Harmon
 DFT+D: Semi-empirical dispersion correction    : off

 ************************* Pseudopotential Parameters **************************
  
 pseudopotential representation                 : reciprocal space
 <beta|phi> representation                      : reciprocal space
 spin-orbit coupling                            : off

 **************************** Basis Set Parameters *****************************
  
 plane wave basis set cut-off                   :   900.0000   eV
 size of standard grid                          :     2.0000
 size of   fine   gmax                          :    30.7390   1/A
 finite basis set correction                    : none

 **************************** Electronic Parameters ****************************
  
 number of  electrons                           :  864.0    
 net charge of system                           :  0.000    
 treating system as non-spin-polarized
 number of bands                                :        518

 ********************* Electronic Minimization Parameters **********************
  
 Method: Treating system as metallic with density mixing treatment of electrons,
         and number of  SD  steps               :          1
         and number of  CG  steps               :          4
  
 total energy / atom convergence tol.           : 0.1000E-07   eV
 eigen-energy convergence tolerance             : 0.2222E-08   eV
 max force / atom convergence tol.              : ignored
 convergence tolerance window                   :          3   cycles
 max. number of SCF cycles                      :        100
 number of fixed-spin iterations                :         10
 smearing scheme                                : Gaussian
 smearing width                                 : 0.2000       eV
 Fermi energy convergence tolerance             : 0.2721E-13   eV
 periodic dipole correction                     : NONE

 ************************** Density Mixing Parameters **************************
  
 density-mixing scheme                          : Pulay
 max. length of mixing history                  :         20
 charge density mixing amplitude                : 0.5000    
 cut-off energy for mixing                      :  900.0       eV

 *********************** Population Analysis Parameters ************************
  
 Population analysis with cutoff                :  3.000       A
 Population analysis output                     : summary and pdos components

 *******************************************************************************
  

                           -------------------------------
                                      Unit Cell
                           -------------------------------
        Real Lattice(A)                      Reciprocal Lattice(1/A)
    14.4540490    20.4411120     0.0000000        0.217350353   0.153689910   0.000000000
    14.4540490   -20.4411120     0.0000000        0.217350353  -0.153689910   0.000000000
     0.0000000     0.0000000     4.1725250        0.000000000   0.000000000   1.505847252

                       Lattice parameters(A)       Cell Angles
                    a =     25.035147          alpha =   90.000000
                    b =     25.035147          beta  =   90.000000
                    c =      4.172525          gamma =  109.471220

                       Current cell volume =          2465.602056       A**3
                                   density =             2.838254   AMU/A**3
                                           =             4.713031     g/cm^3

                           -------------------------------
                                     Cell Contents
                           -------------------------------
                         Total number of ions in cell =   96
                      Total number of species in cell =    2
                        Max number of any one species =   48

            xxxxxxxxxxxxxxxxxxxxxxxxxxxxxxxxxxxxxxxxxxxxxxxxxxxxxxxxxxxx
            x  Element    Atom        Fractional coordinates of atoms  x
            x            Number           u          v          w      x
            x----------------------------------------------------------x
            x  P            1         0.345205   0.365545   0.747340   x 
            x  P            2         0.197067   0.216618   0.504750   x 
            x  P            3         0.363537   0.208095   0.543586   x 
            x  P            4         0.482169   0.334964   0.105595   x 
            x  P            5         0.405722   0.087571   0.021357   x 
            x  P            6         0.530731   0.213803   0.551134   x 
            x  P            7         0.573986   0.092936  -0.000414   x 
            x  P            8         0.448489   0.966935   0.479939   x 
            x  P            9         0.617138   0.972089   0.447396   x 
            x  P           10         0.742550   0.098140  -0.023965   x 
            x  P           11         0.660903   0.851273   0.889840   x 
            x  P           12         0.784010   0.976444   0.449401   x 
            x  P           13         0.591809   0.612466   0.774347   x 
            x  P           14         0.468595   0.490096   0.257956   x 
            x  P           15         0.605475   0.459141   0.631662   x 
            x  P           16         0.729713   0.583705   0.143046   x 
            x  P           17         0.653834   0.339531   0.072168   x 
            x  P           18         0.778067   0.463797   0.580497   x 
            x  P           19         0.824666   0.343165   0.032311   x 
            x  P           20         0.699485   0.218898   0.520775   x 
            x  P           21         0.868832   0.221281   0.498727   x 
            x  P           22         0.995429   0.346383  -0.004201   x 
            x  P           23         0.910369   0.097332  -0.014040   x 
            x  P           24         0.037059   0.222568   0.484642   x 
            x  P           25         0.828876   0.859205   0.855044   x 
            x  P           26         0.713764   0.735551   0.276191   x 
            x  P           27         0.854641   0.710434   0.633349   x 
            x  P           28         0.984041   0.839646   0.064531   x 
            x  P           29         0.902029   0.589256   0.071296   x 
            x  P           30         0.024985   0.716455   0.535759   x 
            x  P           31         0.072459   0.593902   1.006338   x 
            x  P           32         0.949023   0.468066   0.527502   x 
            x  P           33         0.120039   0.471941   0.477850   x 
            x  P           34         0.243567   0.598233   0.935797   x 
            x  P           35         0.166789   0.348975   0.966863   x 
            x  P           36         0.290706   0.477273   0.380465   x 
            x  P           37         0.073496   0.093907   0.001920   x 
            x  P           38         0.950055   0.971434   0.518374   x 
            x  P           39         0.110406   0.964680   0.527828   x 
            x  P           40         0.236160   0.087915   0.023393   x 
            x  P           41         0.152387   0.840829   1.011047   x 
            x  P           42         0.278783   0.965097   0.506645   x 
            x  P           43         0.322271   0.843335   0.972798   x 
            x  P           44         0.196594   0.719162   0.481157   x 
            x  P           45         0.367879   0.722915   0.423740   x 
            x  P           46         0.492417   0.846555   0.928483   x 
            x  P           47         0.415111   0.603104   0.864281   x 
            x  P           48         0.539287   0.726912   0.369537   x 
            x  In           1         0.270339   0.414419   0.876560   x 
            x  In           2         0.141251   0.286154   0.472784   x 
            x  In           3         0.299598   0.265205   0.595323   x 
            x  In           4         0.411239   0.386753   0.234847   x 
            x  In           5         0.340686   0.145843   0.039025   x 
            x  In           6         0.466527   0.272932   0.597921   x 
            x  In           7         0.509214   0.151828   0.045101   x 
            x  In           8         0.383553   0.025766   0.517223   x 
            x  In           9         0.552210   0.030875   0.494085   x 
            x  In          10         0.677661   0.157020   0.016191   x 
            x  In          11         0.596084   0.910051   0.941136   x 
            x  In          12         0.720690   0.036335   0.471039   x 
            x  In          13         0.520327   0.665150   0.862320   x 
            x  In          14         0.395586   0.541211   0.358655   x 
            x  In          15         0.532466   0.509288   0.747413   x 
            x  In          16         0.655394   0.632535   0.264752   x 
            x  In          17         0.586915   0.396992   0.126671   x 
            x  In          18         0.710727   0.521076   0.639311   x 
            x  In          19         0.758556   0.401759   0.076280   x 
            x  In          20         0.634376   0.277653   0.566981   x 
            x  In          21         0.804034   0.281037   0.528899   x 
            x  In          22         0.929494   0.405697   0.025532   x 
            x  In          23         0.847368   0.158915  -0.003866   x 
            x  In          24         0.973351   0.283801   0.494845   x 
            x  In          25         0.764074   0.914347   0.947293   x 
            x  In          26         0.643958   0.789401   0.380157   x 
            x  In          27         0.778849   0.757545   0.759362   x 
            x  In          28         0.927995   0.907874   1.027754   x 
            x  In          29         0.835109   0.647215   0.133035   x 
            x  In          30         0.958593   0.776615   0.570594   x 
            x  In          31         0.006225   0.653573   1.035751   x 
            x  In          32         0.882679   0.526895   0.568935   x 
            x  In          33         0.053540   0.531202   0.505736   x 
            x  In          34         0.176932   0.656775   0.979390   x 
            x  In          35         0.100559   0.409222   0.978648   x 
            x  In          36         0.224216   0.535846   0.433027   x 
            x  In          37         0.014419   0.159668   0.985828   x 
            x  In          38         0.888764   0.034655   0.484664   x 
            x  In          39         0.052815   0.031786   0.502267   x 
            x  In          40         0.176887   0.153046   0.006453   x 
            x  In          41         0.088628   0.901877   1.030077   x 
            x  In          42         0.214623   0.025416   0.522730   x 
            x  In          43         0.257047   0.902713   1.004319   x 
            x  In          44         0.130160   0.778203   0.510311   x 
            x  In          45         0.301384   0.781212   0.469688   x 
            x  In          46         0.426859   0.905033   0.975480   x 
            x  In          47         0.348177   0.660934   0.919531   x 
            x  In          48         0.472625   0.784687   0.423092   x 
            xxxxxxxxxxxxxxxxxxxxxxxxxxxxxxxxxxxxxxxxxxxxxxxxxxxxxxxxxxxx


                         No user defined ionic velocities

                           -------------------------------
                                   Details of Species
                           -------------------------------

                               Mass of species in AMU
                                    P   30.9737600
                                    In  114.8180000

                          Electric Quadrupole Moment (Barn)
                                    P    1.0000000 No Isotope Defined
                                    In    0.7700000 Isotope115

                          Files used for pseudopotentials:
                                    P 3|1.8|4|4|5|30:31:32
                                    In 3|2.5|2.5|1.5|7|8|9|50:51:42U2.2U2.2

                           -------------------------------
                              k-Points For BZ Sampling
                           -------------------------------
                       MP grid size for SCF calculation is  2  2  8
                            with an offset of   0.250  0.250  0.062
                       Number of kpoints used =            20

                           -------------------------------
                               Symmetry and Constraints
                           -------------------------------

                      Maximum deviation from symmetry =  0.00000         ANG

                      Number of symmetry operations   =           1
                      Number of ionic constraints     =           3
                      Point group of crystal =     1: C1, 1, 1
                      Space group of crystal =     1: P1, P 1

             Set iprint > 1 for details on symmetry rotations/translations

                         Centre of mass is constrained
             Set iprint > 1 for details of linear ionic constraints

                         Number of cell constraints= 0
                         Cell constraints are:  1 2 3 4 5 6

                         External pressure/stress (GPa)
                          0.00000   0.00000   0.00000
                                    0.00000   0.00000
                                              0.00000
 
+---------------- MEMORY AND SCRATCH DISK ESTIMATES PER PROCESS --------------+
|                                                     Memory          Disk    |
| Baseline code, static data and system overhead      368.0 MB         0.0 MB |
| BLAS internal memory storage                          0.0 MB         0.0 MB |
| Model and support data                             3663.9 MB         0.0 MB |
| Electronic energy minimisation requirements         956.3 MB         0.0 MB |
| Force calculation requirements                       70.0 MB         0.0 MB |
|                                               ----------------------------- |
| Approx. total storage required per process         4988.2 MB         0.0 MB |
|                                                                             |
| Requirements will fluctuate during execution and may exceed these estimates |
+-----------------------------------------------------------------------------+
Calculating approximate eigenstates for fixed initial Hamiltonian
Cut-off for approx. calculation is   89.988 eV
Improving approx. states at cut-off of  450.000 eV
Resetting cut-off to  900.000 eV
Calculating total energy with cut-off of  900.000 eV.
------------------------------------------------------------------------ <-- SCF
SCF loop      Energy           Fermi           Energy gain       Timer   <-- SCF
                               energy          per atom          (sec)   <-- SCF
------------------------------------------------------------------------ <-- SCF
Initial  -9.45654767E+004  0.00000000E+000                       377.31  <-- SCF
      1  -9.42046688E+004  2.86604553E+000  -3.75841629E+000     717.18  <-- SCF
      2  -9.42051070E+004  2.86519365E+000   4.56443364E-003     947.02  <-- SCF
      3  -9.43043941E+004  3.46811738E+000   1.03424085E+000    1197.10  <-- SCF
      4  -9.43220687E+004  3.53997994E+000   1.84111024E-001    1562.37  <-- SCF
      5  -9.43104799E+004  3.79538453E+000  -1.20717396E-001    1817.49  <-- SCF
      6  -9.43130239E+004  3.88384034E+000   2.65001571E-002    2079.17  <-- SCF
      7  -9.43125064E+004  3.93422827E+000  -5.39059926E-003    2349.93  <-- SCF
      8  -9.43143117E+004  3.92018614E+000   1.88047671E-002    2615.38  <-- SCF
      9  -9.43145214E+004  3.89096102E+000   2.18476882E-003    2866.23  <-- SCF
     10  -9.43149440E+004  3.87584378E+000   4.40267189E-003    3127.20  <-- SCF
     11  -9.43149439E+004  3.89000455E+000  -1.05320037E-006    3412.63  <-- SCF
     12  -9.43149564E+004  3.89078023E+000   1.29476227E-004    3693.13  <-- SCF
     13  -9.43149700E+004  3.89700175E+000   1.41646540E-004    3971.77  <-- SCF
     14  -9.43149703E+004  3.89524662E+000   3.88883364E-006    4244.57  <-- SCF
     15  -9.43149703E+004  3.89426903E+000  -9.04724682E-007    4537.01  <-- SCF
     16  -9.43149703E+004  3.89420648E+000  -2.23588238E-008    4764.27  <-- SCF
     17  -9.43149703E+004  3.89393655E+000   2.54797397E-007    5017.94  <-- SCF
     18  -9.43149703E+004  3.89399904E+000  -1.50431600E-008    5217.92  <-- SCF
     19  -9.43149703E+004  3.89405751E+000  -1.88159054E-008    5425.76  <-- SCF
     20  -9.43149703E+004  3.89412664E+000   2.12754275E-008    5606.92  <-- SCF
     21  -9.43149703E+004  3.89412153E+000  -3.18380576E-011    5813.53  <-- SCF
     22  -9.43149703E+004  3.89412370E+000   3.25856719E-010    5994.41  <-- SCF
------------------------------------------------------------------------ <-- SCF
 
Final energy, E             =  -94314.90941321     eV
Final free energy (E-TS)    =  -94314.97028224     eV
(energies not corrected for finite basis set)
 
NB est. 0K energy (E-0.5TS)      =  -94314.93984773     eV
 

 ************************** Forces **************************
 *                                                          *
 *               Cartesian components (eV/A)                *
 * -------------------------------------------------------- *
 *                         x            y            z      *
 *                                                          *
 * P               1     -0.02857     -0.00303      0.01260 *
 * P               2      0.05516      0.00652      0.00891 *
 * P               3      0.03744     -0.03086     -0.02914 *
 * P               4     -0.05469     -0.01705      0.01924 *
 * P               5      0.02551     -0.02270     -0.01688 *
 * P               6     -0.02386     -0.04647      0.01656 *
 * P               7     -0.01958     -0.05672      0.00802 *
 * P               8      0.00288     -0.05821      0.00428 *
 * P               9     -0.01495     -0.06534     -0.00392 *
 * P              10      0.00030     -0.07733      0.00119 *
 * P              11     -0.04734     -0.04731     -0.03028 *
 * P              12      0.02610     -0.06995      0.00306 *
 * P              13     -0.10992      0.01622      0.00572 *
 * P              14     -0.04136     -0.01725     -0.00696 *
 * P              15     -0.07734     -0.00725      0.01182 *
 * P              16     -0.05077      0.04173     -0.00453 *
 * P              17     -0.04675     -0.03845     -0.00452 *
 * P              18     -0.03032      0.01437     -0.00568 *
 * P              19      0.00853      0.01399      0.00020 *
 * P              20     -0.00597     -0.05764     -0.00180 *
 * P              21      0.04276      0.01340     -0.00401 *
 * P              22      0.03902      0.04485      0.00854 *
 * P              23      0.09284     -0.00880     -0.01244 *
 * P              24      0.08722      0.03127     -0.00225 *
 * P              25      0.02003     -0.04223     -0.04216 *
 * P              26     -0.02598      0.04882      0.03310 *
 * P              27     -0.01476      0.01760     -0.00785 *
 * P              28      0.05414      0.04430     -0.01944 *
 * P              29     -0.02286      0.05115      0.00036 *
 * P              30      0.01094      0.06063     -0.02169 *
 * P              31      0.01247      0.04649     -0.01148 *
 * P              32      0.00140      0.04659      0.00729 *
 * P              33      0.01011      0.06103     -0.00046 *
 * P              34     -0.01675      0.05259      0.00348 *
 * P              35      0.03979      0.02939     -0.01542 *
 * P              36     -0.02444      0.06648     -0.02503 *
 * P              37      0.09457      0.00268      0.01777 *
 * P              38      0.04881      0.04676      0.01341 *
 * P              39      0.08095      0.02704      0.00885 *
 * P              40      0.07628     -0.03451     -0.00967 *
 * P              41      0.03744      0.04448     -0.00456 *
 * P              42      0.03171     -0.00170      0.00105 *
 * P              43      0.00599     -0.02041      0.00355 *
 * P              44      0.00169      0.02192      0.00214 *
 * P              45     -0.03017      0.00014      0.00297 *
 * P              46     -0.04337     -0.05344      0.01287 *
 * P              47     -0.04047     -0.01320     -0.01804 *
 * P              48     -0.07062     -0.04037     -0.01183 *
 * In              1     -0.01181     -0.06021      0.00409 *
 * In              2     -0.09218     -0.00974      0.01042 *
 * In              3     -0.07520      0.03141      0.02016 *
 * In              4      0.04633      0.05630     -0.02577 *
 * In              5     -0.04689      0.01402      0.03405 *
 * In              6     -0.00000      0.00220      0.00359 *
 * In              7      0.01286      0.04759     -0.01255 *
 * In              8     -0.04285      0.03883     -0.00100 *
 * In              9      0.01724      0.07182     -0.00662 *
 * In             10      0.04018      0.08282     -0.00252 *
 * In             11      0.03672      0.06965     -0.00114 *
 * In             12      0.03926      0.07993      0.01281 *
 * In             13      0.07549      0.02716      0.01035 *
 * In             14      0.04282      0.02256      0.01350 *
 * In             15      0.10469      0.00209      0.00591 *
 * In             16      0.05561     -0.03670     -0.00657 *
 * In             17      0.08043      0.01061      0.00327 *
 * In             18      0.07922     -0.03545      0.00437 *
 * In             19      0.04321     -0.00865     -0.00121 *
 * In             20      0.05993      0.04081     -0.00835 *
 * In             21     -0.00470      0.01145      0.00492 *
 * In             22     -0.00318     -0.04243     -0.00278 *
 * In             23     -0.04299      0.00986      0.01014 *
 * In             24     -0.04322     -0.04630      0.00840 *
 * In             25      0.01202      0.16883      0.01219 *
 * In             26      0.08424      0.03989      0.00316 *
 * In             27      0.10489     -0.07267      0.04129 *
 * In             28     -0.14097     -0.09689     -0.02573 *
 * In             29      0.03447     -0.06243     -0.01857 *
 * In             30     -0.00411     -0.01950      0.00783 *
 * In             31     -0.01183     -0.04710      0.01347 *
 * In             32      0.02048     -0.03131     -0.01054 *
 * In             33     -0.02187     -0.07073      0.00220 *
 * In             34     -0.00675     -0.04237     -0.00539 *
 * In             35     -0.05516     -0.07147      0.00170 *
 * In             36     -0.00594     -0.09266      0.00207 *
 * In             37     -0.07808     -0.00710      0.00015 *
 * In             38     -0.05259      0.01453      0.00290 *
 * In             39     -0.09239     -0.04097     -0.01054 *
 * In             40     -0.07441      0.00825     -0.00261 *
 * In             41     -0.09306     -0.01573      0.00294 *
 * In             42     -0.07973      0.01590      0.00209 *
 * In             43     -0.04672      0.00508     -0.00118 *
 * In             44     -0.01799     -0.02619      0.00799 *
 * In             45     -0.00494     -0.00500     -0.00432 *
 * In             46     -0.00429      0.04583     -0.00176 *
 * In             47      0.01595     -0.02348      0.00407 *
 * In             48      0.04462      0.02743      0.00221 *
 *                                                          *
 ************************************************************

 Pseudo atomic calculation performed for P 3s2 3p3

 Converged in 23 iterations to a total energy of -208.0292 eV

 Pseudo atomic calculation performed for In 4d10 5s2 5p1

 Converged in 42 iterations to a total energy of -1747.4501 eV
Charge spilling parameter for spin component 1 = 0.17%

            Orbital Populations       
     Ion    Atom   Orbital             Charge
  -------------------------------------------
      P     1      S                    1.742
      P     1      Px                   1.287
      P     1      Py                   1.324
      P     1      Pz                   1.311
      P     2      S                    1.739
      P     2      Px                   1.273
      P     2      Py                   1.328
      P     2      Pz                   1.325
      P     3      S                    1.734
      P     3      Px                   1.343
      P     3      Py                   1.267
      P     3      Pz                   1.326
      P     4      S                    1.738
      P     4      Px                   1.324
      P     4      Py                   1.306
      P     4      Pz                   1.303
      P     5      S                    1.733
      P     5      Px                   1.317
      P     5      Py                   1.304
      P     5      Pz                   1.322
      P     6      S                    1.733
      P     6      Px                   1.321
      P     6      Py                   1.304
      P     6      Pz                   1.316
      P     7      S                    1.733
      P     7      Px                   1.313
      P     7      Py                   1.312
      P     7      Pz                   1.316
      P     8      S                    1.733
      P     8      Px                   1.314
      P     8      Py                   1.311
      P     8      Pz                   1.317
      P     9      S                    1.733
      P     9      Px                   1.315
      P     9      Py                   1.311
      P     9      Pz                   1.314
      P    10      S                    1.732
      P    10      Px                   1.310
      P    10      Py                   1.313
      P    10      Pz                   1.319
      P    11      S                    1.730
      P    11      Px                   1.329
      P    11      Py                   1.305
      P    11      Pz                   1.310
      P    12      S                    1.732
      P    12      Px                   1.312
      P    12      Py                   1.301
      P    12      Pz                   1.321
      P    13      S                    1.735
      P    13      Px                   1.313
      P    13      Py                   1.306
      P    13      Pz                   1.316
      P    14      S                    1.737
      P    14      Px                   1.304
      P    14      Py                   1.313
      P    14      Pz                   1.317
      P    15      S                    1.738
      P    15      Px                   1.314
      P    15      Py                   1.314
      P    15      Pz                   1.306
      P    16      S                    1.740
      P    16      Px                   1.303
      P    16      Py                   1.323
      P    16      Pz                   1.304
      P    17      S                    1.735
      P    17      Px                   1.316
      P    17      Py                   1.310
      P    17      Pz                   1.312
      P    18      S                    1.736
      P    18      Px                   1.311
      P    18      Py                   1.313
      P    18      Pz                   1.311
      P    19      S                    1.736
      P    19      Px                   1.310
      P    19      Py                   1.313
      P    19      Pz                   1.314
      P    20      S                    1.733
      P    20      Px                   1.312
      P    20      Py                   1.313
      P    20      Pz                   1.316
      P    21      S                    1.735
      P    21      Px                   1.306
      P    21      Py                   1.313
      P    21      Pz                   1.320
      P    22      S                    1.738
      P    22      Px                   1.304
      P    22      Py                   1.314
      P    22      Pz                   1.315
      P    23      S                    1.735
      P    23      Px                   1.301
      P    23      Py                   1.309
      P    23      Pz                   1.327
      P    24      S                    1.737
      P    24      Px                   1.295
      P    24      Py                   1.321
      P    24      Pz                   1.320
      P    25      S                    1.731
      P    25      Px                   1.260
      P    25      Py                   1.251
      P    25      Pz                   1.425
      P    26      S                    1.744
      P    26      Px                   1.306
      P    26      Py                   1.295
      P    26      Pz                   1.311
      P    27      S                    1.743
      P    27      Px                   1.289
      P    27      Py                   1.336
      P    27      Pz                   1.301
      P    28      S                    1.738
      P    28      Px                   1.292
      P    28      Py                   1.329
      P    28      Pz                   1.313
      P    29      S                    1.738
      P    29      Px                   1.308
      P    29      Py                   1.317
      P    29      Pz                   1.308
      P    30      S                    1.741
      P    30      Px                   1.300
      P    30      Py                   1.318
      P    30      Pz                   1.308
      P    31      S                    1.739
      P    31      Px                   1.309
      P    31      Py                   1.312
      P    31      Pz                   1.311
      P    32      S                    1.737
      P    32      Px                   1.309
      P    32      Py                   1.314
      P    32      Pz                   1.313
      P    33      S                    1.739
      P    33      Px                   1.309
      P    33      Py                   1.313
      P    33      Pz                   1.310
      P    34      S                    1.737
      P    34      Px                   1.312
      P    34      Py                   1.314
      P    34      Pz                   1.307
      P    35      S                    1.743
      P    35      Px                   1.299
      P    35      Py                   1.321
      P    35      Pz                   1.307
      P    36      S                    1.739
      P    36      Px                   1.308
      P    36      Py                   1.318
      P    36      Pz                   1.300
      P    37      S                    1.734
      P    37      Px                   1.298
      P    37      Py                   1.316
      P    37      Pz                   1.326
      P    38      S                    1.740
      P    38      Px                   1.291
      P    38      Py                   1.302
      P    38      Pz                   1.321
      P    39      S                    1.735
      P    39      Px                   1.299
      P    39      Py                   1.320
      P    39      Pz                   1.318
      P    40      S                    1.733
      P    40      Px                   1.310
      P    40      Py                   1.305
      P    40      Pz                   1.327
      P    41      S                    1.736
      P    41      Px                   1.304
      P    41      Py                   1.316
      P    41      Pz                   1.317
      P    42      S                    1.734
      P    42      Px                   1.310
      P    42      Py                   1.310
      P    42      Pz                   1.319
      P    43      S                    1.734
      P    43      Px                   1.312
      P    43      Py                   1.313
      P    43      Pz                   1.315
      P    44      S                    1.737
      P    44      Px                   1.309
      P    44      Py                   1.314
      P    44      Pz                   1.312
      P    45      S                    1.735
      P    45      Px                   1.315
      P    45      Py                   1.312
      P    45      Pz                   1.310
      P    46      S                    1.733
      P    46      Px                   1.317
      P    46      Py                   1.311
      P    46      Pz                   1.313
      P    47      S                    1.735
      P    47      Px                   1.317
      P    47      Py                   1.315
      P    47      Pz                   1.306
      P    48      S                    1.733
      P    48      Px                   1.322
      P    48      Py                   1.308
      P    48      Pz                   1.310
     In     1      Dzz                  1.998
     In     1      Dzy                  1.998
     In     1      Dzx                  1.998
     In     1      Dxx-yy               1.998
     In     1      Dxy                  1.999
     In     1      S                    1.431
     In     1      Px                   0.478
     In     1      Py                   0.450
     In     1      Pz                   0.488
     In     1      S                   -0.507
     In     2      Dzz                  1.998
     In     2      Dzy                  1.999
     In     2      Dzx                  1.998
     In     2      Dxx-yy               1.997
     In     2      Dxy                  1.998
     In     2      S                    1.434
     In     2      Px                   0.495
     In     2      Py                   0.463
     In     2      Pz                   0.478
     In     2      S                   -0.518
     In     3      Dzz                  1.996
     In     3      Dzy                  1.999
     In     3      Dzx                  1.998
     In     3      Dxx-yy               1.996
     In     3      Dxy                  1.997
     In     3      S                    1.471
     In     3      Px                   0.493
     In     3      Py                   0.514
     In     3      Pz                   0.471
     In     3      S                   -0.536
     In     4      Dzz                  1.998
     In     4      Dzy                  1.998
     In     4      Dzx                  1.998
     In     4      Dxx-yy               1.997
     In     4      Dxy                  1.998
     In     4      S                    1.435
     In     4      Px                   0.492
     In     4      Py                   0.476
     In     4      Pz                   0.455
     In     4      S                   -0.507
     In     5      Dzz                  1.997
     In     5      Dzy                  1.999
     In     5      Dzx                  1.998
     In     5      Dxx-yy               1.997
     In     5      Dxy                  1.998
     In     5      S                    1.431
     In     5      Px                   0.481
     In     5      Py                   0.495
     In     5      Pz                   0.470
     In     5      S                   -0.538
     In     6      Dzz                  1.998
     In     6      Dzy                  1.998
     In     6      Dzx                  1.998
     In     6      Dxx-yy               1.997
     In     6      Dxy                  1.998
     In     6      S                    1.419
     In     6      Px                   0.467
     In     6      Py                   0.491
     In     6      Pz                   0.490
     In     6      S                   -0.521
     In     7      Dzz                  1.997
     In     7      Dzy                  1.998
     In     7      Dzx                  1.998
     In     7      Dxx-yy               1.997
     In     7      Dxy                  1.998
     In     7      S                    1.423
     In     7      Px                   0.477
     In     7      Py                   0.490
     In     7      Pz                   0.482
     In     7      S                   -0.541
     In     8      Dzz                  1.997
     In     8      Dzy                  1.998
     In     8      Dzx                  1.998
     In     8      Dxx-yy               1.997
     In     8      Dxy                  1.998
     In     8      S                    1.428
     In     8      Px                   0.481
     In     8      Py                   0.490
     In     8      Pz                   0.480
     In     8      S                   -0.546
     In     9      Dzz                  1.997
     In     9      Dzy                  1.998
     In     9      Dzx                  1.998
     In     9      Dxx-yy               1.997
     In     9      Dxy                  1.998
     In     9      S                    1.423
     In     9      Px                   0.478
     In     9      Py                   0.490
     In     9      Pz                   0.481
     In     9      S                   -0.541
     In    10      Dzz                  1.997
     In    10      Dzy                  1.998
     In    10      Dzx                  1.998
     In    10      Dxx-yy               1.997
     In    10      Dxy                  1.998
     In    10      S                    1.423
     In    10      Px                   0.477
     In    10      Py                   0.489
     In    10      Pz                   0.483
     In    10      S                   -0.537
     In    11      Dzz                  1.997
     In    11      Dzy                  1.998
     In    11      Dzx                  1.998
     In    11      Dxx-yy               1.997
     In    11      Dxy                  1.998
     In    11      S                    1.426
     In    11      Px                   0.476
     In    11      Py                   0.491
     In    11      Pz                   0.481
     In    11      S                   -0.541
     In    12      Dzz                  1.997
     In    12      Dzy                  1.998
     In    12      Dzx                  1.998
     In    12      Dxx-yy               1.997
     In    12      Dxy                  1.998
     In    12      S                    1.427
     In    12      Px                   0.476
     In    12      Py                   0.497
     In    12      Pz                   0.481
     In    12      S                   -0.548
     In    13      Dzz                  1.998
     In    13      Dzy                  1.998
     In    13      Dzx                  1.998
     In    13      Dxx-yy               1.997
     In    13      Dxy                  1.998
     In    13      S                    1.428
     In    13      Px                   0.466
     In    13      Py                   0.479
     In    13      Pz                   0.492
     In    13      S                   -0.528
     In    14      Dzz                  1.998
     In    14      Dzy                  1.998
     In    14      Dzx                  1.998
     In    14      Dxx-yy               1.998
     In    14      Dxy                  1.999
     In    14      S                    1.424
     In    14      Px                   0.472
     In    14      Py                   0.470
     In    14      Pz                   0.493
     In    14      S                   -0.512
     In    15      Dzz                  1.998
     In    15      Dzy                  1.998
     In    15      Dzx                  1.998
     In    15      Dxx-yy               1.997
     In    15      Dxy                  1.998
     In    15      S                    1.429
     In    15      Px                   0.493
     In    15      Py                   0.469
     In    15      Pz                   0.467
     In    15      S                   -0.527
     In    16      Dzz                  1.998
     In    16      Dzy                  1.998
     In    16      Dzx                  1.998
     In    16      Dxx-yy               1.997
     In    16      Dxy                  1.998
     In    16      S                    1.438
     In    16      Px                   0.500
     In    16      Py                   0.463
     In    16      Pz                   0.470
     In    16      S                   -0.536
     In    17      Dzz                  1.998
     In    17      Dzy                  1.998
     In    17      Dzx                  1.998
     In    17      Dxx-yy               1.997
     In    17      Dxy                  1.998
     In    17      S                    1.411
     In    17      Px                   0.469
     In    17      Py                   0.483
     In    17      Pz                   0.494
     In    17      S                   -0.522
     In    18      Dzz                  1.998
     In    18      Dzy                  1.998
     In    18      Dzx                  1.998
     In    18      Dxx-yy               1.997
     In    18      Dxy                  1.998
     In    18      S                    1.410
     In    18      Px                   0.470
     In    18      Py                   0.477
     In    18      Pz                   0.493
     In    18      S                   -0.516
     In    19      Dzz                  1.998
     In    19      Dzy                  1.998
     In    19      Dzx                  1.998
     In    19      Dxx-yy               1.997
     In    19      Dxy                  1.998
     In    19      S                    1.416
     In    19      Px                   0.474
     In    19      Py                   0.482
     In    19      Pz                   0.489
     In    19      S                   -0.524
     In    20      Dzz                  1.997
     In    20      Dzy                  1.998
     In    20      Dzx                  1.998
     In    20      Dxx-yy               1.997
     In    20      Dxy                  1.998
     In    20      S                    1.421
     In    20      Px                   0.474
     In    20      Py                   0.488
     In    20      Pz                   0.488
     In    20      S                   -0.536
     In    21      Dzz                  1.998
     In    21      Dzy                  1.998
     In    21      Dzx                  1.998
     In    21      Dxx-yy               1.997
     In    21      Dxy                  1.998
     In    21      S                    1.421
     In    21      Px                   0.477
     In    21      Py                   0.483
     In    21      Pz                   0.484
     In    21      S                   -0.530
     In    22      Dzz                  1.998
     In    22      Dzy                  1.998
     In    22      Dzx                  1.998
     In    22      Dxx-yy               1.997
     In    22      Dxy                  1.998
     In    22      S                    1.419
     In    22      Px                   0.479
     In    22      Py                   0.478
     In    22      Pz                   0.486
     In    22      S                   -0.520
     In    23      Dzz                  1.997
     In    23      Dzy                  1.998
     In    23      Dzx                  1.998
     In    23      Dxx-yy               1.997
     In    23      Dxy                  1.998
     In    23      S                    1.423
     In    23      Px                   0.479
     In    23      Py                   0.486
     In    23      Pz                   0.478
     In    23      S                   -0.533
     In    24      Dzz                  1.998
     In    24      Dzy                  1.998
     In    24      Dzx                  1.998
     In    24      Dxx-yy               1.997
     In    24      Dxy                  1.998
     In    24      S                    1.418
     In    24      Px                   0.485
     In    24      Py                   0.478
     In    24      Pz                   0.482
     In    24      S                   -0.524
     In    25      Dzz                  1.997
     In    25      Dzy                  1.998
     In    25      Dzx                  1.998
     In    25      Dxx-yy               1.996
     In    25      Dxy                  1.998
     In    25      S                    1.433
     In    25      Px                   0.461
     In    25      Py                   0.507
     In    25      Pz                   0.490
     In    25      S                   -0.526
     In    26      Dzz                  1.998
     In    26      Dzy                  1.998
     In    26      Dzx                  1.998
     In    26      Dxx-yy               1.997
     In    26      Dxy                  1.998
     In    26      S                    1.430
     In    26      Px                   0.463
     In    26      Py                   0.484
     In    26      Pz                   0.488
     In    26      S                   -0.535
     In    27      Dzz                  1.998
     In    27      Dzy                  1.998
     In    27      Dzx                  1.998
     In    27      Dxx-yy               1.998
     In    27      Dxy                  1.997
     In    27      S                    1.435
     In    27      Px                   0.497
     In    27      Py                   0.447
     In    27      Pz                   0.481
     In    27      S                   -0.538
     In    28      Dzz                  1.998
     In    28      Dzy                  1.998
     In    28      Dzx                  1.998
     In    28      Dxx-yy               1.997
     In    28      Dxy                  1.998
     In    28      S                    1.426
     In    28      Px                   0.497
     In    28      Py                   0.467
     In    28      Pz                   0.480
     In    28      S                   -0.537
     In    29      Dzz                  1.998
     In    29      Dzy                  1.998
     In    29      Dzx                  1.998
     In    29      Dxx-yy               1.997
     In    29      Dxy                  1.998
     In    29      S                    1.415
     In    29      Px                   0.476
     In    29      Py                   0.472
     In    29      Pz                   0.487
     In    29      S                   -0.498
     In    30      Dzz                  1.998
     In    30      Dzy                  1.999
     In    30      Dzx                  1.998
     In    30      Dxx-yy               1.998
     In    30      Dxy                  1.999
     In    30      S                    1.432
     In    30      Px                   0.483
     In    30      Py                   0.459
     In    30      Pz                   0.474
     In    30      S                   -0.524
     In    31      Dzz                  1.998
     In    31      Dzy                  1.998
     In    31      Dzx                  1.998
     In    31      Dxx-yy               1.997
     In    31      Dxy                  1.999
     In    31      S                    1.420
     In    31      Px                   0.480
     In    31      Py                   0.472
     In    31      Pz                   0.485
     In    31      S                   -0.515
     In    32      Dzz                  1.998
     In    32      Dzy                  1.998
     In    32      Dzx                  1.998
     In    32      Dxx-yy               1.997
     In    32      Dxy                  1.998
     In    32      S                    1.418
     In    32      Px                   0.477
     In    32      Py                   0.476
     In    32      Pz                   0.487
     In    32      S                   -0.514
     In    33      Dzz                  1.998
     In    33      Dzy                  1.998
     In    33      Dzx                  1.998
     In    33      Dxx-yy               1.997
     In    33      Dxy                  1.998
     In    33      S                    1.420
     In    33      Px                   0.481
     In    33      Py                   0.473
     In    33      Pz                   0.484
     In    33      S                   -0.516
     In    34      Dzz                  1.998
     In    34      Dzy                  1.998
     In    34      Dzx                  1.998
     In    34      Dxx-yy               1.997
     In    34      Dxy                  1.998
     In    34      S                    1.421
     In    34      Px                   0.481
     In    34      Py                   0.475
     In    34      Pz                   0.486
     In    34      S                   -0.519
     In    35      Dzz                  1.998
     In    35      Dzy                  1.998
     In    35      Dzx                  1.998
     In    35      Dxx-yy               1.997
     In    35      Dxy                  1.999
     In    35      S                    1.416
     In    35      Px                   0.483
     In    35      Py                   0.470
     In    35      Pz                   0.485
     In    35      S                   -0.512
     In    36      Dzz                  1.998
     In    36      Dzy                  1.998
     In    36      Dzx                  1.998
     In    36      Dxx-yy               1.997
     In    36      Dxy                  1.999
     In    36      S                    1.419
     In    36      Px                   0.480
     In    36      Py                   0.473
     In    36      Pz                   0.489
     In    36      S                   -0.512
     In    37      Dzz                  1.998
     In    37      Dzy                  1.999
     In    37      Dzx                  1.998
     In    37      Dxx-yy               1.997
     In    37      Dxy                  1.998
     In    37      S                    1.421
     In    37      Px                   0.491
     In    37      Py                   0.478
     In    37      Pz                   0.472
     In    37      S                   -0.528
     In    38      Dzz                  1.997
     In    38      Dzy                  1.998
     In    38      Dzx                  1.998
     In    38      Dxx-yy               1.997
     In    38      Dxy                  1.998
     In    38      S                    1.425
     In    38      Px                   0.480
     In    38      Py                   0.486
     In    38      Pz                   0.471
     In    38      S                   -0.525
     In    39      Dzz                  1.997
     In    39      Dzy                  1.998
     In    39      Dzx                  1.998
     In    39      Dxx-yy               1.997
     In    39      Dxy                  1.998
     In    39      S                    1.436
     In    39      Px                   0.503
     In    39      Py                   0.483
     In    39      Pz                   0.474
     In    39      S                   -0.547
     In    40      Dzz                  1.997
     In    40      Dzy                  1.998
     In    40      Dzx                  1.998
     In    40      Dxx-yy               1.997
     In    40      Dxy                  1.998
     In    40      S                    1.433
     In    40      Px                   0.492
     In    40      Py                   0.491
     In    40      Pz                   0.460
     In    40      S                   -0.513
     In    41      Dzz                  1.998
     In    41      Dzy                  1.998
     In    41      Dzx                  1.998
     In    41      Dxx-yy               1.997
     In    41      Dxy                  1.998
     In    41      S                    1.427
     In    41      Px                   0.489
     In    41      Py                   0.477
     In    41      Pz                   0.474
     In    41      S                   -0.532
     In    42      Dzz                  1.997
     In    42      Dzy                  1.998
     In    42      Dzx                  1.998
     In    42      Dxx-yy               1.997
     In    42      Dxy                  1.998
     In    42      S                    1.423
     In    42      Px                   0.489
     In    42      Py                   0.485
     In    42      Pz                   0.472
     In    42      S                   -0.547
     In    43      Dzz                  1.998
     In    43      Dzy                  1.998
     In    43      Dzx                  1.998
     In    43      Dxx-yy               1.997
     In    43      Dxy                  1.998
     In    43      S                    1.426
     In    43      Px                   0.484
     In    43      Py                   0.482
     In    43      Pz                   0.479
     In    43      S                   -0.534
     In    44      Dzz                  1.998
     In    44      Dzy                  1.998
     In    44      Dzx                  1.998
     In    44      Dxx-yy               1.997
     In    44      Dxy                  1.998
     In    44      S                    1.421
     In    44      Px                   0.483
     In    44      Py                   0.475
     In    44      Pz                   0.480
     In    44      S                   -0.524
     In    45      Dzz                  1.998
     In    45      Dzy                  1.998
     In    45      Dzx                  1.998
     In    45      Dxx-yy               1.997
     In    45      Dxy                  1.998
     In    45      S                    1.422
     In    45      Px                   0.479
     In    45      Py                   0.480
     In    45      Pz                   0.484
     In    45      S                   -0.528
     In    46      Dzz                  1.997
     In    46      Dzy                  1.998
     In    46      Dzx                  1.998
     In    46      Dxx-yy               1.997
     In    46      Dxy                  1.998
     In    46      S                    1.427
     In    46      Px                   0.478
     In    46      Py                   0.487
     In    46      Pz                   0.482
     In    46      S                   -0.538
     In    47      Dzz                  1.998
     In    47      Dzy                  1.998
     In    47      Dzx                  1.998
     In    47      Dxx-yy               1.997
     In    47      Dxy                  1.998
     In    47      S                    1.419
     In    47      Px                   0.476
     In    47      Py                   0.478
     In    47      Pz                   0.489
     In    47      S                   -0.522
     In    48      Dzz                  1.997
     In    48      Dzy                  1.998
     In    48      Dzx                  1.998
     In    48      Dxx-yy               1.997
     In    48      Dxy                  1.998
     In    48      S                    1.422
     In    48      Px                   0.473
     In    48      Py                   0.485
     In    48      Pz                   0.486
     In    48      S                   -0.528
  -------------------------------------------
                           Total:     864.000
  -------------------------------------------

     Atomic Populations (Mulliken)
     -----------------------------
Species          Ion     s       p       d       f      Total   Charge (e)
==========================================================================
  P               1     1.742   3.923   0.000   0.000   5.665    -0.665
  P               2     1.739   3.925   0.000   0.000   5.664    -0.664
  P               3     1.734   3.936   0.000   0.000   5.670    -0.670
  P               4     1.738   3.933   0.000   0.000   5.672    -0.672
  P               5     1.733   3.943   0.000   0.000   5.676    -0.676
  P               6     1.733   3.941   0.000   0.000   5.674    -0.674
  P               7     1.733   3.941   0.000   0.000   5.674    -0.674
  P               8     1.733   3.942   0.000   0.000   5.675    -0.675
  P               9     1.733   3.940   0.000   0.000   5.673    -0.673
  P              10     1.732   3.942   0.000   0.000   5.674    -0.674
  P              11     1.730   3.944   0.000   0.000   5.674    -0.674
  P              12     1.732   3.934   0.000   0.000   5.667    -0.667
  P              13     1.735   3.936   0.000   0.000   5.670    -0.670
  P              14     1.737   3.934   0.000   0.000   5.671    -0.671
  P              15     1.738   3.935   0.000   0.000   5.673    -0.673
  P              16     1.740   3.930   0.000   0.000   5.670    -0.670
  P              17     1.735   3.938   0.000   0.000   5.672    -0.672
  P              18     1.736   3.935   0.000   0.000   5.671    -0.671
  P              19     1.736   3.937   0.000   0.000   5.673    -0.673
  P              20     1.733   3.942   0.000   0.000   5.675    -0.675
  P              21     1.735   3.939   0.000   0.000   5.674    -0.674
  P              22     1.738   3.933   0.000   0.000   5.671    -0.671
  P              23     1.735   3.937   0.000   0.000   5.672    -0.672
  P              24     1.737   3.935   0.000   0.000   5.672    -0.672
  P              25     1.731   3.937   0.000   0.000   5.668    -0.668
  P              26     1.744   3.912   0.000   0.000   5.656    -0.656
  P              27     1.743   3.926   0.000   0.000   5.668    -0.668
  P              28     1.738   3.934   0.000   0.000   5.672    -0.672
  P              29     1.738   3.933   0.000   0.000   5.671    -0.671
  P              30     1.741   3.927   0.000   0.000   5.669    -0.669
  P              31     1.739   3.933   0.000   0.000   5.671    -0.671
  P              32     1.737   3.935   0.000   0.000   5.673    -0.673
  P              33     1.739   3.932   0.000   0.000   5.671    -0.671
  P              34     1.737   3.933   0.000   0.000   5.670    -0.670
  P              35     1.743   3.927   0.000   0.000   5.669    -0.669
  P              36     1.739   3.926   0.000   0.000   5.665    -0.665
  P              37     1.734   3.940   0.000   0.000   5.674    -0.674
  P              38     1.740   3.915   0.000   0.000   5.655    -0.655
  P              39     1.735   3.936   0.000   0.000   5.672    -0.672
  P              40     1.733   3.942   0.000   0.000   5.675    -0.675
  P              41     1.736   3.937   0.000   0.000   5.673    -0.673
  P              42     1.734   3.940   0.000   0.000   5.674    -0.674
  P              43     1.734   3.939   0.000   0.000   5.674    -0.674
  P              44     1.737   3.934   0.000   0.000   5.672    -0.672
  P              45     1.735   3.936   0.000   0.000   5.672    -0.672
  P              46     1.733   3.940   0.000   0.000   5.673    -0.673
  P              47     1.735   3.938   0.000   0.000   5.672    -0.672
  P              48     1.733   3.940   0.000   0.000   5.673    -0.673
  In              1     0.923   1.416   9.990   0.000  12.330     0.670
  In              2     0.916   1.435   9.990   0.000  12.341     0.659
  In              3     0.935   1.478   9.986   0.000  12.399     0.601
  In              4     0.928   1.422   9.990   0.000  12.340     0.660
  In              5     0.893   1.446   9.988   0.000  12.327     0.673
  In              6     0.898   1.448   9.989   0.000  12.335     0.665
  In              7     0.882   1.449   9.989   0.000  12.319     0.681
  In              8     0.883   1.450   9.989   0.000  12.321     0.679
  In              9     0.882   1.449   9.989   0.000  12.320     0.680
  In             10     0.886   1.449   9.989   0.000  12.324     0.676
  In             11     0.885   1.448   9.989   0.000  12.321     0.679
  In             12     0.880   1.454   9.988   0.000  12.323     0.677
  In             13     0.900   1.436   9.989   0.000  12.325     0.675
  In             14     0.912   1.435   9.990   0.000  12.336     0.664
  In             15     0.902   1.430   9.989   0.000  12.321     0.679
  In             16     0.902   1.433   9.989   0.000  12.324     0.676
  In             17     0.889   1.446   9.989   0.000  12.324     0.676
  In             18     0.894   1.440   9.990   0.000  12.323     0.677
  In             19     0.892   1.444   9.989   0.000  12.326     0.674
  In             20     0.886   1.450   9.989   0.000  12.325     0.675
  In             21     0.891   1.445   9.989   0.000  12.325     0.675
  In             22     0.898   1.442   9.989   0.000  12.330     0.670
  In             23     0.889   1.443   9.989   0.000  12.321     0.679
  In             24     0.894   1.446   9.989   0.000  12.329     0.671
  In             25     0.907   1.457   9.988   0.000  12.352     0.648
  In             26     0.895   1.434   9.989   0.000  12.318     0.682
  In             27     0.897   1.424   9.989   0.000  12.310     0.690
  In             28     0.890   1.444   9.988   0.000  12.322     0.678
  In             29     0.917   1.436   9.990   0.000  12.342     0.658
  In             30     0.908   1.416   9.990   0.000  12.315     0.685
  In             31     0.905   1.437   9.990   0.000  12.331     0.669
  In             32     0.904   1.440   9.989   0.000  12.334     0.666
  In             33     0.904   1.438   9.990   0.000  12.332     0.668
  In             34     0.901   1.442   9.989   0.000  12.333     0.667
  In             35     0.904   1.437   9.990   0.000  12.331     0.669
  In             36     0.907   1.442   9.989   0.000  12.339     0.661
  In             37     0.893   1.441   9.989   0.000  12.323     0.677
  In             38     0.900   1.437   9.989   0.000  12.326     0.674
  In             39     0.888   1.459   9.988   0.000  12.335     0.665
  In             40     0.920   1.443   9.989   0.000  12.351     0.649
  In             41     0.895   1.440   9.989   0.000  12.324     0.676
  In             42     0.876   1.446   9.989   0.000  12.311     0.689
  In             43     0.892   1.445   9.989   0.000  12.326     0.674
  In             44     0.897   1.439   9.990   0.000  12.325     0.675
  In             45     0.894   1.443   9.989   0.000  12.327     0.673
  In             46     0.889   1.447   9.989   0.000  12.325     0.675
  In             47     0.897   1.443   9.989   0.000  12.329     0.671
  In             48     0.894   1.443   9.989   0.000  12.327     0.673
==========================================================================

                 Bond                   Population      Length (A)
======================================================================
              P 25 -- In 27                  0.77        2.46583
              P 1  -- In 3                   0.67        2.47065
              P 2  -- In 3                   0.66        2.47584
              P 25 -- In 28                  0.74        2.47909
              P 3  -- In 3                   0.63        2.48573
              P 25 -- In 25                  0.73        2.48574
              P 26 -- In 16                  0.60        2.50531
              P 14 -- In 4                   0.61        2.50762
              P 38 -- In 39                  0.62        2.51283
              P 11 -- In 26                  1.34        2.51530
              P 13 -- In 15                  0.59        2.51668
              P 37 -- In 40                  0.60        2.51740
              P 12 -- In 12                  0.61        2.52064
              P 48 -- In 13                  1.34        2.52082
              P 5  -- In 5                   0.59        2.52352
              P 4  -- In 6                   1.33        2.52578
              P 6  -- In 7                   1.32        2.52753
              P 9  -- In 11                  1.33        2.52755
              P 47 -- In 14                  1.34        2.52784
              P 46 -- In 48                  1.34        2.52825
              P 10 -- In 12                  1.33        2.52885
              P 17 -- In 20                  1.33        2.52917
              P 6  -- In 6                   0.59        2.52968
              P 7  -- In 9                   1.33        2.53058
              P 20 -- In 10                  1.32        2.53122
              P 5  -- In 8                   1.33        2.53188
              P 8  -- In 46                  1.33        2.53191
              P 45 -- In 47                  1.35        2.53384
              P 15 -- In 17                  1.35        2.53392
              P 18 -- In 19                  1.33        2.53465
              P 26 -- In 27                  1.21        2.53466
              P 40 -- In 5                   0.59        2.53480
              P 8  -- In 8                   0.57        2.53626
              P 7  -- In 7                   0.58        2.53637
              P 3  -- In 5                   1.27        2.53678
              P 11 -- In 11                  0.59        2.53701
              P 10 -- In 10                  0.57        2.53702
              P 13 -- In 16                  1.30        2.53778
              P 9  -- In 9                   0.57        2.53789
              P 38 -- In 28                  1.22        2.53809
              P 19 -- In 21                  1.33        2.53844
              P 14 -- In 15                  1.29        2.53898
              P 43 -- In 45                  1.33        2.53941
              P 20 -- In 20                  0.57        2.54090
              P 35 -- In 2                   1.32        2.54203
              P 12 -- In 25                  1.25        2.54254
              P 28 -- In 30                  1.32        2.54426
              P 34 -- In 36                  1.34        2.54443
              P 21 -- In 23                  1.32        2.54455
              P 39 -- In 42                  0.60        2.54462
              P 16 -- In 18                  1.33        2.54464
              P 12 -- In 38                  0.61        2.54466
              P 46 -- In 46                  0.56        2.54507
              P 40 -- In 40                  0.58        2.54535
              P 29 -- In 32                  1.32        2.54545
              P 42 -- In 43                  1.32        2.54574
              P 42 -- In 42                  0.57        2.54599
              P 36 -- In 1                   1.32        2.54676
              P 32 -- In 22                  1.33        2.54683
              P 23 -- In 23                  0.58        2.54706
              P 44 -- In 34                  1.33        2.54773
              P 37 -- In 39                  1.31        2.54880
              P 38 -- In 38                  0.60        2.54921
              P 11 -- In 25                  0.55        2.55016
              P 21 -- In 21                  0.56        2.55017
              P 28 -- In 28                  0.53        2.55102
              P 23 -- In 37                  0.59        2.55165
              P 39 -- In 41                  1.32        2.55172
              P 43 -- In 43                  0.56        2.55181
              P 46 -- In 11                  0.56        2.55244
              P 41 -- In 41                  0.55        2.55274
              P 40 -- In 42                  1.31        2.55292
              P 23 -- In 38                  1.29        2.55320
              P 22 -- In 24                  1.32        2.55320
              P 37 -- In 37                  0.57        2.55453
              P 24 -- In 24                  0.56        2.55453
              P 41 -- In 44                  1.32        2.55458
              P 6  -- In 20                  0.56        2.55484
              P 39 -- In 39                  0.55        2.55488
              P 33 -- In 35                  1.34        2.55566
              P 5  -- In 7                   0.56        2.55578
              P 42 -- In 8                   0.57        2.55591
              P 17 -- In 17                  0.56        2.55627
              P 31 -- In 33                  1.33        2.55630
              P 48 -- In 48                  0.58        2.55666
              P 8  -- In 9                   0.56        2.55686
              P 9  -- In 12                  0.57        2.55689
              P 24 -- In 37                  1.31        2.55692
              P 7  -- In 10                  0.56        2.55723
              P 19 -- In 19                  0.56        2.55797
              P 3  -- In 6                   0.53        2.55815
              P 43 -- In 46                  0.56        2.55843
              P 10 -- In 23                  0.59        2.55858
              P 20 -- In 21                  0.56        2.56076
              P 45 -- In 45                  0.55        2.56082
              P 30 -- In 31                  1.34        2.56093
              P 41 -- In 43                  0.57        2.56127
              P 45 -- In 48                  0.55        2.56216
              P 21 -- In 24                  0.57        2.56253
              P 1  -- In 4                   1.17        2.56271
              P 18 -- In 18                  0.55        2.56327
              P 24 -- In 2                   0.57        2.56365
              P 47 -- In 47                  0.57        2.56409
              P 2  -- In 40                  1.22        2.56420
              P 27 -- In 29                  1.31        2.56421
              P 17 -- In 19                  0.55        2.56475
              P 22 -- In 22                  0.55        2.56502
              P 44 -- In 45                  0.55        2.56533
              P 4  -- In 17                  0.56        2.56535
              P 48 -- In 26                  0.55        2.56577
              P 28 -- In 41                  0.57        2.56595
              P 31 -- In 34                  0.55        2.56643
              P 34 -- In 47                  0.55        2.56648
              P 32 -- In 32                  0.55        2.56681
              P 34 -- In 34                  0.54        2.56787
              P 32 -- In 33                  0.55        2.56826
              P 36 -- In 36                  0.56        2.56838
              P 18 -- In 32                  0.56        2.56879
              P 29 -- In 29                  0.54        2.56891
              P 19 -- In 22                  0.56        2.56903
              P 44 -- In 44                  0.55        2.56997
              P 33 -- In 36                  0.55        2.57196
              P 29 -- In 31                  0.56        2.57275
              P 30 -- In 44                  0.56        2.57301
              P 2  -- In 2                   0.53        2.57345
              P 47 -- In 13                  0.55        2.57365
              P 15 -- In 18                  0.56        2.57385
              P 26 -- In 26                  0.59        2.57496
              P 33 -- In 33                  0.54        2.57542
              P 22 -- In 35                  0.56        2.57814
              P 31 -- In 31                  0.55        2.57830
              P 13 -- In 13                  0.57        2.57885
              P 4  -- In 4                   0.54        2.58069
              P 36 -- In 14                  0.55        2.58123
              P 15 -- In 15                  0.53        2.58457
              P 35 -- In 35                  0.54        2.58724
              P 16 -- In 29                  0.57        2.58749
              P 27 -- In 30                  0.59        2.59074
              P 14 -- In 14                  0.54        2.59120
              P 35 -- In 1                   0.55        2.59137
              P 30 -- In 30                  0.52        2.59250
              P 16 -- In 16                  0.51        2.59431
              P 27 -- In 27                  0.49        2.59996
              P 1  -- In 1                   0.51        2.61334
======================================================================

 Hirshfeld supercell size:           1           1           4
Standard grid dimensions: 250 250 180
Fine grid dimensions:     250 250 180


     Hirshfeld Analysis
     ------------------
Species   Ion     Hirshfeld Charge (e)
======================================
  P        1                -0.24
  P        2                -0.23
  P        3                -0.24
  P        4                -0.24
  P        5                -0.24
  P        6                -0.24
  P        7                -0.24
  P        8                -0.24
  P        9                -0.24
  P       10                -0.24
  P       11                -0.24
  P       12                -0.24
  P       13                -0.24
  P       14                -0.24
  P       15                -0.24
  P       16                -0.24
  P       17                -0.24
  P       18                -0.24
  P       19                -0.24
  P       20                -0.24
  P       21                -0.24
  P       22                -0.24
  P       23                -0.24
  P       24                -0.24
  P       25                -0.27
  P       26                -0.24
  P       27                -0.24
  P       28                -0.23
  P       29                -0.24
  P       30                -0.24
  P       31                -0.24
  P       32                -0.24
  P       33                -0.24
  P       34                -0.24
  P       35                -0.24
  P       36                -0.24
  P       37                -0.24
  P       38                -0.23
  P       39                -0.24
  P       40                -0.24
  P       41                -0.24
  P       42                -0.24
  P       43                -0.24
  P       44                -0.24
  P       45                -0.24
  P       46                -0.24
  P       47                -0.24
  P       48                -0.24
  In       1                 0.25
  In       2                 0.24
  In       3                 0.23
  In       4                 0.24
  In       5                 0.23
  In       6                 0.23
  In       7                 0.24
  In       8                 0.24
  In       9                 0.24
  In      10                 0.24
  In      11                 0.24
  In      12                 0.23
  In      13                 0.24
  In      14                 0.24
  In      15                 0.24
  In      16                 0.24
  In      17                 0.23
  In      18                 0.24
  In      19                 0.24
  In      20                 0.24
  In      21                 0.24
  In      22                 0.24
  In      23                 0.24
  In      24                 0.24
  In      25                 0.23
  In      26                 0.25
  In      27                 0.25
  In      28                 0.24
  In      29                 0.24
  In      30                 0.25
  In      31                 0.24
  In      32                 0.24
  In      33                 0.24
  In      34                 0.24
  In      35                 0.24
  In      36                 0.24
  In      37                 0.24
  In      38                 0.24
  In      39                 0.23
  In      40                 0.23
  In      41                 0.24
  In      42                 0.24
  In      43                 0.24
  In      44                 0.24
  In      45                 0.24
  In      46                 0.24
  In      47                 0.24
  In      48                 0.24
======================================

 
 A BibTeX formatted list of references used in this run has been written to 
 30deg_Singlepoints_5.bib
 
Initialisation time =     30.40 s
Calculation time    =   6164.02 s
Finalisation time   =     66.57 s
Total time          =   6261.00 s
Peak Memory Use     = 8588016 kB
 
Overall parallel efficiency rating: Terrible (32%)
 
Data was distributed by:-
G-vector (6-way); efficiency rating: Poor (35%)
k-point (20-way); efficiency rating: Very good (83%)
