 +-------------------------------------------------+
 |                                                 |
 |      CCC   AA    SSS  TTTTT  EEEEE  PPPP        |
 |     C     A  A  S       T    E      P   P       |
 |     C     AAAA   SS     T    EEE    PPPP        |
 |     C     A  A     S    T    E      P           |
 |      CCC  A  A  SSS     T    EEEEE  P           |
 |                                                 |
 +-------------------------------------------------+
 |                                                 |
 | Welcome to Academic Release CASTEP version 22.11|
 | Ab Initio Total Energy Program                  |
 |                                                 |
 | Authors:                                        |
 | M. Segall, M. Probert, C. Pickard, P. Hasnip,   |
 | S. Clark, K. Refson, J. R. Yates, M. Payne      |
 |                                                 |
 | Contributors:                                   |
 | P. Lindan, P. Haynes, J. White, V. Milman,      |
 | N. Govind, M. Gibson, P. Tulip, V. Cocula,      |
 | B. Montanari, D. Quigley, M. Glover,            |
 | L. Bernasconi, A. Perlov, M. Plummer,           |
 | E. McNellis, J. Meyer, J. Gale, D. Jochym       |
 | J. Aarons, B. Walker, R. Gillen, D. Jones       |
 | T. Green, I. J. Bush, C. J. Armstrong,          |
 | E. J. Higgins, E. L. Brown, M. S. McFly,        |
 | J. Wilkins, B-C. Shih, P. J. P. Byrne,          |
 | R. J. Maurer, J. C. Womack, J. Dziedzic,        |
 | A. Bartok-Partay, L. LeBlanc, T. K. Stenczel,   |
 | J. Kermode, S. Sturniolo, B. Shi, B. Durham     |
 | M. Evans, M. J. Smith                           |
 |                                                 |
 | Copyright (c) 2000 - 2021                       |
 |                                                 |
 |     Distributed under license from Cambridge    |
 |     Enterprise for academic use only.           |
 |                                                 |
 | Please cite                                     |
 |                                                 |
 |     "First principles methods using CASTEP"     |
 |                                                 |
 |         Zeitschrift fuer Kristallographie       |
 |           220(5-6) pp. 567-570 (2005)           |
 |                                                 |
 | S. J. Clark, M. D. Segall, C. J. Pickard,       |
 | P. J. Hasnip, M. J. Probert, K. Refson,         |
 | M. C. Payne                                     |
 |                                                 |
 |       in all publications arising from          |
 |              your use of CASTEP                 |
 |                                                 |
 +-------------------------------------------------+
 |                                                 |
 |              http://www.castep.org              |
 |                                                 |
 +-------------------------------------------------+



 Compiled for linux_x86_64_gfortran10-XT on Thu, 16 Mar 2023 13:12:36 +0000
 from code version Version unavailable
 Compiler: GNU Fortran 11.2.0; Optimisation: fast
 MATHLIBS: LibSci (LAPACK version 3.10.1)
 FFT Lib : fftw3 version commercial-fftw-3.3.10-sse2-avx-avx2-avx2_128
 Fundamental constants values: CODATA 2014

 Run started: Mon, 25 Mar 2024 19:45:04 +0000

 Atomic calculation performed for P: 1s2 2s2 2p6 3s2 3p3

 Converged in 47 iterations to an ae energy of -9309.074 eV

   ============================================================                
   | Pseudopotential Report - Date of generation 25-03-2024   |                
   ------------------------------------------------------------                
   | Element: P Ionic charge:  5.00 Level of theory: RSCAN    |                
   | Atomic Solver: Koelling-Harmon                           |                
   |                                                          |                
   |               Reference Electronic Structure             |                
   |         Orbital         Occupation         Energy        |                
   |            3s              2.000           -0.535        |                
   |            3p              3.000           -0.209        |                
   |                                                          |                
   |                 Pseudopotential Definition               |                
   |        Beta     l      e      Rc     scheme   norm       |                
   |          1      0   -0.535   1.807     qc      0         |                
   |          2      0    0.250   1.807     qc      0         |                
   |          3      1   -0.209   1.807     qc      0         |                
   |          4      1    0.250   1.807     qc      0         |                
   |          5      2    0.000   1.807     qc      0         |                
   |          6      2    0.250   1.807     qc      0         |                
   |         loc     3    0.000   1.807     pn      0         |                
   |                                                          |                
   | Augmentation charge Rinner = 1.263                       |                
   | Partial core correction Rc = 1.263                       |                
   ------------------------------------------------------------                
   | "3|1.8|4|4|5|30:31:32"                                   |                
   ------------------------------------------------------------                
   |      Author: Chris J. Pickard, Cambridge University      |                
   ============================================================                
 Warning: otfg_output_psp cannot write out meta-GGA pseudopotentials presently.

 Atomic calculation performed for In:
 1s2 2s2 2p6 3s2 3p6 3d10 4s2 4p6 4d10 5s2 5p1

 Converged in 84 iterations to an ae energy of -160093.327 eV

   ============================================================                
   | Pseudopotential Report - Date of generation 25-03-2024   |                
   ------------------------------------------------------------                
   | Element: In Ionic charge: 13.00 Level of theory: RSCAN   |                
   | Atomic Solver: Koelling-Harmon                           |                
   |                                                          |                
   |               Reference Electronic Structure             |                
   |         Orbital         Occupation         Energy        |                
   |            4d             10.000           -0.711        |                
   |            5s              2.000           -0.313        |                
   |            5p              1.000           -0.095        |                
   |                                                          |                
   |                 Pseudopotential Definition               |                
   |        Beta     l      e      Rc     scheme   norm       |                
   |          1      0   -0.313   2.501     qc      0         |                
   |          2      0    0.250   2.501     qc      0         |                
   |          3      1   -0.095   2.501     qc      0         |                
   |          4      1    0.250   2.501     qc      0         |                
   |          5      2   -0.711   2.207     qc      0         |                
   |          6      2    0.250   2.207     qc      0         |                
   |         loc     3    0.000   2.501     pn      0         |                
   |                                                          |                
   | Augmentation charge Rinner = 1.504                       |                
   | Partial core correction Rc = 1.504                       |                
   ------------------------------------------------------------                
   | "3|2.5|2.5|1.5|7|8|9|50:51:42U2.2U2.2"                   |                
   ------------------------------------------------------------                
   |      Author: Chris J. Pickard, Cambridge University      |                
   ============================================================                
 Warning: otfg_output_psp cannot write out meta-GGA pseudopotentials presently.

 Pseudo atomic calculation performed for P 3s2 3p3

 Converged in 23 iterations to a total energy of -208.0292 eV

 Pseudo atomic calculation performed for In 4d10 5s2 5p1

 Converged in 42 iterations to a total energy of -1747.4500 eV
 Calculation parallelised over 252 processes.
 Data is distributed by G-vector(7-way) and k-point(36-way)
 Each process may use up to 2 threads.

 ************************************ Title ************************************
 

 ***************************** General Parameters ******************************
  
 output verbosity                               : normal  (1)
 write checkpoint data to                       : StackingFaultStructs_(1_1_1)_(1_1_-2)_1.check
 type of calculation                            : geometry optimization
 stress calculation                             : off
 density difference calculation                 : off
 electron localisation func (ELF) calculation   : off
 Hirshfeld analysis                             : on
 polarisation (Berry phase) analysis            : off
 molecular orbital projected DOS                : off
 deltaSCF calculation                           : off
 unlimited duration calculation
 timing information                             : on
 memory usage estimate                          : on
 write extra output files                       : on
 write final potential to formatted file        : off
 write final density to formatted file          : off
 write BibTeX reference list                    : on
 write OTFG pseudopotential files               : on
 write electrostatic potential file             : on
 write bands file                               : on
 checkpoint writing                             : off
  
 output         length unit                     : A
 output           mass unit                     : amu
 output           time unit                     : ps
 output         charge unit                     : e
 output           spin unit                     : hbar/2
 output         energy unit                     : eV
 output          force unit                     : eV/A
 output       velocity unit                     : A/ps
 output       pressure unit                     : GPa
 output     inv_length unit                     : 1/A
 output      frequency unit                     : cm-1
 output force constant unit                     : eV/A**2
 output         volume unit                     : A**3
 output   IR intensity unit                     : (D/A)**2/amu
 output         dipole unit                     : D
 output         efield unit                     : eV/A/e
 output        entropy unit                     : J/mol/K
 output    efield chi2 unit                     : pm/V
  
 wavefunctions paging                           : none
 random number generator seed                   : randomised (194505573)
 data distribution                              : optimal for this architecture
 optimization strategy                          : balance speed and memory

 *********************** Exchange-Correlation Parameters ***********************
  
 using functional                               : RSCAN
 relativistic treatment                         : Koelling-Harmon
 DFT+D: Semi-empirical dispersion correction    : off

 ************************* Pseudopotential Parameters **************************
  
 pseudopotential representation                 : reciprocal space
 <beta|phi> representation                      : reciprocal space
 spin-orbit coupling                            : off

 **************************** Basis Set Parameters *****************************
  
 plane wave basis set cut-off                   :   900.0000   eV
 size of standard grid                          :     2.0000
 size of   fine   gmax                          :    30.7390   1/A
 finite basis set correction                    : none

 **************************** Electronic Parameters ****************************
  
 number of  electrons                           :  432.0    
 net charge of system                           :  0.000    
 treating system as non-spin-polarized
 number of bands                                :        259

 ********************* Electronic Minimization Parameters **********************
  
 Method: Treating system as metallic with density mixing treatment of electrons,
         and number of  SD  steps               :          1
         and number of  CG  steps               :          4
  
 total energy / atom convergence tol.           : 0.1000E-07   eV
 eigen-energy convergence tolerance             : 0.2222E-08   eV
 max force / atom convergence tol.              : ignored
 convergence tolerance window                   :          3   cycles
 max. number of SCF cycles                      :         50
 number of fixed-spin iterations                :         10
 smearing scheme                                : Gaussian
 smearing width                                 : 0.2000       eV
 Fermi energy convergence tolerance             : 0.2721E-13   eV
 periodic dipole correction                     : NONE

 ************************** Density Mixing Parameters **************************
  
 density-mixing scheme                          : Pulay
 max. length of mixing history                  :         15
 charge density mixing amplitude                : 0.5000    
 cut-off energy for mixing                      :  900.0       eV

 *********************** Population Analysis Parameters ************************
  
 Population analysis with cutoff                :  3.000       A
 Population analysis output                     : summary and pdos components

 ********************** Geometry Optimization Parameters ***********************
  
 optimization method                            : LBFGS
 max. no. of LBFGS updates                      : unbounded
 preconditioned LBFGS is activated
 preconditioner type                            : EXP
     stabilization constant                     :     0.1000
     parameter A                                :     3.0000
     nearest neighbor distance                  : automatic
     cut-off distance                           : automatic
     parameter mu                               : automatic
 variable cell method                           : fixed basis quality
 max. number of steps                           :         30
 estimated bulk modulus                         :  500.0       GPa
 estimated <frequency>                          :  1668.       cm-1
 geom line minimiser                            : on
 with line minimiser tolerance                  :     0.4000
 total energy convergence tolerance             : 0.2000E-04   eV/atom
        max ionic |force| tolerance             : 0.1000E-02   eV/A
 max ionic |displacement| tolerance             : 0.1000E-02   A
   max |stress component| tolerance             : 0.1000       GPa
 convergence tolerance window                   :          2   steps
 backup results every                           :          5   steps
 write geom trajectory file                     : on

 *******************************************************************************
  

                           -------------------------------
                                      Unit Cell
                           -------------------------------
        Real Lattice(A)                      Reciprocal Lattice(1/A)
     8.3456610     0.0000000     0.0000000        0.752868503   0.000000000   0.000000000
     0.0000000    14.4551090     0.0000000        0.000000000   0.434668829  -0.035464317
     0.0000000     0.8339490    10.2213060        0.000000000   0.000000000   0.614714529

                       Lattice parameters(A)       Cell Angles
                    a =      8.345661          alpha =   85.335610
                    b =     14.455109          beta  =   90.000000
                    c =     10.255270          gamma =   90.000000

                       Current cell volume =          1233.072183       A**3
                                   density =             2.837630   AMU/A**3
                                           =             4.711995     g/cm^3

                           -------------------------------
                                     Cell Contents
                           -------------------------------
                         Total number of ions in cell =   48
                      Total number of species in cell =    2
                        Max number of any one species =   24

            xxxxxxxxxxxxxxxxxxxxxxxxxxxxxxxxxxxxxxxxxxxxxxxxxxxxxxxxxxxx
            x  Element    Atom        Fractional coordinates of atoms  x
            x            Number           u          v          w      x
            x----------------------------------------------------------x
            x  P            1         0.000000   0.456428   0.755247   x 
            x  P            2         0.000000   0.809287   0.416796   x 
            x  P            3         0.250000   0.706428   0.755247   x 
            x  P            4         0.750000   0.706428   0.755247   x 
            x  P            5         0.250000   0.206428   0.755247   x 
            x  P            6         0.750000   0.206428   0.755247   x 
            x  P            7         0.500000   0.161961   0.081566   x 
            x  P            8         0.500000   0.456428   0.755247   x 
            x  P            9         0.000000   0.661961   0.081566   x 
            x  P           10         0.000000   0.161961   0.081566   x 
            x  P           11         0.250000   0.411961   0.081566   x 
            x  P           12         0.000000   0.309287   0.416796   x 
            x  P           13         0.250000   0.059287   0.416796   x 
            x  P           14         0.000000  -0.043572   0.755247   x 
            x  P           15         0.500000  -0.043572   0.755247   x 
            x  P           16         0.750000   0.411961   0.081566   x 
            x  P           17         0.500000   0.661961   0.081566   x 
            x  P           18         0.750000   0.911961   0.081566   x 
            x  P           19         0.250000   0.911961   0.081566   x 
            x  P           20         0.500000   0.809287   0.416796   x 
            x  P           21         0.500000   0.309287   0.416796   x 
            x  P           22         0.750000   0.559287   0.416796   x 
            x  P           23         0.750000   0.059287   0.416796   x 
            x  P           24         0.250000   0.559287   0.416796   x 
            x  In           1         0.500000   0.794837   0.667263   x 
            x  In           2         0.750000   0.044837   0.667263   x 
            x  In           3         0.250000   0.750201  -0.003480   x 
            x  In           4         0.750000   0.750201  -0.003480   x 
            x  In           5         0.250000   0.044837   0.667263   x 
            x  In           6         0.500000   0.294837   0.667263   x 
            x  In           7         0.500000   0.500201  -0.003480   x 
            x  In           8         0.250000   0.897478   0.332609   x 
            x  In           9         0.500000   0.647478   0.332609   x 
            x  In          10         0.750000   0.250201  -0.003480   x 
            x  In          11         0.750000   0.397478   0.332609   x 
            x  In          12         0.000000   0.147478   0.332609   x 
            x  In          13         0.000000   0.000201  -0.003480   x 
            x  In          14         0.000000   0.647478   0.332609   x 
            x  In          15         0.250000   0.544837   0.667263   x 
            x  In          16         0.000000   0.500201  -0.003480   x 
            x  In          17         0.250000   0.250201  -0.003480   x 
            x  In          18         0.000000   0.794837   0.667263   x 
            x  In          19         0.000000   0.294837   0.667263   x 
            x  In          20         0.750000   0.897478   0.332609   x 
            x  In          21         0.250000   0.397478   0.332609   x 
            x  In          22         0.500000   0.000201  -0.003480   x 
            x  In          23         0.500000   0.147478   0.332609   x 
            x  In          24         0.750000   0.544837   0.667263   x 
            xxxxxxxxxxxxxxxxxxxxxxxxxxxxxxxxxxxxxxxxxxxxxxxxxxxxxxxxxxxx


                         No user defined ionic velocities

                           -------------------------------
                                   Details of Species
                           -------------------------------

                               Mass of species in AMU
                                    P   30.9737600
                                    In  114.8180000

                          Electric Quadrupole Moment (Barn)
                                    P    1.0000000 No Isotope Defined
                                    In    0.7700000 Isotope115

                          Files used for pseudopotentials:
                                    P 3|1.8|4|4|5|30:31:32
                                    In 3|2.5|2.5|1.5|7|8|9|50:51:42U2.2U2.2

                           -------------------------------
                              k-Points For BZ Sampling
                           -------------------------------
                       MP grid size for SCF calculation is  4  4  4
                            with an offset of   0.125  0.125  0.125
                       Number of kpoints used =            36

                           -------------------------------
                               Symmetry and Constraints
                           -------------------------------

                      Cell is a supercell containing 8 primitive cells
                      Maximum deviation from symmetry =  0.00000         ANG

                      Number of symmetry operations   =           1
                      Number of ionic constraints     =          96
                      Point group of crystal =     1: C1, 1, 1
                      Space group of crystal =     8: Cm, C -2y

             Set iprint > 1 for details on symmetry rotations/translations

                         Centre of mass is NOT constrained
             Set iprint > 1 for details of linear ionic constraints

                         Number of cell constraints= 6
                         Cell constraints are:  0 0 0 0 0 0

                         External pressure/stress (GPa)
                          0.00000   0.00000   0.00000
                                    0.00000   0.00000
                                              0.00000
 
+---------------- MEMORY AND SCRATCH DISK ESTIMATES PER PROCESS --------------+
|                                                     Memory          Disk    |
| Baseline code, static data and system overhead      488.0 MB         0.0 MB |
| BLAS internal memory storage                          0.0 MB         0.0 MB |
| Model and support data                             1460.1 MB         0.0 MB |
| Electronic energy minimisation requirements         243.7 MB         0.0 MB |
| Force calculation requirements                       29.4 MB         0.0 MB |
|                                               ----------------------------- |
| Approx. total storage required per process         2191.8 MB         0.0 MB |
|                                                                             |
| Requirements will fluctuate during execution and may exceed these estimates |
+-----------------------------------------------------------------------------+
Calculating approximate eigenstates for fixed initial Hamiltonian
Cut-off for approx. calculation is   89.988 eV
Improving approx. states at cut-off of  450.000 eV
Resetting cut-off to  900.000 eV
Calculating total energy with cut-off of  900.000 eV.
------------------------------------------------------------------------ <-- SCF
SCF loop      Energy           Fermi           Energy gain       Timer   <-- SCF
                               energy          per atom          (sec)   <-- SCF
------------------------------------------------------------------------ <-- SCF
Initial  -4.72858705E+004  0.00000000E+000                        88.50  <-- SCF
      1  -4.71019957E+004  2.58382624E+000  -3.83072545E+000     156.30  <-- SCF
      2  -4.71021955E+004  2.58357116E+000   4.16325811E-003     208.88  <-- SCF
      3  -4.71524982E+004  2.89561127E+000   1.04797168E+000     268.56  <-- SCF
      4  -4.71615290E+004  2.97323839E+000   1.88143243E-001     340.98  <-- SCF
      5  -4.71572653E+004  3.31539049E+000  -8.88283220E-002     399.40  <-- SCF
      6  -4.71568438E+004  3.36935147E+000  -8.78110304E-003     458.12  <-- SCF
      7  -4.71567328E+004  3.41559911E+000  -2.31177018E-003     518.71  <-- SCF
      8  -4.71579257E+004  3.45813907E+000   2.48514016E-002     577.18  <-- SCF
      9  -4.71579378E+004  3.40314044E+000   2.52032737E-004     636.74  <-- SCF
     10  -4.71579395E+004  3.42251376E+000   3.60020356E-005     697.14  <-- SCF
     11  -4.71579393E+004  3.42276197E+000  -4.59118825E-006     759.68  <-- SCF
     12  -4.71579397E+004  3.42093837E+000   9.43738902E-006     819.94  <-- SCF
     13  -4.71579397E+004  3.42116776E+000   3.56547573E-008     871.95  <-- SCF
     14  -4.71579398E+004  3.42104381E+000   7.13435440E-008     916.91  <-- SCF
     15  -4.71579398E+004  3.42105814E+000   5.33757943E-009     959.05  <-- SCF
     16  -4.71579398E+004  3.42105539E+000  -3.41646847E-009    1001.23  <-- SCF
------------------------------------------------------------------------ <-- SCF
 
Final energy, E             =  -47157.93959472     eV
Final free energy (E-TS)    =  -47157.93975171     eV
(energies not corrected for finite basis set)
 
NB est. 0K energy (E-0.5TS)      =  -47157.93967321     eV
 
 
+---------------- MEMORY AND SCRATCH DISK ESTIMATES PER PROCESS --------------+
|                                                     Memory          Disk    |
| Model and support data                              934.8 MB         0.0 MB |
| Electronic energy minimisation requirements         243.7 MB         0.0 MB |
| Geometry minimisation requirements                  290.7 MB         0.0 MB |
|                                               ----------------------------- |
| Approx. total storage required per process         1469.1 MB         0.0 MB |
|                                                                             |
| Requirements will fluctuate during execution and may exceed these estimates |
+-----------------------------------------------------------------------------+
 

 ******************************** Constrained Forces ********************************
 *                                                                                  *
 *                           Cartesian components (eV/A)                            *
 * -------------------------------------------------------------------------------- *
 *                         x                    y                    z              *
 *                                                                                  *
 * P               1      0.00000(cons'd)      0.00000(cons'd)     -0.06615         *
 * P               2      0.00000(cons'd)      0.00000(cons'd)     -0.01009         *
 * P               3      0.00000(cons'd)      0.00000(cons'd)     -0.06552         *
 * P               4     -0.00000(cons'd)      0.00000(cons'd)     -0.06552         *
 * P               5      0.00000(cons'd)      0.00000(cons'd)     -0.06552         *
 * P               6     -0.00000(cons'd)      0.00000(cons'd)     -0.06552         *
 * P               7      0.00000(cons'd)     -0.00000(cons'd)      0.03805         *
 * P               8     -0.00000(cons'd)      0.00000(cons'd)     -0.06615         *
 * P               9      0.00000(cons'd)     -0.00000(cons'd)      0.03805         *
 * P              10      0.00000(cons'd)     -0.00000(cons'd)      0.03805         *
 * P              11      0.00000(cons'd)     -0.00000(cons'd)      0.03938         *
 * P              12      0.00000(cons'd)      0.00000(cons'd)     -0.01009         *
 * P              13      0.00000(cons'd)      0.00000(cons'd)     -0.01067         *
 * P              14      0.00000(cons'd)      0.00000(cons'd)     -0.06615         *
 * P              15     -0.00000(cons'd)      0.00000(cons'd)     -0.06615         *
 * P              16     -0.00000(cons'd)     -0.00000(cons'd)      0.03938         *
 * P              17      0.00000(cons'd)     -0.00000(cons'd)      0.03805         *
 * P              18      0.00000(cons'd)     -0.00000(cons'd)      0.03939         *
 * P              19      0.00000(cons'd)     -0.00000(cons'd)      0.03938         *
 * P              20     -0.00000(cons'd)      0.00000(cons'd)     -0.01009         *
 * P              21      0.00000(cons'd)      0.00000(cons'd)     -0.01009         *
 * P              22     -0.00000(cons'd)      0.00000(cons'd)     -0.01067         *
 * P              23      0.00000(cons'd)      0.00000(cons'd)     -0.01067         *
 * P              24      0.00000(cons'd)      0.00000(cons'd)     -0.01067         *
 * In              1      0.00000(cons'd)      0.00000(cons'd)      0.03818         *
 * In              2      0.00000(cons'd)      0.00000(cons'd)      0.03820         *
 * In              3      0.00000(cons'd)      0.00000(cons'd)      0.01055         *
 * In              4      0.00000(cons'd)      0.00000(cons'd)      0.01055         *
 * In              5      0.00000(cons'd)      0.00000(cons'd)      0.03821         *
 * In              6      0.00000(cons'd)      0.00000(cons'd)      0.03818         *
 * In              7      0.00000(cons'd)      0.00000(cons'd)      0.01059         *
 * In              8      0.00000(cons'd)      0.00000(cons'd)     -0.01127         *
 * In              9      0.00000(cons'd)      0.00000(cons'd)     -0.01125         *
 * In             10      0.00000(cons'd)      0.00000(cons'd)      0.01055         *
 * In             11      0.00000(cons'd)      0.00000(cons'd)     -0.01127         *
 * In             12      0.00000(cons'd)      0.00000(cons'd)     -0.01125         *
 * In             13      0.00000(cons'd)      0.00000(cons'd)      0.01059         *
 * In             14      0.00000(cons'd)      0.00000(cons'd)     -0.01125         *
 * In             15      0.00000(cons'd)      0.00000(cons'd)      0.03821         *
 * In             16      0.00000(cons'd)      0.00000(cons'd)      0.01059         *
 * In             17      0.00000(cons'd)      0.00000(cons'd)      0.01055         *
 * In             18      0.00000(cons'd)      0.00000(cons'd)      0.03817         *
 * In             19      0.00000(cons'd)      0.00000(cons'd)      0.03818         *
 * In             20      0.00000(cons'd)      0.00000(cons'd)     -0.01127         *
 * In             21      0.00000(cons'd)      0.00000(cons'd)     -0.01127         *
 * In             22      0.00000(cons'd)      0.00000(cons'd)      0.01059         *
 * In             23      0.00000(cons'd)      0.00000(cons'd)     -0.01125         *
 * In             24      0.00000(cons'd)      0.00000(cons'd)      0.03820         *
 *                                                                                  *
 ************************************************************************************
 EXP precond LBFGS => estimated nearest neighbor distance :  2.572       A
 EXP precond LBFGS => estimated cutoff distance :  5.143       A

 ************************************** Forces **************************************
 *                                                                                  *
 *                           Cartesian components (eV/A)                            *
 * -------------------------------------------------------------------------------- *
 *                         x                    y                    z              *
 *                                                                                  *
 * P               1      0.00000(cons'd)      0.59890(cons'd)     -0.06615         *
 * P               2      0.00000(cons'd)      0.08345(cons'd)     -0.01009         *
 * P               3      0.00000(cons'd)      0.60059(cons'd)     -0.06552         *
 * P               4     -0.00000(cons'd)      0.60059(cons'd)     -0.06552         *
 * P               5      0.00000(cons'd)      0.60059(cons'd)     -0.06552         *
 * P               6     -0.00000(cons'd)      0.60059(cons'd)     -0.06552         *
 * P               7     -0.00000(cons'd)     -0.04947(cons'd)      0.03805         *
 * P               8     -0.00000(cons'd)      0.59890(cons'd)     -0.06615         *
 * P               9      0.00000(cons'd)     -0.04947(cons'd)      0.03805         *
 * P              10      0.00000(cons'd)     -0.04948(cons'd)      0.03805         *
 * P              11      0.00000(cons'd)     -0.05128(cons'd)      0.03938         *
 * P              12      0.00000(cons'd)      0.08344(cons'd)     -0.01009         *
 * P              13      0.00000(cons'd)      0.08131(cons'd)     -0.01067         *
 * P              14      0.00000(cons'd)      0.59890(cons'd)     -0.06615         *
 * P              15     -0.00000(cons'd)      0.59890(cons'd)     -0.06615         *
 * P              16     -0.00000(cons'd)     -0.05129(cons'd)      0.03938         *
 * P              17     -0.00000(cons'd)     -0.04946(cons'd)      0.03805         *
 * P              18     -0.00000(cons'd)     -0.05129(cons'd)      0.03939         *
 * P              19      0.00000(cons'd)     -0.05129(cons'd)      0.03938         *
 * P              20     -0.00000(cons'd)      0.08345(cons'd)     -0.01009         *
 * P              21     -0.00001(cons'd)      0.08344(cons'd)     -0.01009         *
 * P              22     -0.00000(cons'd)      0.08130(cons'd)     -0.01067         *
 * P              23     -0.00000(cons'd)      0.08130(cons'd)     -0.01067         *
 * P              24      0.00000(cons'd)      0.08130(cons'd)     -0.01067         *
 * In              1     -0.00000(cons'd)     -0.22800(cons'd)      0.03818         *
 * In              2     -0.00000(cons'd)     -0.22806(cons'd)      0.03820         *
 * In              3      0.00000(cons'd)     -0.33984(cons'd)      0.01055         *
 * In              4     -0.00000(cons'd)     -0.33984(cons'd)      0.01055         *
 * In              5      0.00000(cons'd)     -0.22806(cons'd)      0.03821         *
 * In              6     -0.00000(cons'd)     -0.22800(cons'd)      0.03818         *
 * In              7     -0.00000(cons'd)     -0.33990(cons'd)      0.01059         *
 * In              8      0.00000(cons'd)     -0.06385(cons'd)     -0.01127         *
 * In              9     -0.00000(cons'd)     -0.06384(cons'd)     -0.01125         *
 * In             10     -0.00000(cons'd)     -0.33984(cons'd)      0.01055         *
 * In             11     -0.00000(cons'd)     -0.06384(cons'd)     -0.01127         *
 * In             12      0.00000(cons'd)     -0.06384(cons'd)     -0.01125         *
 * In             13      0.00000(cons'd)     -0.33989(cons'd)      0.01059         *
 * In             14      0.00000(cons'd)     -0.06384(cons'd)     -0.01125         *
 * In             15      0.00000(cons'd)     -0.22806(cons'd)      0.03821         *
 * In             16      0.00000(cons'd)     -0.33990(cons'd)      0.01059         *
 * In             17      0.00000(cons'd)     -0.33984(cons'd)      0.01055         *
 * In             18      0.00000(cons'd)     -0.22800(cons'd)      0.03817         *
 * In             19      0.00000(cons'd)     -0.22800(cons'd)      0.03818         *
 * In             20     -0.00000(cons'd)     -0.06385(cons'd)     -0.01127         *
 * In             21      0.00000(cons'd)     -0.06384(cons'd)     -0.01127         *
 * In             22     -0.00000(cons'd)     -0.33989(cons'd)      0.01059         *
 * In             23     -0.00000(cons'd)     -0.06385(cons'd)     -0.01125         *
 * In             24     -0.00000(cons'd)     -0.22806(cons'd)      0.03820         *
 *                                                                                  *
 ************************************************************************************
 doing test perturbation to get energy scale for EXP preconditioner

                           -------------------------------
                                     Cell Contents
                           -------------------------------

            xxxxxxxxxxxxxxxxxxxxxxxxxxxxxxxxxxxxxxxxxxxxxxxxxxxxxxxxxxxxxxxxx
            x  Element         Atom        Fractional coordinates of atoms  x
            x                 Number           u          v          w      x
            x---------------------------------------------------------------x
            x  P                 1         0.000000   0.457222   0.757096   x
            x  P                 2         0.000000   0.810600   0.417902   x
            x  P                 3         0.251008   0.707593   0.757096   x
            x  P                 4         0.752593   0.707593   0.757096   x
            x  P                 5         0.251008   0.206788   0.757096   x
            x  P                 6         0.752593   0.206788   0.757096   x
            x  P                 7         0.501905   0.162261   0.081790   x
            x  P                 8         0.501905   0.457222   0.757096   x
            x  P                 9         0.000000   0.663104   0.081790   x
            x  P                10         0.000000   0.162261   0.081790   x
            x  P                11         0.251008   0.412709   0.081790   x
            x  P                12         0.000000   0.309840   0.417902   x
            x  P                13         0.251008   0.059381   0.417902   x
            x  P                14         0.000000   0.957874   0.757096   x
            x  P                15         0.501905   0.957874   0.757096   x
            x  P                16         0.752593   0.412709   0.081790   x
            x  P                17         0.501905   0.663104   0.081790   x
            x  P                18         0.752593   0.913418   0.081790   x
            x  P                19         0.251008   0.913418   0.081790   x
            x  P                20         0.501905   0.810600   0.417902   x
            x  P                21         0.501905   0.309840   0.417902   x
            x  P                22         0.752593   0.560256   0.417902   x
            x  P                23         0.752593   0.059381   0.417902   x
            x  P                24         0.251008   0.560256   0.417902   x
            x  In                1         0.501905   0.796117   0.668940   x
            x  In                2         0.752593   0.044898   0.668940   x
            x  In                3         0.251008   0.751417   0.998749   x
            x  In                4         0.752593   0.751417   0.998749   x
            x  In                5         0.251008   0.044898   0.668940   x
            x  In                6         0.501905   0.295357   0.668940   x
            x  In                7         0.501905   0.501065   0.998749   x
            x  In                8         0.251008   0.898896   0.333503   x
            x  In                9         0.501905   0.648582   0.333503   x
            x  In               10         0.752593   0.250643   0.998749   x
            x  In               11         0.752593   0.398187   0.333503   x
            x  In               12         0.000000   0.147739   0.333503   x
            x  In               13         0.000000   0.000181   0.998749   x
            x  In               14         0.000000   0.648582   0.333503   x
            x  In               15         0.251008   0.545773   0.668940   x
            x  In               16         0.000000   0.501065   0.998749   x
            x  In               17         0.251008   0.250643   0.998749   x
            x  In               18         0.000000   0.796117   0.668940   x
            x  In               19         0.000000   0.295357   0.668940   x
            x  In               20         0.752593   0.898896   0.333503   x
            x  In               21         0.251008   0.398187   0.333503   x
            x  In               22         0.501905   0.000181   0.998749   x
            x  In               23         0.501905   0.147739   0.333503   x
            x  In               24         0.752593   0.545773   0.668940   x
            xxxxxxxxxxxxxxxxxxxxxxxxxxxxxxxxxxxxxxxxxxxxxxxxxxxxxxxxxxxxxxxxx


------------------------------------------------------------------------ <-- SCF
SCF loop      Energy           Fermi           Energy gain       Timer   <-- SCF
                               energy          per atom          (sec)   <-- SCF
------------------------------------------------------------------------ <-- SCF
Initial  -4.71554300E+004  0.00000000E+000                      1062.72  <-- SCF
      1  -4.71576169E+004  3.42325564E+000   4.55613538E-002    1124.46  <-- SCF
      2  -4.71579150E+004  3.42320992E+000   6.21099701E-003    1197.46  <-- SCF
      3  -4.71579184E+004  3.42361108E+000   6.98979357E-005    1258.27  <-- SCF
      4  -4.71579205E+004  3.42408337E+000   4.31388254E-005    1320.65  <-- SCF
      5  -4.71579206E+004  3.42416362E+000   3.58805794E-006    1391.32  <-- SCF
      6  -4.71579207E+004  3.42422478E+000   7.63055890E-007    1453.71  <-- SCF
      7  -4.71579207E+004  3.42425717E+000  -3.86905870E-008    1508.10  <-- SCF
      8  -4.71579207E+004  3.42427275E+000  -2.88179534E-008    1557.27  <-- SCF
      9  -4.71579207E+004  3.42428150E+000  -1.08532973E-008    1603.69  <-- SCF
     10  -4.71579207E+004  3.42428164E+000   1.69760006E-010    1645.64  <-- SCF
     11  -4.71579207E+004  3.42428121E+000   3.99973652E-010    1687.08  <-- SCF
------------------------------------------------------------------------ <-- SCF
 
Final energy, E             =  -47157.92051647     eV
Final free energy (E-TS)    =  -47157.92067360     eV
(energies not corrected for finite basis set)
 
NB est. 0K energy (E-0.5TS)      =  -47157.92059504     eV
 

 ************************************** Forces **************************************
 *                                                                                  *
 *                           Cartesian components (eV/A)                            *
 * -------------------------------------------------------------------------------- *
 *                         x                    y                    z              *
 *                                                                                  *
 * P               1      0.13083(cons'd)      0.57413(cons'd)     -0.06556         *
 * P               2      0.13886(cons'd)      0.02631(cons'd)      0.00445         *
 * P               3      0.00976(cons'd)      0.63792(cons'd)     -0.10301         *
 * P               4     -0.11510(cons'd)      0.57327(cons'd)     -0.06097         *
 * P               5      0.01050(cons'd)      0.63995(cons'd)     -0.10814         *
 * P               6     -0.11385(cons'd)      0.57596(cons'd)     -0.06614         *
 * P               7     -0.02378(cons'd)     -0.01430(cons'd)      0.13752         *
 * P               8     -0.02512(cons'd)      0.62813(cons'd)     -0.10098         *
 * P               9      0.14268(cons'd)     -0.08729(cons'd)      0.17844         *
 * P              10      0.14263(cons'd)     -0.07084(cons'd)      0.18124         *
 * P              11      0.00853(cons'd)     -0.02291(cons'd)      0.13020         *
 * P              12      0.13861(cons'd)      0.03647(cons'd)      0.01522         *
 * P              13      0.01040(cons'd)      0.22794(cons'd)      0.01264         *
 * P              14      0.13645(cons'd)      0.46999(cons'd)     -0.05454         *
 * P              15     -0.02446(cons'd)      0.52616(cons'd)     -0.09213         *
 * P              16     -0.12645(cons'd)     -0.09024(cons'd)      0.18232         *
 * P              17     -0.02473(cons'd)     -0.03043(cons'd)      0.13457         *
 * P              18     -0.13111(cons'd)     -0.18817(cons'd)      0.21443         *
 * P              19      0.00887(cons'd)     -0.11760(cons'd)      0.15947         *
 * P              20     -0.02661(cons'd)      0.08284(cons'd)     -0.03531         *
 * P              21     -0.02668(cons'd)      0.09211(cons'd)     -0.02459         *
 * P              22     -0.12051(cons'd)      0.03303(cons'd)      0.01669         *
 * P              23     -0.12094(cons'd)      0.16237(cons'd)      0.05993         *
 * P              24      0.01065(cons'd)      0.09968(cons'd)     -0.03085         *
 * In              1     -0.01615(cons'd)     -0.25538(cons'd)      0.04335         *
 * In              2     -0.10363(cons'd)     -0.10211(cons'd)     -0.02653         *
 * In              3      0.00421(cons'd)     -0.38488(cons'd)     -0.06234         *
 * In              4     -0.10859(cons'd)     -0.32468(cons'd)     -0.09711         *
 * In              5      0.00492(cons'd)     -0.15498(cons'd)      0.01880         *
 * In              6     -0.01612(cons'd)     -0.24230(cons'd)      0.04888         *
 * In              7     -0.01618(cons'd)     -0.36858(cons'd)     -0.06762         *
 * In              8      0.00335(cons'd)     -0.19501(cons'd)     -0.01558         *
 * In              9     -0.01469(cons'd)     -0.07898(cons'd)      0.00619         *
 * In             10     -0.10828(cons'd)     -0.31090(cons'd)     -0.09465         *
 * In             11     -0.10346(cons'd)     -0.02508(cons'd)     -0.03483         *
 * In             12      0.11304(cons'd)     -0.00829(cons'd)     -0.04030         *
 * In             13      0.12465(cons'd)     -0.20019(cons'd)     -0.11254         *
 * In             14      0.11323(cons'd)     -0.03136(cons'd)     -0.02787         *
 * In             15      0.00514(cons'd)     -0.25099(cons'd)      0.04713         *
 * In             16      0.11864(cons'd)     -0.31778(cons'd)     -0.09701         *
 * In             17      0.00423(cons'd)     -0.37109(cons'd)     -0.05991         *
 * In             18      0.10828(cons'd)     -0.21279(cons'd)      0.00726         *
 * In             19      0.10805(cons'd)     -0.19970(cons'd)      0.01280         *
 * In             20     -0.10356(cons'd)     -0.13857(cons'd)     -0.05588         *
 * In             21      0.00339(cons'd)     -0.08141(cons'd)      0.00555         *
 * In             22     -0.01650(cons'd)     -0.25312(cons'd)     -0.08075         *
 * In             23     -0.01468(cons'd)     -0.05583(cons'd)     -0.00628         *
 * In             24     -0.09872(cons'd)     -0.20049(cons'd)      0.00434         *
 *                                                                                  *
 ************************************************************************************
 EXP precond LBFGS => estimated parameter mu :  1.557       eV/A**2
 LBFGS: finished iteration     0 with enthalpy= -4.71579398E+004 eV
  
 +-----------+-----------------+-----------------+------------+-----+ <-- LBFGS
 | Parameter |      value      |    tolerance    |    units   | OK? | <-- LBFGS
 +-----------+-----------------+-----------------+------------+-----+ <-- LBFGS
 |  dE/ion   |   0.000000E+000 |   2.000000E-005 |         eV | No  | <-- LBFGS
 |  |F|max   |   6.491044E-001 |   1.000000E-003 |       eV/A | No  | <-- LBFGS
 |  |dR|max  |   2.095939E-015 |   1.000000E-003 |          A | No  | <-- LBFGS
 +-----------+-----------------+-----------------+------------+-----+ <-- LBFGS
  

================================================================================
 Starting LBFGS iteration          1 ...
================================================================================
  
 +------------+-------------+-------------+-----------------+ <-- min LBFGS
 |    Step    |   lambda    |   F.delta'  |    enthalpy     | <-- min LBFGS
 +------------+-------------+-------------+-----------------+ <-- min LBFGS
 |  previous  |    0.000000 |    0.085277 |   -47157.939752 | <-- min LBFGS
 +------------+-------------+-------------+-----------------+ <-- min LBFGS
  

--------------------------------------------------------------------------------
 LBFGS: starting iteration         1 with trial guess (lambda=  1.000000)
--------------------------------------------------------------------------------

                           -------------------------------
                                     Cell Contents
                           -------------------------------

            xxxxxxxxxxxxxxxxxxxxxxxxxxxxxxxxxxxxxxxxxxxxxxxxxxxxxxxxxxxxxxxxx
            x  Element         Atom        Fractional coordinates of atoms  x
            x                 Number           u          v          w      x
            x---------------------------------------------------------------x
            x  P                 1         0.000000   0.456463   0.754648   x
            x  P                 2         0.000000   0.809295   0.416661   x
            x  P                 3         0.250000   0.706462   0.754653   x
            x  P                 4         0.750000   0.706462   0.754653   x
            x  P                 5         0.250000   0.206462   0.754653   x
            x  P                 6         0.750000   0.206462   0.754653   x
            x  P                 7         0.500000   0.161934   0.082039   x
            x  P                 8         0.500000   0.456463   0.754648   x
            x  P                 9         0.000000   0.661934   0.082039   x
            x  P                10         0.000000   0.161934   0.082039   x
            x  P                11         0.250000   0.411933   0.082052   x
            x  P                12         0.000000   0.309295   0.416661   x
            x  P                13         0.250000   0.059295   0.416655   x
            x  P                14         0.000000  -0.043537   0.754648   x
            x  P                15         0.500000  -0.043537   0.754648   x
            x  P                16         0.750000   0.411933   0.082052   x
            x  P                17         0.500000   0.661934   0.082039   x
            x  P                18         0.750000   0.911933   0.082052   x
            x  P                19         0.250000   0.911933   0.082052   x
            x  P                20         0.500000   0.809295   0.416661   x
            x  P                21         0.500000   0.309295   0.416661   x
            x  P                22         0.750000   0.559296   0.416655   x
            x  P                23         0.750000   0.059295   0.416655   x
            x  P                24         0.250000   0.559296   0.416655   x
            x  In                1         0.500000   0.794832   0.667355   x
            x  In                2         0.750000   0.044832   0.667354   x
            x  In                3         0.250000   0.750187  -0.003238   x
            x  In                4         0.750000   0.750187  -0.003238   x
            x  In                5         0.250000   0.044832   0.667354   x
            x  In                6         0.500000   0.294832   0.667355   x
            x  In                7         0.500000   0.500187  -0.003236   x
            x  In                8         0.250000   0.897482   0.332529   x
            x  In                9         0.500000   0.647482   0.332527   x
            x  In               10         0.750000   0.250187  -0.003238   x
            x  In               11         0.750000   0.397482   0.332529   x
            x  In               12         0.000000   0.147482   0.332527   x
            x  In               13         0.000000   0.000187  -0.003236   x
            x  In               14         0.000000   0.647482   0.332527   x
            x  In               15         0.250000   0.544832   0.667354   x
            x  In               16         0.000000   0.500187  -0.003236   x
            x  In               17         0.250000   0.250187  -0.003238   x
            x  In               18         0.000000   0.794832   0.667355   x
            x  In               19         0.000000   0.294832   0.667355   x
            x  In               20         0.750000   0.897482   0.332529   x
            x  In               21         0.250000   0.397482   0.332529   x
            x  In               22         0.500000   0.000187  -0.003236   x
            x  In               23         0.500000   0.147482   0.332527   x
            x  In               24         0.750000   0.544832   0.667354   x
            xxxxxxxxxxxxxxxxxxxxxxxxxxxxxxxxxxxxxxxxxxxxxxxxxxxxxxxxxxxxxxxxx


------------------------------------------------------------------------ <-- SCF
SCF loop      Energy           Fermi           Energy gain       Timer   <-- SCF
                               energy          per atom          (sec)   <-- SCF
------------------------------------------------------------------------ <-- SCF
Initial  -4.71553234E+004  0.00000000E+000                      1724.30  <-- SCF
      1  -4.71576546E+004  3.42152832E+000   4.85680137E-002    1786.01  <-- SCF
      2  -4.71579371E+004  3.42147284E+000   5.88518846E-003    1858.73  <-- SCF
      3  -4.71579397E+004  3.42112927E+000   5.33408679E-005    1919.26  <-- SCF
      4  -4.71579416E+004  3.42068335E+000   3.90585257E-005    1981.27  <-- SCF
      5  -4.71579418E+004  3.42053497E+000   4.14146293E-006    2052.40  <-- SCF
      6  -4.71579418E+004  3.42042726E+000   7.97894201E-007    2114.44  <-- SCF
      7  -4.71579418E+004  3.42038981E+000  -4.02705022E-008    2168.79  <-- SCF
      8  -4.71579418E+004  3.42036826E+000  -2.64182404E-008    2217.69  <-- SCF
      9  -4.71579418E+004  3.42035305E+000  -1.10688165E-008    2264.10  <-- SCF
     10  -4.71579418E+004  3.42034910E+000   3.13740209E-010    2306.11  <-- SCF
     11  -4.71579418E+004  3.42034891E+000   4.23948870E-010    2347.59  <-- SCF
------------------------------------------------------------------------ <-- SCF
 
Final energy, E             =  -47157.94162957     eV
Final free energy (E-TS)    =  -47157.94178729     eV
(energies not corrected for finite basis set)
 
NB est. 0K energy (E-0.5TS)      =  -47157.94170843     eV
 

 ******************************** Constrained Forces ********************************
 *                                                                                  *
 *                           Cartesian components (eV/A)                            *
 * -------------------------------------------------------------------------------- *
 *                         x                    y                    z              *
 *                                                                                  *
 * P               1      0.00000(cons'd)      0.00000(cons'd)      0.00481         *
 * P               2      0.00000(cons'd)      0.00000(cons'd)      0.00287         *
 * P               3      0.00000(cons'd)      0.00000(cons'd)      0.00400         *
 * P               4      0.00000(cons'd)      0.00000(cons'd)      0.00399         *
 * P               5      0.00000(cons'd)      0.00000(cons'd)      0.00402         *
 * P               6      0.00000(cons'd)      0.00000(cons'd)      0.00402         *
 * P               7      0.00000(cons'd)     -0.00000(cons'd)     -0.01716         *
 * P               8      0.00000(cons'd)      0.00000(cons'd)      0.00482         *
 * P               9      0.00000(cons'd)      0.00000(cons'd)     -0.01720         *
 * P              10      0.00000(cons'd)     -0.00000(cons'd)     -0.01717         *
 * P              11      0.00000(cons'd)      0.00000(cons'd)     -0.01745         *
 * P              12      0.00000(cons'd)      0.00000(cons'd)      0.00287         *
 * P              13      0.00000(cons'd)      0.00000(cons'd)      0.00292         *
 * P              14      0.00000(cons'd)      0.00000(cons'd)      0.00481         *
 * P              15      0.00000(cons'd)      0.00000(cons'd)      0.00481         *
 * P              16      0.00000(cons'd)     -0.00000(cons'd)     -0.01746         *
 * P              17      0.00000(cons'd)      0.00000(cons'd)     -0.01719         *
 * P              18      0.00000(cons'd)      0.00000(cons'd)     -0.01747         *
 * P              19      0.00000(cons'd)     -0.00000(cons'd)     -0.01746         *
 * P              20      0.00000(cons'd)      0.00000(cons'd)      0.00288         *
 * P              21      0.00000(cons'd)      0.00000(cons'd)      0.00288         *
 * P              22      0.00000(cons'd)      0.00000(cons'd)      0.00291         *
 * P              23      0.00000(cons'd)      0.00000(cons'd)      0.00291         *
 * P              24      0.00000(cons'd)      0.00000(cons'd)      0.00291         *
 * In              1      0.00000(cons'd)      0.00000(cons'd)      0.00093         *
 * In              2      0.00000(cons'd)      0.00000(cons'd)      0.00071         *
 * In              3      0.00000(cons'd)      0.00000(cons'd)     -0.01669         *
 * In              4      0.00000(cons'd)      0.00000(cons'd)     -0.01670         *
 * In              5      0.00000(cons'd)      0.00000(cons'd)      0.00071         *
 * In              6      0.00000(cons'd)      0.00000(cons'd)      0.00093         *
 * In              7      0.00000(cons'd)      0.00000(cons'd)     -0.01686         *
 * In              8      0.00000(cons'd)      0.00000(cons'd)      0.02625         *
 * In              9      0.00000(cons'd)      0.00000(cons'd)      0.02570         *
 * In             10      0.00000(cons'd)      0.00000(cons'd)     -0.01671         *
 * In             11      0.00000(cons'd)      0.00000(cons'd)      0.02623         *
 * In             12      0.00000(cons'd)      0.00000(cons'd)      0.02569         *
 * In             13      0.00000(cons'd)      0.00000(cons'd)     -0.01683         *
 * In             14      0.00000(cons'd)      0.00000(cons'd)      0.02570         *
 * In             15      0.00000(cons'd)      0.00000(cons'd)      0.00071         *
 * In             16      0.00000(cons'd)      0.00000(cons'd)     -0.01685         *
 * In             17      0.00000(cons'd)      0.00000(cons'd)     -0.01670         *
 * In             18      0.00000(cons'd)      0.00000(cons'd)      0.00094         *
 * In             19      0.00000(cons'd)      0.00000(cons'd)      0.00093         *
 * In             20      0.00000(cons'd)      0.00000(cons'd)      0.02625         *
 * In             21      0.00000(cons'd)      0.00000(cons'd)      0.02623         *
 * In             22      0.00000(cons'd)      0.00000(cons'd)     -0.01683         *
 * In             23      0.00000(cons'd)      0.00000(cons'd)      0.02569         *
 * In             24      0.00000(cons'd)      0.00000(cons'd)      0.00070         *
 *                                                                                  *
 ************************************************************************************
  
 +------------+-------------+-------------+-----------------+ <-- min LBFGS
 |    Step    |   lambda    |   F.delta'  |    enthalpy     | <-- min LBFGS
 +------------+-------------+-------------+-----------------+ <-- min LBFGS
 |  previous  |    0.000000 |    0.085277 |   -47157.939752 | <-- min LBFGS
 | trial step |    1.000000 |   -0.022461 |   -47157.941787 | <-- min LBFGS
 +------------+-------------+-------------+-----------------+ <-- min LBFGS
  
 LBFGS: finished iteration     1 with enthalpy= -4.71579418E+004 eV
  
 +-----------+-----------------+-----------------+------------+-----+ <-- LBFGS
 | Parameter |      value      |    tolerance    |    units   | OK? | <-- LBFGS
 +-----------+-----------------+-----------------+------------+-----+ <-- LBFGS
 |  dE/ion   |   4.240804E-005 |   2.000000E-005 |         eV | No  | <-- LBFGS
 |  |F|max   |   2.624868E-002 |   1.000000E-003 |       eV/A | No  | <-- LBFGS
 |  |dR|max  |   6.123632E-003 |   1.000000E-003 |          A | No  | <-- LBFGS
 +-----------+-----------------+-----------------+------------+-----+ <-- LBFGS
  

================================================================================
 Starting LBFGS iteration          2 ...
================================================================================
  
 +------------+-------------+-------------+-----------------+ <-- min LBFGS
 |    Step    |   lambda    |   F.delta'  |    enthalpy     | <-- min LBFGS
 +------------+-------------+-------------+-----------------+ <-- min LBFGS
 |  previous  |    0.000000 |    0.034242 |   -47157.941787 | <-- min LBFGS
 +------------+-------------+-------------+-----------------+ <-- min LBFGS
  

--------------------------------------------------------------------------------
 LBFGS: starting iteration         2 with trial guess (lambda=  1.000000)
--------------------------------------------------------------------------------

                           -------------------------------
                                     Cell Contents
                           -------------------------------

            xxxxxxxxxxxxxxxxxxxxxxxxxxxxxxxxxxxxxxxxxxxxxxxxxxxxxxxxxxxxxxxxx
            x  Element         Atom        Fractional coordinates of atoms  x
            x                 Number           u          v          w      x
            x---------------------------------------------------------------x
            x  P                 1         0.000000   0.456466   0.754584   x
            x  P                 2         0.000000   0.809288   0.416791   x
            x  P                 3         0.250000   0.706466   0.754584   x
            x  P                 4         0.750000   0.706466   0.754584   x
            x  P                 5         0.250000   0.206466   0.754584   x
            x  P                 6         0.750000   0.206466   0.754584   x
            x  P                 7         0.500000   0.161942   0.081892   x
            x  P                 8         0.500000   0.456466   0.754584   x
            x  P                 9         0.000000   0.661942   0.081891   x
            x  P                10         0.000000   0.161942   0.081892   x
            x  P                11         0.250000   0.411941   0.081904   x
            x  P                12         0.000000   0.309288   0.416791   x
            x  P                13         0.250000   0.059288   0.416784   x
            x  P                14         0.000000  -0.043534   0.754584   x
            x  P                15         0.500000  -0.043534   0.754584   x
            x  P                16         0.750000   0.411941   0.081904   x
            x  P                17         0.500000   0.661942   0.081891   x
            x  P                18         0.750000   0.911941   0.081904   x
            x  P                19         0.250000   0.911941   0.081904   x
            x  P                20         0.500000   0.809288   0.416791   x
            x  P                21         0.500000   0.309288   0.416791   x
            x  P                22         0.750000   0.559288   0.416784   x
            x  P                23         0.750000   0.059288   0.416784   x
            x  P                24         0.250000   0.559288   0.416784   x
            x  In                1         0.500000   0.794829   0.667411   x
            x  In                2         0.750000   0.044829   0.667408   x
            x  In                3         0.250000   0.750198  -0.003439   x
            x  In                4         0.750000   0.750198  -0.003439   x
            x  In                5         0.250000   0.044829   0.667408   x
            x  In                6         0.500000   0.294829   0.667411   x
            x  In                7         0.500000   0.500198  -0.003438   x
            x  In                8         0.250000   0.897469   0.332764   x
            x  In                9         0.500000   0.647469   0.332757   x
            x  In               10         0.750000   0.250198  -0.003439   x
            x  In               11         0.750000   0.397469   0.332763   x
            x  In               12         0.000000   0.147469   0.332757   x
            x  In               13         0.000000   0.000198  -0.003438   x
            x  In               14         0.000000   0.647469   0.332757   x
            x  In               15         0.250000   0.544829   0.667408   x
            x  In               16         0.000000   0.500198  -0.003438   x
            x  In               17         0.250000   0.250198  -0.003439   x
            x  In               18         0.000000   0.794829   0.667411   x
            x  In               19         0.000000   0.294829   0.667411   x
            x  In               20         0.750000   0.897469   0.332764   x
            x  In               21         0.250000   0.397469   0.332763   x
            x  In               22         0.500000   0.000198  -0.003438   x
            x  In               23         0.500000   0.147469   0.332758   x
            x  In               24         0.750000   0.544829   0.667408   x
            xxxxxxxxxxxxxxxxxxxxxxxxxxxxxxxxxxxxxxxxxxxxxxxxxxxxxxxxxxxxxxxxx


------------------------------------------------------------------------ <-- SCF
SCF loop      Energy           Fermi           Energy gain       Timer   <-- SCF
                               energy          per atom          (sec)   <-- SCF
------------------------------------------------------------------------ <-- SCF
Initial  -4.71579236E+004  0.00000000E+000                      2384.87  <-- SCF
      1  -4.71579407E+004  3.42061953E+000   3.58130056E-004    2447.08  <-- SCF
      2  -4.71579423E+004  3.42061925E+000   3.16860204E-005    2520.51  <-- SCF
      3  -4.71579423E+004  3.42064079E+000  -6.35481181E-008    2582.16  <-- SCF
      4  -4.71579423E+004  3.42066771E+000  -6.75897468E-008    2637.95  <-- SCF
      5  -4.71579423E+004  3.42068604E+000  -4.35623254E-008    2688.94  <-- SCF
      6  -4.71579423E+004  3.42069391E+000  -1.55432881E-008    2735.12  <-- SCF
      7  -4.71579423E+004  3.42069711E+000  -3.16176401E-009    2777.84  <-- SCF
      8  -4.71579423E+004  3.42069910E+000  -6.60349668E-010    2821.14  <-- SCF
------------------------------------------------------------------------ <-- SCF
 
Final energy, E             =  -47157.94209678     eV
Final free energy (E-TS)    =  -47157.94225584     eV
(energies not corrected for finite basis set)
 
NB est. 0K energy (E-0.5TS)      =  -47157.94217631     eV
 

 ******************************** Constrained Forces ********************************
 *                                                                                  *
 *                           Cartesian components (eV/A)                            *
 * -------------------------------------------------------------------------------- *
 *                         x                    y                    z              *
 *                                                                                  *
 * P               1      0.00000(cons'd)      0.00000(cons'd)      0.00283         *
 * P               2     -0.00000(cons'd)      0.00000(cons'd)     -0.00114         *
 * P               3      0.00000(cons'd)      0.00000(cons'd)      0.00241         *
 * P               4     -0.00000(cons'd)      0.00000(cons'd)      0.00241         *
 * P               5      0.00000(cons'd)      0.00000(cons'd)      0.00239         *
 * P               6      0.00000(cons'd)      0.00000(cons'd)      0.00239         *
 * P               7     -0.00000(cons'd)     -0.00000(cons'd)      0.00370         *
 * P               8     -0.00000(cons'd)      0.00000(cons'd)      0.00283         *
 * P               9      0.00000(cons'd)      0.00000(cons'd)      0.00373         *
 * P              10     -0.00000(cons'd)      0.00000(cons'd)      0.00370         *
 * P              11      0.00000(cons'd)     -0.00000(cons'd)      0.00381         *
 * P              12      0.00000(cons'd)      0.00000(cons'd)     -0.00113         *
 * P              13      0.00000(cons'd)      0.00000(cons'd)     -0.00123         *
 * P              14      0.00000(cons'd)      0.00000(cons'd)      0.00284         *
 * P              15      0.00000(cons'd)      0.00000(cons'd)      0.00284         *
 * P              16      0.00000(cons'd)      0.00000(cons'd)      0.00381         *
 * P              17     -0.00000(cons'd)      0.00000(cons'd)      0.00373         *
 * P              18      0.00000(cons'd)     -0.00000(cons'd)      0.00382         *
 * P              19      0.00000(cons'd)      0.00000(cons'd)      0.00381         *
 * P              20     -0.00000(cons'd)      0.00000(cons'd)     -0.00114         *
 * P              21     -0.00000(cons'd)      0.00000(cons'd)     -0.00114         *
 * P              22      0.00000(cons'd)      0.00000(cons'd)     -0.00122         *
 * P              23      0.00000(cons'd)      0.00000(cons'd)     -0.00122         *
 * P              24      0.00000(cons'd)      0.00000(cons'd)     -0.00123         *
 * In              1      0.00000(cons'd)      0.00000(cons'd)      0.00113         *
 * In              2      0.00000(cons'd)      0.00000(cons'd)      0.00100         *
 * In              3      0.00000(cons'd)      0.00000(cons'd)     -0.00303         *
 * In              4      0.00000(cons'd)      0.00000(cons'd)     -0.00303         *
 * In              5     -0.00000(cons'd)      0.00000(cons'd)      0.00100         *
 * In              6      0.00000(cons'd)      0.00000(cons'd)      0.00113         *
 * In              7      0.00000(cons'd)      0.00000(cons'd)     -0.00294         *
 * In              8      0.00000(cons'd)      0.00000(cons'd)     -0.00318         *
 * In              9      0.00000(cons'd)      0.00000(cons'd)     -0.00338         *
 * In             10      0.00000(cons'd)      0.00000(cons'd)     -0.00302         *
 * In             11      0.00000(cons'd)      0.00000(cons'd)     -0.00318         *
 * In             12      0.00000(cons'd)      0.00000(cons'd)     -0.00336         *
 * In             13      0.00000(cons'd)      0.00000(cons'd)     -0.00296         *
 * In             14     -0.00000(cons'd)      0.00000(cons'd)     -0.00338         *
 * In             15      0.00000(cons'd)      0.00000(cons'd)      0.00100         *
 * In             16     -0.00000(cons'd)      0.00000(cons'd)     -0.00295         *
 * In             17     -0.00000(cons'd)      0.00000(cons'd)     -0.00302         *
 * In             18      0.00000(cons'd)      0.00000(cons'd)      0.00112         *
 * In             19      0.00000(cons'd)      0.00000(cons'd)      0.00113         *
 * In             20      0.00000(cons'd)      0.00000(cons'd)     -0.00318         *
 * In             21      0.00000(cons'd)      0.00000(cons'd)     -0.00317         *
 * In             22      0.00000(cons'd)      0.00000(cons'd)     -0.00296         *
 * In             23      0.00000(cons'd)      0.00000(cons'd)     -0.00336         *
 * In             24      0.00000(cons'd)      0.00000(cons'd)      0.00100         *
 *                                                                                  *
 ************************************************************************************
  
 +------------+-------------+-------------+-----------------+ <-- min LBFGS
 |    Step    |   lambda    |   F.delta'  |    enthalpy     | <-- min LBFGS
 +------------+-------------+-------------+-----------------+ <-- min LBFGS
 |  previous  |    0.000000 |    0.034242 |   -47157.941787 | <-- min LBFGS
 | trial step |    1.000000 |   -0.002781 |   -47157.942256 | <-- min LBFGS
 +------------+-------------+-------------+-----------------+ <-- min LBFGS
  
 LBFGS: finished iteration     2 with enthalpy= -4.71579423E+004 eV
  
 +-----------+-----------------+-----------------+------------+-----+ <-- LBFGS
 | Parameter |      value      |    tolerance    |    units   | OK? | <-- LBFGS
 +-----------+-----------------+-----------------+------------+-----+ <-- LBFGS
 |  dE/ion   |   9.761410E-006 |   2.000000E-005 |         eV | Yes | <-- LBFGS
 |  |F|max   |   3.819185E-003 |   1.000000E-003 |       eV/A | No  | <-- LBFGS
 |  |dR|max  |   2.400482E-003 |   1.000000E-003 |          A | No  | <-- LBFGS
 +-----------+-----------------+-----------------+------------+-----+ <-- LBFGS
  

================================================================================
 Starting LBFGS iteration          3 ...
================================================================================
  
 +------------+-------------+-------------+-----------------+ <-- min LBFGS
 |    Step    |   lambda    |   F.delta'  |    enthalpy     | <-- min LBFGS
 +------------+-------------+-------------+-----------------+ <-- min LBFGS
 |  previous  |    0.000000 |    0.006117 |   -47157.942256 | <-- min LBFGS
 +------------+-------------+-------------+-----------------+ <-- min LBFGS
  

--------------------------------------------------------------------------------
 LBFGS: starting iteration         3 with trial guess (lambda=  1.000000)
--------------------------------------------------------------------------------

                           -------------------------------
                                     Cell Contents
                           -------------------------------

            xxxxxxxxxxxxxxxxxxxxxxxxxxxxxxxxxxxxxxxxxxxxxxxxxxxxxxxxxxxxxxxxx
            x  Element         Atom        Fractional coordinates of atoms  x
            x                 Number           u          v          w      x
            x---------------------------------------------------------------x
            x  P                 1         0.000000   0.456464   0.754626   x
            x  P                 2         0.000000   0.809289   0.416771   x
            x  P                 3         0.250000   0.706464   0.754622   x
            x  P                 4         0.750000   0.706464   0.754622   x
            x  P                 5         0.250000   0.206464   0.754622   x
            x  P                 6         0.750000   0.206464   0.754622   x
            x  P                 7         0.500000   0.161941   0.081904   x
            x  P                 8         0.500000   0.456464   0.754626   x
            x  P                 9         0.000000   0.661941   0.081904   x
            x  P                10         0.000000   0.161941   0.081904   x
            x  P                11         0.250000   0.411941   0.081918   x
            x  P                12         0.000000   0.309289   0.416771   x
            x  P                13         0.250000   0.059289   0.416763   x
            x  P                14         0.000000  -0.043536   0.754626   x
            x  P                15         0.500000  -0.043536   0.754626   x
            x  P                16         0.750000   0.411941   0.081918   x
            x  P                17         0.500000   0.661941   0.081904   x
            x  P                18         0.750000   0.911941   0.081918   x
            x  P                19         0.250000   0.911941   0.081918   x
            x  P                20         0.500000   0.809289   0.416771   x
            x  P                21         0.500000   0.309289   0.416771   x
            x  P                22         0.750000   0.559289   0.416763   x
            x  P                23         0.750000   0.059289   0.416763   x
            x  P                24         0.250000   0.559289   0.416763   x
            x  In                1         0.500000   0.794828   0.667431   x
            x  In                2         0.750000   0.044828   0.667428   x
            x  In                3         0.250000   0.750200  -0.003460   x
            x  In                4         0.750000   0.750200  -0.003460   x
            x  In                5         0.250000   0.044828   0.667428   x
            x  In                6         0.500000   0.294828   0.667431   x
            x  In                7         0.500000   0.500200  -0.003458   x
            x  In                8         0.250000   0.897471   0.332732   x
            x  In                9         0.500000   0.647471   0.332723   x
            x  In               10         0.750000   0.250200  -0.003460   x
            x  In               11         0.750000   0.397471   0.332731   x
            x  In               12         0.000000   0.147471   0.332723   x
            x  In               13         0.000000   0.000199  -0.003458   x
            x  In               14        -0.000000   0.647471   0.332723   x
            x  In               15         0.250000   0.544828   0.667428   x
            x  In               16        -0.000000   0.500200  -0.003458   x
            x  In               17         0.250000   0.250200  -0.003460   x
            x  In               18         0.000000   0.794828   0.667431   x
            x  In               19         0.000000   0.294828   0.667431   x
            x  In               20         0.750000   0.897471   0.332731   x
            x  In               21         0.250000   0.397471   0.332731   x
            x  In               22         0.500000   0.000199  -0.003458   x
            x  In               23         0.500000   0.147471   0.332723   x
            x  In               24         0.750000   0.544828   0.667428   x
            xxxxxxxxxxxxxxxxxxxxxxxxxxxxxxxxxxxxxxxxxxxxxxxxxxxxxxxxxxxxxxxxx


------------------------------------------------------------------------ <-- SCF
SCF loop      Energy           Fermi           Energy gain       Timer   <-- SCF
                               energy          per atom          (sec)   <-- SCF
------------------------------------------------------------------------ <-- SCF
Initial  -4.71579373E+004  0.00000000E+000                      2858.30  <-- SCF
      1  -4.71579422E+004  3.42060675E+000   1.03197956E-004    2920.92  <-- SCF
      2  -4.71579423E+004  3.42060674E+000   6.44243607E-007    2993.04  <-- SCF
      3  -4.71579423E+004  3.42059301E+000  -1.05850584E-008    3037.86  <-- SCF
      4  -4.71579423E+004  3.42057992E+000  -3.77777241E-009    3082.71  <-- SCF
      5  -4.71579423E+004  3.42057279E+000  -6.70790489E-010    3124.04  <-- SCF
------------------------------------------------------------------------ <-- SCF
 
Final energy, E             =  -47157.94210413     eV
Final free energy (E-TS)    =  -47157.94226310     eV
(energies not corrected for finite basis set)
 
NB est. 0K energy (E-0.5TS)      =  -47157.94218361     eV
 

 ******************************** Constrained Forces ********************************
 *                                                                                  *
 *                           Cartesian components (eV/A)                            *
 * -------------------------------------------------------------------------------- *
[...]
     In     9      Dzz                  1.997
     In     9      Dzy                  1.998
     In     9      Dzx                  1.998
     In     9      Dxx-yy               1.998
     In     9      Dxy                  1.998
     In     9      S                    1.431
     In     9      Px                   0.484
     In     9      Py                   0.479
     In     9      Pz                   0.482
     In     9      S                   -0.522
     In    10      Dzz                  1.998
     In    10      Dzy                  1.998
     In    10      Dzx                  1.999
     In    10      Dxx-yy               1.998
     In    10      Dxy                  1.998
     In    10      S                    1.405
     In    10      Px                   0.479
     In    10      Py                   0.487
     In    10      Pz                   0.453
     In    10      S                   -0.494
     In    11      Dzz                  1.997
     In    11      Dzy                  1.998
     In    11      Dzx                  1.998
     In    11      Dxx-yy               1.998
     In    11      Dxy                  1.998
     In    11      S                    1.431
     In    11      Px                   0.484
     In    11      Py                   0.479
     In    11      Pz                   0.482
     In    11      S                   -0.522
     In    12      Dzz                  1.997
     In    12      Dzy                  1.998
     In    12      Dzx                  1.998
     In    12      Dxx-yy               1.998
     In    12      Dxy                  1.998
     In    12      S                    1.431
     In    12      Px                   0.484
     In    12      Py                   0.479
     In    12      Pz                   0.482
     In    12      S                   -0.522
     In    13      Dzz                  1.998
     In    13      Dzy                  1.998
     In    13      Dzx                  1.999
     In    13      Dxx-yy               1.998
     In    13      Dxy                  1.998
     In    13      S                    1.405
     In    13      Px                   0.479
     In    13      Py                   0.487
     In    13      Pz                   0.453
     In    13      S                   -0.494
     In    14      Dzz                  1.997
     In    14      Dzy                  1.998
     In    14      Dzx                  1.998
     In    14      Dxx-yy               1.998
     In    14      Dxy                  1.998
     In    14      S                    1.431
     In    14      Px                   0.484
     In    14      Py                   0.479
     In    14      Pz                   0.482
     In    14      S                   -0.522
     In    15      Dzz                  1.997
     In    15      Dzy                  1.998
     In    15      Dzx                  1.998
     In    15      Dxx-yy               1.998
     In    15      Dxy                  1.998
     In    15      S                    1.411
     In    15      Px                   0.497
     In    15      Py                   0.461
     In    15      Pz                   0.485
     In    15      S                   -0.513
     In    16      Dzz                  1.998
     In    16      Dzy                  1.998
     In    16      Dzx                  1.999
     In    16      Dxx-yy               1.998
     In    16      Dxy                  1.998
     In    16      S                    1.405
     In    16      Px                   0.479
     In    16      Py                   0.487
     In    16      Pz                   0.453
     In    16      S                   -0.494
     In    17      Dzz                  1.998
     In    17      Dzy                  1.998
     In    17      Dzx                  1.999
     In    17      Dxx-yy               1.998
     In    17      Dxy                  1.998
     In    17      S                    1.405
     In    17      Px                   0.479
     In    17      Py                   0.487
     In    17      Pz                   0.453
     In    17      S                   -0.494
     In    18      Dzz                  1.997
     In    18      Dzy                  1.998
     In    18      Dzx                  1.998
     In    18      Dxx-yy               1.998
     In    18      Dxy                  1.998
     In    18      S                    1.412
     In    18      Px                   0.497
     In    18      Py                   0.461
     In    18      Pz                   0.485
     In    18      S                   -0.513
     In    19      Dzz                  1.997
     In    19      Dzy                  1.998
     In    19      Dzx                  1.998
     In    19      Dxx-yy               1.998
     In    19      Dxy                  1.998
     In    19      S                    1.412
     In    19      Px                   0.497
     In    19      Py                   0.461
     In    19      Pz                   0.485
     In    19      S                   -0.513
     In    20      Dzz                  1.997
     In    20      Dzy                  1.998
     In    20      Dzx                  1.998
     In    20      Dxx-yy               1.998
     In    20      Dxy                  1.998
     In    20      S                    1.431
     In    20      Px                   0.484
     In    20      Py                   0.479
     In    20      Pz                   0.482
     In    20      S                   -0.522
     In    21      Dzz                  1.997
     In    21      Dzy                  1.998
     In    21      Dzx                  1.998
     In    21      Dxx-yy               1.998
     In    21      Dxy                  1.998
     In    21      S                    1.431
     In    21      Px                   0.484
     In    21      Py                   0.479
     In    21      Pz                   0.482
     In    21      S                   -0.522
     In    22      Dzz                  1.998
     In    22      Dzy                  1.998
     In    22      Dzx                  1.999
     In    22      Dxx-yy               1.998
     In    22      Dxy                  1.998
     In    22      S                    1.405
     In    22      Px                   0.479
     In    22      Py                   0.487
     In    22      Pz                   0.453
     In    22      S                   -0.494
     In    23      Dzz                  1.997
     In    23      Dzy                  1.998
     In    23      Dzx                  1.998
     In    23      Dxx-yy               1.998
     In    23      Dxy                  1.998
     In    23      S                    1.431
     In    23      Px                   0.484
     In    23      Py                   0.479
     In    23      Pz                   0.482
     In    23      S                   -0.522
     In    24      Dzz                  1.997
     In    24      Dzy                  1.998
     In    24      Dzx                  1.998
     In    24      Dxx-yy               1.998
     In    24      Dxy                  1.998
     In    24      S                    1.411
     In    24      Px                   0.497
     In    24      Py                   0.461
     In    24      Pz                   0.485
     In    24      S                   -0.513
  -------------------------------------------
                           Total:     432.000
  -------------------------------------------

     Atomic Populations (Mulliken)
     -----------------------------
Species          Ion     s       p       d       f      Total   Charge (e)
==========================================================================
  P               1     1.742   3.931   0.000   0.000   5.673    -0.673
  P               2     1.737   3.934   0.000   0.000   5.671    -0.671
  P               3     1.742   3.931   0.000   0.000   5.673    -0.673
  P               4     1.742   3.931   0.000   0.000   5.673    -0.673
  P               5     1.742   3.931   0.000   0.000   5.673    -0.673
  P               6     1.742   3.931   0.000   0.000   5.673    -0.673
  P               7     1.740   3.922   0.000   0.000   5.662    -0.662
  P               8     1.742   3.931   0.000   0.000   5.673    -0.673
  P               9     1.740   3.922   0.000   0.000   5.662    -0.662
  P              10     1.740   3.922   0.000   0.000   5.662    -0.662
  P              11     1.740   3.922   0.000   0.000   5.662    -0.662
  P              12     1.737   3.934   0.000   0.000   5.671    -0.671
  P              13     1.737   3.934   0.000   0.000   5.671    -0.671
  P              14     1.742   3.931   0.000   0.000   5.673    -0.673
  P              15     1.742   3.931   0.000   0.000   5.673    -0.673
  P              16     1.740   3.922   0.000   0.000   5.662    -0.662
  P              17     1.740   3.922   0.000   0.000   5.662    -0.662
  P              18     1.740   3.922   0.000   0.000   5.662    -0.662
  P              19     1.740   3.922   0.000   0.000   5.662    -0.662
  P              20     1.737   3.934   0.000   0.000   5.671    -0.671
  P              21     1.737   3.934   0.000   0.000   5.671    -0.671
  P              22     1.737   3.934   0.000   0.000   5.671    -0.671
  P              23     1.737   3.934   0.000   0.000   5.671    -0.671
  P              24     1.737   3.934   0.000   0.000   5.671    -0.671
  In              1     0.899   1.442   9.990   0.000  12.331     0.669
  In              2     0.899   1.442   9.990   0.000  12.331     0.669
  In              3     0.911   1.419   9.990   0.000  12.320     0.680
  In              4     0.911   1.419   9.990   0.000  12.320     0.680
  In              5     0.899   1.442   9.990   0.000  12.331     0.669
  In              6     0.899   1.442   9.990   0.000  12.331     0.669
  In              7     0.911   1.419   9.990   0.000  12.320     0.680
  In              8     0.908   1.445   9.989   0.000  12.343     0.657
  In              9     0.908   1.445   9.989   0.000  12.343     0.657
  In             10     0.911   1.419   9.990   0.000  12.320     0.680
  In             11     0.908   1.445   9.989   0.000  12.343     0.657
  In             12     0.908   1.445   9.989   0.000  12.343     0.657
  In             13     0.911   1.419   9.990   0.000  12.320     0.680
  In             14     0.908   1.445   9.989   0.000  12.343     0.657
  In             15     0.899   1.442   9.990   0.000  12.331     0.669
  In             16     0.911   1.419   9.990   0.000  12.320     0.680
  In             17     0.911   1.419   9.990   0.000  12.320     0.680
  In             18     0.899   1.442   9.990   0.000  12.331     0.669
  In             19     0.899   1.442   9.990   0.000  12.331     0.669
  In             20     0.908   1.445   9.989   0.000  12.343     0.657
  In             21     0.908   1.445   9.989   0.000  12.343     0.657
  In             22     0.911   1.419   9.990   0.000  12.320     0.680
  In             23     0.908   1.445   9.989   0.000  12.343     0.657
  In             24     0.899   1.442   9.990   0.000  12.331     0.669
==========================================================================

                 Bond                   Population      Length (A)
======================================================================
              P 13 -- In 8                   0.66        2.55772
              P 23 -- In 20                  0.66        2.55772
              P 24 -- In 21                  0.66        2.55772
              P 22 -- In 11                  0.66        2.55772
              P 12 -- In 21                  0.66        2.55775
              P 2  -- In 8                   0.66        2.55775
              P 21 -- In 11                  0.66        2.55775
              P 20 -- In 20                  0.66        2.55775
              P 12 -- In 11                  0.66        2.55775
              P 2  -- In 20                  0.66        2.55775
              P 20 -- In 8                   0.66        2.55775
              P 21 -- In 21                  0.66        2.55775
              P 22 -- In 9                   0.66        2.55775
              P 22 -- In 14                  0.66        2.55775
              P 24 -- In 14                  0.66        2.55775
              P 23 -- In 23                  0.66        2.55775
              P 23 -- In 12                  0.66        2.55775
              P 13 -- In 12                  0.66        2.55775
              P 24 -- In 9                   0.66        2.55775
              P 13 -- In 23                  0.66        2.55775
              P 21 -- In 23                  0.66        2.55778
              P 12 -- In 12                  0.66        2.55778
              P 20 -- In 9                   0.66        2.55778
              P 2  -- In 14                  0.66        2.55778
              P 2  -- In 18                  0.66        2.56183
              P 12 -- In 19                  0.66        2.56183
              P 20 -- In 1                   0.66        2.56183
              P 21 -- In 6                   0.66        2.56183
              P 22 -- In 24                  0.66        2.56188
              P 23 -- In 2                   0.66        2.56188
              P 24 -- In 15                  0.66        2.56188
              P 13 -- In 5                   0.66        2.56188
              P 17 -- In 7                   0.70        2.56233
              P 9  -- In 16                  0.70        2.56233
              P 7  -- In 22                  0.70        2.56233
              P 10 -- In 13                  0.70        2.56233
              P 10 -- In 17                  0.64        2.56234
              P 10 -- In 10                  0.64        2.56234
              P 7  -- In 10                  0.64        2.56234
              P 9  -- In 3                   0.64        2.56234
              P 17 -- In 4                   0.64        2.56234
              P 9  -- In 4                   0.64        2.56234
              P 7  -- In 17                  0.64        2.56234
              P 17 -- In 3                   0.64        2.56234
              P 18 -- In 22                  0.64        2.56238
              P 18 -- In 13                  0.64        2.56238
              P 19 -- In 13                  0.64        2.56238
              P 16 -- In 7                   0.64        2.56238
              P 16 -- In 16                  0.64        2.56238
              P 11 -- In 16                  0.64        2.56238
              P 19 -- In 22                  0.64        2.56238
              P 11 -- In 7                   0.64        2.56238
              P 11 -- In 17                  0.70        2.56240
              P 16 -- In 10                  0.70        2.56240
              P 19 -- In 3                   0.70        2.56240
              P 18 -- In 4                   0.70        2.56240
              P 18 -- In 20                  0.65        2.56368
              P 16 -- In 11                  0.65        2.56368
              P 19 -- In 8                   0.65        2.56368
              P 11 -- In 21                  0.65        2.56368
              P 9  -- In 14                  0.65        2.56374
              P 10 -- In 12                  0.65        2.56374
              P 17 -- In 9                   0.65        2.56374
              P 7  -- In 23                  0.65        2.56374
              P 4  -- In 1                   0.66        2.56872
              P 4  -- In 18                  0.66        2.56872
              P 3  -- In 18                  0.66        2.56872
              P 6  -- In 6                   0.66        2.56872
              P 6  -- In 19                  0.66        2.56872
              P 5  -- In 19                  0.66        2.56872
              P 3  -- In 1                   0.66        2.56872
              P 5  -- In 6                   0.66        2.56872
              P 5  -- In 5                   0.66        2.56874
              P 6  -- In 2                   0.66        2.56874
              P 3  -- In 15                  0.66        2.56874
              P 4  -- In 24                  0.66        2.56874
              P 8  -- In 6                   0.66        2.56874
              P 1  -- In 19                  0.66        2.56874
              P 15 -- In 1                   0.66        2.56874
              P 14 -- In 18                  0.66        2.56874
              P 14 -- In 5                   0.66        2.56875
              P 15 -- In 2                   0.66        2.56875
              P 14 -- In 2                   0.66        2.56875
              P 1  -- In 15                  0.66        2.56875
              P 8  -- In 24                  0.66        2.56875
              P 1  -- In 24                  0.66        2.56875
              P 15 -- In 5                   0.66        2.56875
              P 8  -- In 15                  0.66        2.56875
              P 1  -- In 16                  0.61        2.60969
              P 8  -- In 7                   0.61        2.60969
              P 14 -- In 13                  0.61        2.60969
              P 15 -- In 22                  0.61        2.60969
              P 6  -- In 10                  0.61        2.60970
              P 4  -- In 4                   0.61        2.60970
              P 5  -- In 17                  0.61        2.60970
              P 3  -- In 3                   0.61        2.60970
======================================================================


     Hirshfeld Analysis
     ------------------
Species   Ion     Hirshfeld Charge (e)
======================================
  P        1                -0.25
  P        2                -0.24
  P        3                -0.25
  P        4                -0.25
  P        5                -0.25
  P        6                -0.25
  P        7                -0.24
  P        8                -0.25
  P        9                -0.24
  P       10                -0.24
  P       11                -0.24
  P       12                -0.24
  P       13                -0.24
  P       14                -0.25
  P       15                -0.25
  P       16                -0.24
  P       17                -0.24
  P       18                -0.24
  P       19                -0.24
  P       20                -0.24
  P       21                -0.24
  P       22                -0.24
  P       23                -0.24
  P       24                -0.24
  In       1                 0.23
  In       2                 0.23
  In       3                 0.25
  In       4                 0.25
  In       5                 0.23
  In       6                 0.23
  In       7                 0.25
  In       8                 0.24
  In       9                 0.24
  In      10                 0.25
  In      11                 0.24
  In      12                 0.24
  In      13                 0.25
  In      14                 0.24
  In      15                 0.23
  In      16                 0.25
  In      17                 0.25
  In      18                 0.23
  In      19                 0.23
  In      20                 0.24
  In      21                 0.24
  In      22                 0.25
  In      23                 0.24
  In      24                 0.23
======================================

 
 A BibTeX formatted list of references used in this run has been written to 
 StackingFaultStructs_(1_1_1)_(1_1_-2)_1.bib
 
Initialisation time =     22.37 s
Calculation time    =   3639.50 s
Finalisation time   =      3.41 s
Total time          =   3665.29 s
Peak Memory Use     = 3361820 kB
 
Overall parallel efficiency rating: Poor (47%)
 
Data was distributed by:-
G-vector (7-way); efficiency rating: Mediocre (52%)
k-point (36-way); efficiency rating: Very good (81%)
