96
Lattice="14.45404925834546 20.441112492360922 0.0 14.45404925834546 -20.441112492360922 0.0 -2.220446049250313e-16 0.0 4.1725246150929305" Properties=species:S:1:pos:R:3 core_positions="_JSON [[7.227024629172732, 0.0, 2.0862623075464652], [21.68107388751819, 0.0, 2.0862623075464652]]" burgers_vectors="_JSON [[-0.9834734833333334, 1.9669469666666668, -0.9834734833333334], [0.9834734833333334, -1.9669469666666668, 0.9834734833333334]]" dislocation_types="_JSON [\"1/6<112> 30 degree partial\", \"1/6<112> 30 degree partial\"]" dislocation_classes="_JSON [\"<class 'matscipy.dislocation.DiamondGlide30degreePartial'>\", \"<class 'matscipy.dislocation.DiamondGlide30degreePartial'>\"]" energy=-94315.46001637072 pbc="T T T"
In       9.87452820      -2.95784479       3.66618495
P       10.24323575      -0.42329750       3.13075795
In       6.15649393      -2.98405544       1.97332412
P        5.95533657      -0.41973419       2.09555662
In       8.13467701       0.69146340       2.48716441
P        8.27327238       3.16158330       2.24413772
In      11.51072258       0.49283643       0.99006161
P       11.82551925       2.99525152       0.42756184
In       7.04362469       3.96854442       0.13842076
P        7.14475663       6.48936516       0.08305878
In      10.70217411       3.94363183       2.48199613
P       10.77219511       6.46626975       2.30035769
In       9.56912261       7.29395897       0.19047352
P        9.64520172       9.82353788       0.02909500
In       5.93301774       7.29908904       2.15235629
P       20.46497204     -10.61278473       2.01877061
In       8.43472627      10.63920840       2.09604489
P       22.96589238      -7.27310734       1.92997431
In      12.05696095      10.67437329       0.09317873
P       12.11443459      13.21647996      -0.01418017
In      21.76021420      -6.45226356       3.99234486
P       21.81612602      -3.93263127       3.88388516
In      10.90602958      14.05287730       2.05993047
P       25.38322239      -3.84490519       2.02360162
In      17.10187267      -2.98080099       3.67320381
P       17.37010953      -0.44550899       3.30677616
In      13.51484149      -2.99064962       1.53299497
P       13.82832745      -0.45494603       1.08503503
In      15.04171011       0.45911578       3.12042471
P       15.41162436       2.97303617       2.61375703
In      18.63609641       0.40982695       1.18141762
P       19.03006397       2.92107216       0.55106555
In      14.24152360       3.87138909       0.50816383
P       14.36184661       6.41848618       0.29174881
In      17.85103304       3.82919717       2.62690599
P       17.96719258       6.38059371       2.38053987
In      16.78695364       7.25516145       0.28205726
P       16.87773065       9.80966035       0.12094862
In      13.18841535       7.29688605       2.35910974
P       13.26211351       9.83591613       2.19501980
In      15.68281535      10.66794673       2.19741932
P       15.73972788      13.21790324       2.09541043
In      19.30228634      10.65501224       0.05981716
P       19.38071939      13.22353312      -0.03000031
In      14.52840255      14.05890935       0.00290200
P       14.54121136      16.60794600      -0.03263127
In      18.15934189      14.06198013       2.05629771
P        3.73259666      -3.82048435       2.02836865
In      24.17611462      -2.99180121       4.10180329
P       24.15854451      -0.45218736       4.29200362
In      20.64887851      -3.02339473       1.78504323
P       20.87625192      -0.62975270       1.06317409
In      22.83181234       0.34483795       2.27835479
P       22.74738276       2.90670640       2.38684410
In      26.52261163       0.40206455       4.16219698
P       26.39852071       2.95233246       0.11391407
In      21.48532406       3.70718293       0.32380025
P       21.58030017       6.29464275       0.16918454
In      25.16448630       3.77821243       2.21417299
P       10.74932626     -14.10065686       2.14573857
In       9.53594784     -13.25058295       4.23352620
P        9.62396080     -10.67703759       4.15299156
In      20.40257469       7.19473962       2.25530041
P       20.48523509       9.76876533       2.14849368
In       8.44103466      -9.78892769       2.06605200
P        8.53528327      -7.21637701       1.97738471
In      12.04099436      -9.82084811       4.06337791
P       12.14393738      -7.26276902       3.90379556
In       7.34720602      -6.33400304       4.06822755
P        7.43264370      -3.74614765       4.03394860
In      10.96234165      -6.38464655       1.80608241
P       11.07448494      -3.82730488       1.59818325
In       2.49777311      -2.99225141       4.12176729
P        2.37981769      -0.43735429       0.02295821
In      13.32778657      17.45053475       2.05230833
P       27.72468504      -0.44124744       2.07798693
In       1.19249141       0.42743079       2.11430461
P       15.56052340     -17.46372186       2.14284867
In       4.73674053       0.46089423       0.01449253
P        4.69770828       3.00811899       0.06756998
In      14.34361771     -16.62194702       4.22999161
P       14.37970201     -14.07133927       4.17670885
In       3.49266607       3.85274189       2.14939084
P       17.99844951     -14.04418329       2.09461653
In      16.78663015     -13.21107585       4.17067222
P       16.85072239     -10.66625380       4.05713492
In      13.16239676     -13.23522831       2.08606543
P       13.23695498     -10.67953747       1.98461393
In      15.64909562      -9.82411786       1.95768422
P       15.74291347      -7.27839978       1.78608219
In      19.25404310      -9.79770023       4.08696768
P       19.33996599      -7.26555464       3.92387813
In      14.56272988      -6.41236796       3.85399308
P       14.68500784      -3.86269708       3.64577143
In      18.14995881      -6.42016619       1.81563452
P       18.24613715      -3.88665265       1.62333461
96
Lattice="14.45404925834546 20.441112492360922 0.0 14.45404925834546 -20.441112492360922 0.0 -2.220446049250313e-16 0.0 4.1725246150929305" Properties=species:S:1:pos:R:3 core_positions="_JSON [[7.227024629172732, 0.0, 2.0862623075464652], [21.68107388751819, 0.0, 2.0862623075464652]]" burgers_vectors="_JSON [[-0.9834734833333334, 1.9669469666666668, -0.9834734833333334], [0.9834734833333334, -1.9669469666666668, 0.9834734833333334]]" dislocation_types="_JSON [\"1/6<112> 30 degree partial\", \"1/6<112> 30 degree partial\"]" dislocation_classes="_JSON [\"<class 'matscipy.dislocation.DiamondGlide30degreePartial'>\", \"<class 'matscipy.dislocation.DiamondGlide30degreePartial'>\"]" energy=-94315.45704359534 pbc="T T T"
In       9.88270137      -2.95208849       3.66462115
P       10.24694187      -0.41742613       3.12756097
In       6.16317443      -2.97582624       1.97778189
P        5.95611331      -0.41227458       2.10448239
In       8.13584030       0.69840948       2.49421156
P        8.26956114       3.16895666       2.25207377
In      11.51261528       0.49899558       0.98743702
P       11.82141993       3.00344212       0.43266492
In       7.03958237       3.97565472       0.14638209
P        7.14108378       6.49651513       0.08661516
In      10.69803820       3.95132667       2.48714283
P       10.76883027       6.47388267       2.30180886
In       9.56539033       7.30216771       0.19147463
P        9.64422420       9.83171713       0.02118452
In       5.92912787       7.30648727       2.15575560
P       20.46465288     -10.60532125       2.01531154
In       8.43393609      10.64954025       2.08706427
P       22.96782833      -7.26250252       1.91102319
In      12.05707392      10.67999180       0.08986739
P       12.11868388      13.22165096      -0.02047654
In      21.76326235      -6.43775429       3.97199112
P       21.82496250      -3.91795721       3.82965114
In      10.90976143      14.05706336       2.05301785
P       25.39072134      -3.84141722       2.01604555
In      17.11245355      -2.97265304       3.65360076
P       17.37162954      -0.43590089       3.29574393
In      13.52402876      -2.98448568       1.52271361
P       13.83148459      -0.44756684       1.07843716
In      15.04173348       0.46811324       3.11462212
P       15.40672206       2.98319337       2.61931005
In      18.63421747       0.41877270       1.17272553
P       19.02185562       2.93379788       0.56237346
In      14.23669689       3.87981162       0.51353245
P       14.35929992       6.42647949       0.29623691
In      17.84506162       3.84022984       2.63775711
P       17.96387202       6.39132476       2.39266062
In      16.78396335       7.26524507       0.29333553
P       16.87863860       9.81914822       0.12638988
In      13.18539721       7.30380784       2.36301236
P       13.26274113       9.84233487       2.19273212
In      15.68331000      10.67628140       2.20181993
P       15.74408398      13.22580633       2.09553355
In      19.30358245      10.66543567       0.07205055
P       19.38576816      13.23348101      -0.02391708
In      14.53246698      14.06564176       0.00224263
P       14.54752376      16.61428183      -0.03292062
In      18.16391684      14.07093965       2.06178180
P        3.73881361      -3.81183648       2.03271660
In      24.18525669      -2.98282531       4.09387424
P       24.15084012      -0.44911346       4.34442478
In      20.65962077      -3.00168176       1.72246717
P       20.88617682      -0.59578884       1.03064983
In      22.79533031       0.34044240       2.34974089
P       22.73540710       2.90856975       2.42016667
In      26.51355831       0.40190479       4.18230078
P       26.39215466       2.95352030       0.13926654
In      21.47947774       3.71781089       0.35473500
P       21.57659060       6.30492439       0.19372681
In      25.15425557       3.77557015       2.24102418
P       10.74419699     -14.10079688       2.16654082
In       9.53393249     -13.24548081       4.25438325
P        9.62584905     -10.67137090       4.16618674
In      20.39966130       7.20545713       2.27887853
P       20.48638450       9.77898009       2.16172541
In       8.44363388      -9.78149728       2.07891544
P        8.54132737      -7.20881402       1.98383605
In      12.04343255      -9.81566207       4.07186927
P       12.15044403      -7.25742533       3.90579154
In       7.35343156      -6.32553901       4.07449938
P        7.44029654      -3.73759466       4.03808022
In      10.96914206      -6.37855682       1.80805579
P       11.08336501      -3.82136632       1.59617720
In       2.50344443      -2.98433310       4.12610112
P        2.37946576      -0.43022500       0.03654027
In      13.33359436      17.45610074       2.05187290
P       27.72248976      -0.43669310       2.09657271
In       1.19002641       0.43322377       2.12897261
P       15.55550339     -17.45832801       2.16000246
In       4.73664737       0.46798746       0.02381294
P        4.69365102       3.01511482       0.07857773
In      14.33660380     -16.61880146       4.24787122
P       14.37528905     -14.06780702       4.19085643
In       3.48760616       3.85891425       2.16076813
P       17.99446457     -14.03793848       2.10286541
In      16.78213947     -13.20550171       4.17913087
P       16.85129563     -10.66028482       4.05977785
In      13.15707603     -13.23303500       2.10039451
P       13.23786970     -10.67638072       1.99311496
In      15.64992690      -9.81822190       1.96041970
P       15.74844861      -7.27194778       1.78193248
In      19.25453957      -9.78907259       4.08332828
P       19.34453200      -7.25653129       3.91236603
In      14.56908894      -6.40511550       3.84987988
P       14.69504259      -3.85573253       3.63490902
In      18.15509379      -6.41129198       1.80428620
P       18.25704286      -3.87642871       1.60197620
96
Lattice="14.45404925834546 20.441112492360922 0.0 14.45404925834546 -20.441112492360922 0.0 -2.220446049250313e-16 0.0 4.1725246150929305" Properties=species:S:1:pos:R:3 core_positions="_JSON [[7.227024629172732, 0.0, 2.0862623075464652], [21.68107388751819, 0.0, 2.0862623075464652]]" burgers_vectors="_JSON [[-0.9834734833333334, 1.9669469666666668, -0.9834734833333334], [0.9834734833333334, -1.9669469666666668, 0.9834734833333334]]" dislocation_types="_JSON [\"1/6<112> 30 degree partial\", \"1/6<112> 30 degree partial\"]" dislocation_classes="_JSON [\"<class 'matscipy.dislocation.DiamondGlide30degreePartial'>\", \"<class 'matscipy.dislocation.DiamondGlide30degreePartial'>\"]" energy=-94315.44362607686 pbc="T T T"
In       9.88941398      -2.94926313       3.66220450
P       10.25158360      -0.41467474       3.12368772
In       6.16895310      -2.97085309       1.97932811
P        5.95882004      -0.40767256       2.10857128
In       8.13892241       0.70241671       2.49765282
P        8.26703108       3.17340086       2.25678841
In      11.51576035       0.50193819       0.98398156
P       11.81832287       3.00800146       0.43555426
In       7.03668268       3.98010740       0.15104271
P        7.13805750       6.50103130       0.08816220
In      10.69503919       3.95572988       2.49003091
P       10.76627079       6.47817602       2.30192621
In       9.56238793       7.30708373       0.19118370
P        9.64307195       9.83659705       0.01346203
In       5.92575550       7.31139544       2.15713696
P       20.46410683     -10.60017437       2.01159487
In       8.43301817      10.65710358       2.07830951
P       22.96969437      -7.25455633       1.89275848
In      12.05745545      10.68040485       0.08623318
P       12.12338937      13.22147413      -0.02640590
In      21.76723412      -6.42414783       3.95225812
P       21.83662155      -3.90392509       3.77053948
In      10.91423103      14.05587398       2.04674277
P       25.39948137      -3.84371442       2.00557021
In      17.12189616      -2.96630808       3.63267084
P       17.37340385      -0.42928313       3.27593656
In      13.53189099      -2.98116836       1.51260756
P       13.83558498      -0.44329495       1.07151040
In      15.04153963       0.47459093       3.10851352
P       15.40229125       2.99013244       2.62306903
In      18.63008786       0.42685240       1.15342556
P       19.01349708       2.94507627       0.57081210
In      14.23263463       3.88467056       0.51713273
P       14.35770095       6.43062861       0.29900930
In      17.83908086       3.84867740       2.64577333
P       17.96082700       6.39918571       2.40164401
In      16.78145207       7.27233524       0.30140231
P       16.87943188       9.82543579       0.12949955
In      13.18337479       7.30640867       2.36531758
P       13.26376367       9.84420787       2.18990975
In      15.68368174      10.68104100       2.20402676
P       15.74793678      13.22996247       2.09365722
In      19.30437951      10.67321607       0.08139156
P       19.38971826      13.24053991      -0.02036499
In      14.53627271      14.06852866      -0.00034722
P       14.55432033      16.61650149      -0.03740712
In      18.16753349      14.07682880       2.06475653
P        3.74430196      -3.80631599       2.03368030
In      24.19820903      -2.97324083       4.08286582
P       24.14526926      -0.45121614       4.42153332
In      20.67025168      -2.98324333       1.65352803
P       20.89817422      -0.55772875       1.00721444
In      22.72891692       0.32594795       2.47153821
P       22.71908104       2.90357419       2.46047180
In      26.50369410       0.39498187       4.19485985
P       26.38633137       2.94901866       0.15737116
In      21.47415484       3.72822905       0.39123182
P       21.57286899       6.31424586       0.21796831
In      25.14082347       3.76319239       2.26073416
P       10.73835578     -14.10858829       2.18169632
In       9.53297972     -13.24505691       4.26983966
P        9.62789735     -10.66998524       4.17488308
In      20.39653284       7.21434093       2.30171844
P       20.48717273       9.78689328       2.17212207
In       8.44635259      -9.77804487       2.08736663
P        8.54653063      -7.20505448       1.98733179
In      12.04568382      -9.81363502       4.07681573
P       12.15620719      -7.25497034       3.90601057
In       7.35866220      -6.32085732       4.07784445
P        7.44661813      -3.73277030       4.03941884
In      10.97488069      -6.37547645       1.80827612
P       11.09086333      -3.81829733       1.59333089
In       2.50887132      -2.97932038       4.12690983
P        2.38125665      -0.42598982       0.04510438
In      13.33973400      17.45699181       2.04712892
P       27.72308742      -0.43690037       2.10799437
In       1.18957162       0.43599736       2.13862268
P       15.55143206     -17.45601280       2.17112502
In       4.73856208       0.47245086       0.02814848
P        4.69076395       3.01948159       0.08510466
In      14.32977776     -16.61932877       4.25964106
P       14.37101264     -14.06762633       4.19960671
In       3.48345953       3.86259365       2.16759899
P       17.99090663     -14.03404206       2.10735041
In      16.77782518     -13.20205408       4.18370035
P       16.85172277     -10.65616795       4.06062224
In      13.15066530     -13.23561945       2.10925677
P       13.23817502     -10.67715351       1.99806835
In      15.65000839      -9.81480326       1.96133400
P       15.75389311      -7.26760307       1.77733017
In      19.25502950      -9.78202094       4.07948707
P       19.34978673      -7.24870281       3.89907502
In      14.57479230      -6.40041607       3.84540805
P       14.70413867      -3.85115168       3.62406696
In      18.16045579      -6.40370275       1.79073517
P       18.26757167      -3.86733774       1.57908029
96
Lattice="14.45404925834546 20.441112492360922 0.0 14.45404925834546 -20.441112492360922 0.0 -2.220446049250313e-16 0.0 4.1725246150929305" Properties=species:S:1:pos:R:3 core_positions="_JSON [[7.227024629172732, 0.0, 2.0862623075464652], [21.68107388751819, 0.0, 2.0862623075464652]]" burgers_vectors="_JSON [[-0.9834734833333334, 1.9669469666666668, -0.9834734833333334], [0.9834734833333334, -1.9669469666666668, 0.9834734833333334]]" dislocation_types="_JSON [\"1/6<112> 30 degree partial\", \"1/6<112> 30 degree partial\"]" dislocation_classes="_JSON [\"<class 'matscipy.dislocation.DiamondGlide30degreePartial'>\", \"<class 'matscipy.dislocation.DiamondGlide30degreePartial'>\"]" energy=-94315.41652250674 pbc="T T T"
In       9.89434877      -2.94780608       3.66014536
P       10.25771770      -0.41370020       3.12098277
In       6.17343257      -2.96782430       1.97907625
P        5.96416858      -0.40470953       2.10873744
In       8.14450693       0.70449654       2.49862005
P        8.26553947       3.17592034       2.25982603
In      11.52139046       0.50258067       0.98152246
P       11.81617209       3.00984242       0.43746572
In       7.03479242       3.98256103       0.15400670
P        7.13568381       6.50342276       0.08904012
In      10.69304501       3.95747602       2.49189449
P       10.76454089       6.47963448       2.30184344
In       9.56017680       7.30876606       0.19080231
P        9.64205549       9.83805674       0.00774890
In       5.92295415       7.31408238       2.15789791
P       20.46318925     -10.59730104       2.00888025
In       8.43205427      10.66085638       2.07182727
P       22.97098114      -7.25054974       1.87876378
In      12.05843389      10.67559127       0.08189108
P       12.12871954      13.21559623      -0.03526558
In      21.77084360      -6.41463648       3.93710224
P       21.84866093      -3.89307491       3.72009291
In      10.91940340      14.04819835       2.03745260
P       25.40938295      -3.85369237       1.98170728
In      17.12933078      -2.96121366       3.61622206
P       17.38158138      -0.42454876       3.25291622
In      13.53782909      -2.97923432       1.50555242
P       13.84255215      -0.44098830       1.06737434
In      15.04547475       0.47799717       3.10504446
P       15.39859713       2.99395269       2.62589717
In      18.63023396       0.43625348       1.12883216
P       19.00595207       2.95684126       0.57790178
In      14.22931156       3.88623768       0.51970652
P       14.35698273       6.43136992       0.30062898
In      17.83183333       3.85672211       2.65215952
P       17.95765343       6.40635349       2.40839160
In      16.77873881       7.27851174       0.30722402
P       16.87969747       9.83058627       0.13108616
In      13.18235197       7.30513600       2.36657021
P       13.26546233       9.84191550       2.18624947
In      15.68359473      10.68434835       2.20481627
P       15.75067013      13.23250234       2.08982880
In      19.30399150      10.68102621       0.08854374
P       19.39216083      13.24705708      -0.01883648
In      14.53905111      14.07000658      -0.00500520
P       14.56020351      16.61702837      -0.04647157
In      18.16963205      14.08152427       2.06564431
P        3.74853000      -3.80228230       2.03149618
In      24.21534805      -2.96533840       4.05638823
P       24.14868988      -0.46236304       4.49305228
In      20.68212322      -2.97055139       1.59451993
P       20.91871985      -0.51919580       0.98491486
In      22.61617191       0.31008965       2.64264733
P       22.69671335       2.89620021       2.50616936
In      26.49663691       0.38506056       4.18698211
P       26.38112265       2.94193856       0.17264692
In      21.46802056       3.74558176       0.43218444
P       21.56864684       6.32812908       0.24076543
In      25.12458551       3.74470082       2.27903556
P       10.73181000     -14.12016757       2.19306383
In       9.53321389     -13.24540156       4.28155992
P        9.62970363     -10.66941500       4.18097158
In      20.39210099       7.22541348       2.32273861
P       20.48700168       9.79592892       2.18033394
In       8.44868916      -9.77558816       2.09326279
P        8.55042232      -7.20251945       1.98919176
In      12.04759575      -9.81255195       4.07978512
P       12.16072813      -7.25347203       3.90575412
In       7.36249532      -6.31772860       4.07952969
P        7.45128067      -3.72980189       4.03916769
In      10.97917353      -6.37366977       1.80799389
P       11.09649874      -3.81654075       1.59095566
In       2.51314281      -2.97613413       4.12424105
P        2.38678700      -0.42343066       0.04620900
In      13.34424793      17.45594376       2.03738585
P       27.72951112      -0.43864393       2.10129185
In       1.19372959       0.43726052       2.14034585
P       15.54822252     -17.45534342       2.17811320
In       4.74372551       0.47553307       0.02834423
P        4.68894005       3.02227078       0.08899185
In      14.32351049     -16.62128531       4.26740314
P       14.36693313     -14.06866925       4.20497141
In       3.48010604       3.86466397       2.17178023
P       17.98785390     -14.03179707       2.10997568
In      16.77389275     -13.20018127       4.18639594
P       16.85164415     -10.65360161       4.06090398
In      13.14361075     -13.24021830       2.11469476
P       13.23784628     -10.67939566       2.00104157
In      15.64961084      -9.81275195       1.96164535
P       15.75874034      -7.26434740       1.77410454
In      19.25508003      -9.77705717       4.07665406
P       19.35399929      -7.24281331       3.88928117
In      14.57944500      -6.39735901       3.84228621
P       14.71154367      -3.84786978       3.61630342
In      18.16545057      -6.39655005       1.78069167
P       18.27792376      -3.85801562       1.56107583
96
Lattice="14.45404925834546 20.441112492360922 0.0 14.45404925834546 -20.441112492360922 0.0 -2.220446049250313e-16 0.0 4.1725246150929305" Properties=species:S:1:pos:R:3 core_positions="_JSON [[7.227024629172732, 0.0, 2.0862623075464652], [21.68107388751819, 0.0, 2.0862623075464652]]" burgers_vectors="_JSON [[-0.9834734833333334, 1.9669469666666668, -0.9834734833333334], [0.9834734833333334, -1.9669469666666668, 0.9834734833333334]]" dislocation_types="_JSON [\"1/6<112> 30 degree partial\", \"1/6<112> 30 degree partial\"]" dislocation_classes="_JSON [\"<class 'matscipy.dislocation.DiamondGlide30degreePartial'>\", \"<class 'matscipy.dislocation.DiamondGlide30degreePartial'>\"]" energy=-94315.37659053762 pbc="T T T"
In       9.89813551      -2.94623754       3.65909783
P       10.26445241      -0.41288008       3.12036706
In       6.17725250      -2.96493592       1.97873850
P        5.97190322      -0.40177428       2.10769279
In       8.15186782       0.70673192       2.49907339
P        8.26415918       3.17848133       2.26321099
In      11.52781588       0.50284503       0.98114802
P       11.81377872       3.01084140       0.43976323
In       7.03311403       3.98484772       0.15735187
P        7.13341330       6.50535195       0.09047012
In      10.69109250       3.95851908       2.49411328
P       10.76305631       6.48003871       2.30224582
In       9.55817796       7.30877927       0.19099161
P        9.64119717       9.83734649       0.00389763
In       5.92020662       7.31586743       2.15928865
P       20.46164688     -10.59562330       2.00768188
In       8.43088231      10.66114902       2.06750385
P       22.97195420      -7.25068614       1.86925587
In      12.06049106      10.66549748       0.07609176
P       12.13615202      13.20320761      -0.05201175
In      21.77296962      -6.41217121       3.92704514
P       21.85578084      -3.88971911       3.69181134
In      10.92655562      14.03186062       2.01951092
P       25.42263966      -3.87520181       1.93090093
In      17.13472410      -2.95688058       3.60565881
P       17.39425864      -0.41942277       3.24088865
In      13.54210855      -2.97737354       1.50208173
P       13.85035128      -0.43906406       1.06834777
In      15.05228443       0.47917100       3.10687555
P       15.39467431       2.99567199       2.62912316
In      18.63206230       0.44951214       1.11554783
P       18.99727392       2.97019040       0.58714421
In      14.22569468       3.88587001       0.52251968
P       14.35681204       6.42997238       0.30194543
In      17.82172626       3.86655039       2.65979798
P       17.95398639       6.41490790       2.41527862
In      16.77524816       7.28572692       0.31307181
P       16.87949963       9.83650788       0.13265413
In      13.18195110       7.30113790       2.36748552
P       13.26838447       9.83627208       2.18116979
In      15.68325022      10.68814302       2.20554498
P       15.75284390      13.23539633       2.08495730
In      19.30213683      10.69176803       0.09588179
P       19.39361510      13.25559910      -0.01793401
In      14.54120511      14.07225778      -0.01100269
P       14.56493467      16.61831765      -0.05738160
In      18.17063506      14.08729019       2.06571603
P        3.75207647      -3.79772330       2.02770660
In      24.23431921      -2.97490885       3.99784490
P       24.17254497      -0.49441640       4.47790196
In      20.69576140      -2.96865028       1.56378373
P       20.93771356      -0.48946894       0.99425416
In      22.47150366       0.32535563       2.82181504
P       22.66978958       2.90487382       2.55698106
In      26.50092896       0.38095650       4.15917022
P       26.37742736       2.93780333       0.19799254
In      21.45468256       3.77631651       0.47941189
P       21.56272569       6.35117240       0.26358114
In      25.11044483       3.72988628       2.31020783
P       10.72526208     -14.12873951       2.20637421
In       9.53386831     -13.24219742       4.29481395
P        9.63108139     -10.66613076       4.18801673
In      20.38529329       7.24319373       2.34361980
P       20.48557933       9.80988017       2.18877147
In       8.45054669      -9.77107865       2.10002098
P        8.55350014      -7.19860824       1.99140441
In      12.04928236      -9.81033614       4.08313111
P       12.16439621      -7.25121943       3.90612001
In       7.36554555      -6.31380132       4.08148671
P        7.45496781      -3.72651578       4.03902220
In      10.98265089      -6.37142925       1.80830295
P       11.10074548      -3.81458482       1.58971827
In       2.51653615      -2.97336687       4.11957197
P        2.39733120      -0.42110556       0.03968541
In      13.34700647      17.45609944       2.02524061
P       27.74386732      -0.43819807       2.07730542
In       1.20427663       0.43794108       2.13349714
P       15.54584346     -17.45510071       2.18600082
In       4.75277575       0.47920935       0.02724307
P        4.68762356       3.02520748       0.09339480
In      14.31953301     -16.62148634       4.27665704
P       14.36312209     -14.06839141       4.21064380
In       3.47710985       3.86657434       2.17656911
P       17.98493896     -14.02988224       2.11291873
In      16.77038230     -13.19841019       4.18943734
P       16.85078396     -10.65155524       4.06167940
In      13.13687678     -13.24304136       2.12053724
P       13.23736390     -10.68025915       2.00438951
In      15.64915736      -9.81042635       1.96239582
P       15.76296087      -7.26102226       1.77250413
In      19.25411562      -9.77387549       4.07543899
P       19.35586302      -7.23913173       3.88309258
In      14.58334469      -6.39467448       3.84079982
P       14.71712163      -3.84477843       3.61229588
In      18.16974370      -6.38868925       1.77436515
P       18.28748184      -3.84826266       1.54947056
96