96
Lattice="14.45404925834546 20.441112492360922 0.0 14.45404925834546 -20.441112492360922 0.0 -2.220446049250313e-16 0.0 4.1725246150929305" Properties=species:S:1:pos:R:3 core_positions="_JSON [[7.227024629172732, 0.0, 2.0862623075464652], [21.68107388751819, 0.0, 2.0862623075464652]]" burgers_vectors="_JSON [[-0.9834734833333334, -0.9834734833333334, 1.9669469666666668], [0.9834734833333334, 0.9834734833333334, -1.9669469666666668]]" dislocation_types="_JSON [\"1/6<112> 90 degree partial\", \"1/6<112> 90 degree partial\"]" dislocation_classes="_JSON [\"<class 'matscipy.dislocation.DiamondGlide90degreePartial'>\", \"<class 'matscipy.dislocation.DiamondGlide90degreePartial'>\"]" energy=-94314.13284957067 pbc="T T T"
In       9.26353572      -3.12930188       0.00000000
P        8.59928632      -0.69334041       0.00000000
In       5.81561440      -2.97205350       2.08626231
P        6.10787168      -0.47240565       2.08626231
In       9.60170043       0.26193691       2.08626231
P        8.92212178       2.79351888       2.08626231
In      13.22671423       0.43949521       0.00000000
P       12.54232201       2.93851961       0.00000000
In       7.60154235       3.55369074       0.00000000
P        7.39940178       6.18982517       0.00000000
In      11.27880383       3.77545027       2.08626231
P       11.02885751       6.34083189       2.08626231
In       9.75884949       7.16421812       0.00000000
P        9.61352471       9.76104348       0.00000000
In       6.20042285       7.13049770       2.08626231
P       20.49441810     -10.70768396       2.08626231
In       8.40926510      10.67508256       2.08626231
P       22.71290881      -7.17240334       2.08626231
In      12.00309205      10.64385048       0.00000000
P       11.88913523      13.21242513       0.00000000
In      21.49244331      -6.26471343       0.00000000
P       21.36216045      -3.64917508       0.00000000
In      10.67868121      14.09124313       2.08626231
P       25.07597848      -3.77983873       2.08626231
In      16.35282017      -2.96170232       0.00000000
P       15.71223639      -0.44138264      -0.00000000
In      12.75220888      -2.99293373       2.08626231
P       12.16392823      -0.49023256       2.08626231
In      16.79240728       0.48414392       2.08626231
P       16.08997141       2.98210805       2.08626231
In      20.33851130       0.69860549      -0.00000002
P       19.59922815       3.14436503       0.00000000
In      14.89550298       3.87073303       0.00000000
P       14.64311447       6.40880485       0.00000000
In      18.40469585       3.97037909       2.08626231
P       18.23172276       6.49498701       2.08626231
In      17.00356706       7.31328314       0.00000000
P       16.82827087       9.84011946       0.00000000
In      13.40281649       7.24572666       2.08626231
P       13.23447749       9.80062365       2.08626231
In      15.61721031      10.68724563       2.08626231
P       15.51088798      13.23099303       2.08626231
In      19.22461522      10.65699215       0.00000000
P       19.08037384      13.17774644       0.00000000
In      14.29417528      14.06633190       0.00000000
P       14.26601671      16.61865428       0.00000000
In      17.91725000      14.06656766       2.08626231
P        3.40793373      -3.83748821       2.08626231
In      23.86000707      -2.89886101       0.00000000
P       24.07073042      -0.33611675       0.00000002
In      20.01100915      -2.87826992       2.08626231
P       19.28835445      -0.36460907       2.08626229
In      22.87740679       0.63035235       2.08626233
P       23.12515455       3.16446615       2.08626231
In      26.53702278       0.43943850       0.00000000
P       12.26855902     -17.44784663       0.00000000
In      21.96043440       4.04936300       0.00000000
P       21.83988359       6.55555505       0.00000000
In      25.56606434       3.87706144       2.08626231
P       10.99926203     -14.02533368       2.08626231
In       9.81463481     -13.16475944       0.00000000
P        9.65480334     -10.64077776       0.00000000
In      20.61482378       7.34180348       2.08626231
P       20.45273677       9.85500982       2.08626231
In       8.42147585      -9.83980061       2.08626231
P        8.24405255      -7.32069977       2.08626231
In      12.06090157      -9.83133049       0.00000000
P       11.86917794      -7.30366795       0.00000000
In       7.03298399      -6.48739144       0.00000000
P        6.88776333      -3.98853281       0.00000000
In      10.63500827      -6.50828465       2.08626231
P       10.45137428      -3.98960298       2.08626231
In      16.68345005      17.45588648       0.00000000
P        2.38070023      -0.44347257       0.00000000
In      13.06957543      17.47237733       2.08626231
P       27.72044349      -0.41713648       2.08626231
In       1.23948537       0.43661039       2.08626231
P       15.88576241     -17.46270760       2.08626231
In       4.86073230       0.28774201       0.00000000
P        5.09142940       2.87536639       0.00000000
In      14.68881829     -16.61347181       0.00000000
P       14.60748245     -14.06097750       0.00000000
In       3.89550519       3.76357176       2.08626231
P       18.22343504     -14.10721940       2.08626231
In      17.02256522     -13.22791956       0.00000000
P       16.89018107     -10.65945097       0.00000000
In      13.40726788     -13.20632220       2.08626231
P       13.27598572     -10.66441373       2.08626231
In      15.67069832      -9.80339884       2.08626231
P       15.46879058      -7.24829716       2.08626231
In      19.29209380      -9.79414489       0.00000000
P       19.11434014      -7.20576773       0.00000000
In      14.23652281      -6.40126324       0.00000000
P       13.98842250      -3.85700274       0.00000000
In      17.85634786      -6.36925281       2.08626231
P       17.63247349      -3.80188428       2.08626231
96
Lattice="14.45404925834546 20.441112492360922 0.0 14.45404925834546 -20.441112492360922 0.0 -2.220446049250313e-16 0.0 4.1725246150929305" Properties=species:S:1:pos:R:3 core_positions="_JSON [[7.227024629172732, 0.0, 2.0862623075464652], [21.68107388751819, 0.0, 2.0862623075464652]]" burgers_vectors="_JSON [[-0.9834734833333334, -0.9834734833333334, 1.9669469666666668], [0.9834734833333334, 0.9834734833333334, -1.9669469666666668]]" dislocation_types="_JSON [\"1/6<112> 90 degree partial\", \"1/6<112> 90 degree partial\"]" dislocation_classes="_JSON [\"<class 'matscipy.dislocation.DiamondGlide90degreePartial'>\", \"<class 'matscipy.dislocation.DiamondGlide90degreePartial'>\"]" energy=-94314.13868681324 pbc="T T T"
In       9.23972788      -3.12638900      -0.00007365
P        8.61709120      -0.68702651       0.00098213
In       5.76917268      -2.99335052       2.08600687
P        6.01948632      -0.49753457       2.08531823
In       9.65599350       0.22680590       2.08721719
P        8.96473896       2.75503074       2.08658043
In      13.27893109       0.40219399       0.00451249
P       12.59153398       2.89780023       0.00089728
In       7.62381334       3.47990190       0.00020609
P        7.41426512       6.12078168       0.00013247
In      11.32649146       3.73193145       2.08677648
P       11.05653812       6.29213037       2.08667413
In       9.77457414       7.09872745       0.00034630
P        9.61999594       9.69615526       0.00028183
In       6.21519364       7.06314981       2.08636375
P       20.49987620     -10.77432302       2.08623130
In       8.41492134      10.60672179       2.08658353
P       22.70451758      -7.24148368       2.08812771
In      12.00281964      10.59612150      -0.00024270
P       11.86732742      13.16721340      -0.00259062
In      21.48300173      -6.34056912       0.00259698
P       21.33779673      -3.72765699       0.00621902
In      10.65868248      14.05203374       2.08306747
P       25.03594732      -3.81611033       2.08173411
In      16.34981663      -3.01068208      -0.00451951
P       15.75745986      -0.48232870       0.01158191
In      12.74664138      -3.03012857       2.08669181
P       12.20832396      -0.52046697       2.09027399
In      16.84871575       0.43290070       2.09865553
P       16.14028298       2.93219764       2.08953817
In      20.37471576       0.66174048       0.12037958
P       19.64298758       3.10764293       0.00490853
In      14.94750550       3.82585221       0.00212609
P       14.67298777       6.36388452       0.00070500
In      18.44891305       3.93252408       2.08703199
P       18.25817676       6.45882441       2.08889654
In      17.02890187       7.27807057       0.00232244
P       16.83142455       9.80604975       0.00014577
In      13.42925091       7.20116914       2.08669257
P       13.23919110       9.75632911       2.08611411
In      15.61697216      10.65200448       2.08630844
P       15.48849786      13.19694685       2.08576756
In      19.21811107      10.64764005      -0.00038522
P       19.05978536      13.16746119      -0.00047795
In      14.26676524      14.03053674      -0.00065212
P       14.21895215      16.58543121      -0.00008756
In      17.88879151      14.04742585       2.08576658
P        3.36242445      -3.85862157       2.08567997
In      23.81477776      -2.94274330      -0.00451968
P       24.02258870      -0.36934466      -0.09024513
In      20.00057719      -2.94562484       2.09445786
P       19.33736463      -0.41863356       2.18738073
In      22.87711234       0.65286998       1.97084685
P       23.15980742       3.17982238       2.08325815
In      26.47674618       0.41986121      -0.00943920
P       12.26766532     -17.46565088      -0.00596968
In      21.98798147       4.05133711      -0.00082601
P       21.85323929       6.55673940      -0.00440978
In      25.59530973       3.89346404       2.07881834
P       11.01237271     -14.01261388       2.08467017
In       9.82417655     -13.15684661      -0.00146990
P        9.64951541     -10.63518550      -0.00044377
In      20.62780831       7.33854338       2.08252357
P       20.44828912       9.85004565       2.08567636
In       8.41394688      -9.83672368       2.08586475
P        8.22423024      -7.31985647       2.08607448
In      12.05758464      -9.83463248      -0.00002434
P       11.85393714      -7.30916306      -0.00002301
In       7.01101263      -6.48755616      -0.00020058
P        6.86174764      -3.98959292      -0.00023710
In      10.61734535      -6.51228500       2.08622590
P       10.43090475      -3.99453812       2.08614994
In      16.63229187      17.42896624      -0.00070235
P        2.30506262      -0.47107025      -0.00355871
In      13.02444697      17.44543581       2.08639125
P       27.65444706      -0.44061110       2.07747577
In       1.17031398       0.41417666       2.08211423
P       15.87969135     -17.48958031       2.08521805
In       4.78323286       0.25055537      -0.00092709
P        5.09257840       2.83218633      -0.00033203
In      14.68854819     -16.63595804      -0.00102869
P       14.60861781     -14.08234524      -0.00008035
In       3.89969862       3.71964581       2.08587313
P       18.22944314     -14.15201129       2.08621224
In      17.02994064     -13.27182025      -0.00003781
P       16.88909230     -10.70423802      -0.00000408
In      13.42240061     -13.20708689       2.08631797
P       13.27489221     -10.66884463       2.08624619
In      15.67710303      -9.83487715       2.08626877
P       15.46228874      -7.28337193       2.08619851
In      19.29641566      -9.86070794      -0.00007222
P       19.10496177      -7.27287611      -0.00024200
In      14.23129814      -6.43428067      -0.00014118
P       13.98157923      -3.89224917       0.00003366
In      17.85494323      -6.42433822       2.08591296
P       17.62224076      -3.85817854       2.08190267
96
Lattice="14.45404925834546 20.441112492360922 0.0 14.45404925834546 -20.441112492360922 0.0 -2.220446049250313e-16 0.0 4.1725246150929305" Properties=species:S:1:pos:R:3 core_positions="_JSON [[7.227024629172732, 0.0, 2.0862623075464652], [21.68107388751819, 0.0, 2.0862623075464652]]" burgers_vectors="_JSON [[-0.9834734833333334, -0.9834734833333334, 1.9669469666666668], [0.9834734833333334, 0.9834734833333334, -1.9669469666666668]]" dislocation_types="_JSON [\"1/6<112> 90 degree partial\", \"1/6<112> 90 degree partial\"]" dislocation_classes="_JSON [\"<class 'matscipy.dislocation.DiamondGlide90degreePartial'>\", \"<class 'matscipy.dislocation.DiamondGlide90degreePartial'>\"]" energy=-94314.11312550724 pbc="T T T"
In       9.23775314      -3.12415323      -0.00004426
P        8.61925741      -0.68444015       0.00056117
In       5.76567018      -2.99258575       2.08611587
P        6.01086877      -0.49689931       2.08572441
In       9.66017879       0.22699855       2.08680712
P        8.96903396       2.75516389       2.08644343
In      13.28490523       0.40151657       0.00262242
P       12.59729162       2.89694609       0.00051078
In       7.62593454       3.47694977       0.00011651
P        7.41581022       6.11813152       0.00007605
In      11.33178542       3.73092247       2.08655256
P       11.05930975       6.29075170       2.08649958
In       9.77643660       7.09617102       0.00019973
P        9.62107238       9.69354501       0.00016029
In       6.21658702       7.06025894       2.08632069
P       20.50059550     -10.77738230       2.08624400
In       8.41590891      10.60321708       2.08644441
P       22.70412542      -7.24551772       2.08734628
In      12.00303274      10.59592577      -0.00014119
P       11.86499783      13.16737412      -0.00150633
In      21.48089868      -6.34863078       0.00150898
P       21.33188123      -3.73722405       0.00339001
In      10.65667510      14.05335067       2.08440135
P       25.03088898      -3.81453544       2.08360354
In      16.34800947      -3.01343727      -0.00266507
P       15.76414240      -0.48373378       0.00669453
In      12.74547680      -3.02993039       2.08651215
P       12.21266627      -0.51971210       2.08858975
In      16.85572231       0.42954052       2.09338488
P       16.14766450       2.92915212       2.08815749
In      20.37903643       0.65610105       0.07237072
P       19.65008509       3.10267192       0.00266147
In      14.95414167       3.82349982       0.00122855
P       14.67596345       6.36171627       0.00040640
In      18.45582592       3.92952531       2.08644776
P       18.26204633       6.45532319       2.08780353
In      17.03204868       7.27490926       0.00136109
P       16.83200768       9.80331000       0.00008077
In      13.43199399       7.20010369       2.08650907
P       13.23968724       9.75558843       2.08617577
In      15.61765417      10.65035577       2.08628545
P       15.48684041      13.19576685       2.08597845
In      19.21679851      10.64937672      -0.00022004
P       19.05777271      13.16898731      -0.00027587
In      14.26459860      14.02975867      -0.00037457
P       14.21468762      16.58520146      -0.00005868
In      17.88636909      14.04833917       2.08597627
P        3.35876490      -3.85783270       2.08592448
In      23.80485617      -2.95043063      -0.00264141
P       24.00851967      -0.37035946      -0.05292894
In      19.99822072      -2.95575838       2.09079770
P       19.34979320      -0.42422388       2.14630490
In      22.89151798       0.67221054       2.01774357
P       23.16713127       3.19549989       2.08463958
In      26.46681908       0.41961465      -0.00531886
P       12.26618613     -17.46499966      -0.00381926
In      21.98965155       4.05788549      -0.00033624
P       21.85414970       6.56223699      -0.00256766
In      25.60484172       3.90594970       2.08138596
P       11.01568042     -14.00264854       2.08531822
In       9.82495571     -13.15109575      -0.00085547
P        9.64871296     -10.63022760      -0.00026706
In      20.62850801       7.34253858       2.08408563
P       20.44732163       9.85330141       2.08592614
In       8.41275786      -9.83306301       2.08602468
P        8.22229595      -7.31669236       2.08615337
In      12.05722301      -9.83159379      -0.00001372
P       11.85228511      -7.30661643      -0.00001312
In       7.00887634      -6.48523468      -0.00011580
P        6.85954667      -3.98736923      -0.00013593
In      10.61566620      -6.50999277       2.08624130
P       10.42904280      -3.99246956       2.08619571
In      16.62804312      17.42935785      -0.00040853
P        2.29601690      -0.47061643      -0.00206022
In      13.02055401      17.44616388       2.08632873
P       27.64357610      -0.43935917       2.08120569
In       1.16043122       0.41434928       2.08385433
P       15.87870132     -17.48991339       2.08563565
In       4.77501582       0.24978021      -0.00052864
P        5.09263027       2.83094019      -0.00019649
In      14.68793488     -16.63648105      -0.00067629
P       14.60877411     -14.08210109      -0.00004793
In       3.89993534       3.71815935       2.08603117
P       18.23017170     -14.15338579       2.08623259
In      17.03052827     -13.27371298      -0.00002252
P       16.88847159     -10.70609058      -0.00000081
In      13.42661756     -13.20126469       2.08629297
P       13.27567284     -10.66423284       2.08625414
In      15.67847628      -9.83374585       2.08626835
P       15.46091366      -7.28315625       2.08622602
In      19.29622988      -9.86525075      -0.00004207
P       19.10249211      -7.27786250      -0.00014493
In      14.23012817      -6.43402295      -0.00008202
P       13.97967497      -3.89237956       0.00001718
In      17.85395354      -6.42734093       2.08604736
P       17.61919579      -3.86187426       2.08369208
96
Lattice="14.45404925834546 20.441112492360922 0.0 14.45404925834546 -20.441112492360922 0.0 -2.220446049250313e-16 0.0 4.1725246150929305" Properties=species:S:1:pos:R:3 core_positions="_JSON [[7.227024629172732, 0.0, 2.0862623075464652], [21.68107388751819, 0.0, 2.0862623075464652]]" burgers_vectors="_JSON [[-0.9834734833333334, -0.9834734833333334, 1.9669469666666668], [0.9834734833333334, 0.9834734833333334, -1.9669469666666668]]" dislocation_types="_JSON [\"1/6<112> 90 degree partial\", \"1/6<112> 90 degree partial\"]" dislocation_classes="_JSON [\"<class 'matscipy.dislocation.DiamondGlide90degreePartial'>\", \"<class 'matscipy.dislocation.DiamondGlide90degreePartial'>\"]" energy=-94314.06650649749 pbc="T T T"
In       9.23399451      -3.11999880      -0.00000005
P        8.62387300      -0.67955876      -0.00000020
In       5.75898541      -2.99131976       2.08626243
P        5.99312821      -0.49573140       2.08626255
In       9.66855767       0.22749495       2.08626212
P        8.97831844       2.75572179       2.08626223
In      13.29784944       0.40036718      -0.00000016
P       12.61044649       2.89558194      -0.00000009
In       7.63050746       3.47126660      -0.00000008
P        7.41912656       6.11312597      -0.00000005
In      11.34338980       3.72908811       2.08626222
P       11.06504996       6.28824230       2.08626224
In       9.78042625       7.09152849      -0.00000007
P        9.62344986       9.68881386      -0.00000005
In       6.21957089       7.05462740       2.08626226
P       20.50226624     -10.78346039       2.08626227
In       8.41817363      10.59634727       2.08626225
P       22.70318341      -7.25378228       2.08626225
In      12.00340035      10.59697864      -0.00000003
P       11.85939084      13.16942978       0.00000000
In      21.47490812      -6.36820855      -0.00000007
P       21.31569751      -3.76121308      -0.00000008
In      10.65182666      14.05859827       2.08626231
P       25.01823187      -3.80881099       2.08626233
In      16.34430505      -3.01809198      -0.00000005
P       15.77892678      -0.48611038      -0.00000018
In      12.74304974      -3.02927452       2.08626224
P       12.22194564      -0.51788095       2.08626215
In      16.87438415       0.42145826       2.08626212
P       16.16580473       2.92182689       2.08626220
In      20.39029727       0.63531964      -0.00000093
P       19.66928693       3.08333568      -0.00000007
In      14.96998951       3.81795326      -0.00000010
P       14.68225798       6.35683914      -0.00000005
In      18.47560400       3.91752366       2.08626227
P       18.27136085       6.44347668       2.08626228
In      17.03989015       7.26514318      -0.00000003
P       16.83375562       9.79510114       0.00000001
In      13.43773005       7.19828132       2.08626226
P       13.24060351       9.75475029       2.08626228
In      15.61973380      10.64577150       2.08626232
P       15.48366184      13.19262238       2.08626234
In      19.21376520      10.65240246       0.00000005
P       19.05375804      13.17153915       0.00000007
In      14.26007367      14.02796959       0.00000004
P       14.20523269      16.58513699       0.00000006
In      17.88164959      14.04977321       2.08626238
P        3.35151862      -3.85652845       2.08626240
In      23.77714682      -2.97111212       0.00000002
P       23.96823051      -0.37557157       0.00000061
In      19.99205424      -2.97736067       2.08626221
P       19.37600581      -0.44164286       2.08626152
In      22.94256714       0.72852729       2.08626308
P       23.18888039       3.24075546       2.08626233
In      26.43293606       0.41690563       0.00000016
P       12.26119099     -17.46437729       0.00000011
In      21.99146691       4.07305083       0.00000000
P       21.85531570       6.57501775       0.00000006
In      25.63099546       3.93946498       2.08626243
P       11.02453742     -13.97619386       2.08626239
In       9.82581874     -13.13792912       0.00000008
P        9.64662653     -10.61910499       0.00000007
In      20.62909336       7.35097977       2.08626236
P       20.44489666       9.85999265       2.08626236
In       8.40984335      -9.82546873       2.08626238
P        8.21827963      -7.31028447       2.08626239
In      12.05623799      -9.82505378       0.00000004
P       11.84879833      -7.30118649       0.00000001
In       7.00459130      -6.48092158       0.00000009
P        6.85533030      -3.98326672       0.00000012
In      10.61217717      -6.50545714       2.08626232
P       10.42540884      -3.98841743       2.08626226
In      16.61937464      17.43009657       0.00000009
P        2.27507824      -0.46952069       0.00000016
In      13.01161877      17.44957530       2.08626236
P       27.61366822      -0.43477690       2.08626246
In       1.13547486       0.41410701       2.08626246
P       15.87622553     -17.49121778       2.08626240
In       4.75737745       0.24803079       0.00000027
P        5.09281622       2.82827572       0.00000009
In      14.68597851     -16.63884213       0.00000009
P       14.60892717     -14.08208814       0.00000006
In       3.90044100       3.71506952       2.08626239
P       18.23181058     -14.15607204       2.08626235
In      17.03168552     -13.27788241       0.00000004
P       16.88673992     -10.71015697       0.00000000
In      13.43770847     -13.18643208       2.08626237
P       13.27792587     -10.65280258       2.08626234
In      15.68186690      -9.83035283       2.08626231
P       15.45752489      -7.28210844       2.08626228
In      19.29538370      -9.87561566      -0.00000004
P       19.09572559      -7.28962690      -0.00000005
In      14.22736457      -6.43296447      -0.00000003
P       13.97563079      -3.89213007      -0.00000006
In      17.85116163      -6.43395669       2.08626225
P       17.61132626      -3.87056470       2.08626226
96
Lattice="14.45404925834546 20.441112492360922 0.0 14.45404925834546 -20.441112492360922 0.0 -2.220446049250313e-16 0.0 4.1725246150929305" Properties=species:S:1:pos:R:3 core_positions="_JSON [[7.227024629172732, 0.0, 2.0862623075464652], [21.68107388751819, 0.0, 2.0862623075464652]]" burgers_vectors="_JSON [[-0.9834734833333334, -0.9834734833333334, 1.9669469666666668], [0.9834734833333334, 0.9834734833333334, -1.9669469666666668]]" dislocation_types="_JSON [\"1/6<112> 90 degree partial\", \"1/6<112> 90 degree partial\"]" dislocation_classes="_JSON [\"<class 'matscipy.dislocation.DiamondGlide90degreePartial'>\", \"<class 'matscipy.dislocation.DiamondGlide90degreePartial'>\"]" energy=-94313.9736743844 pbc="T T T"
In       9.23231018      -3.11829554      -0.00000005
P        8.62694543      -0.67737500      -0.00000019
In       5.75620188      -2.99114743       2.08626243
P        5.98393331      -0.49540553       2.08626256
In       9.67347372       0.22777295       2.08626213
P        8.98458239       2.75636320       2.08626222
In      13.30733395       0.40014681      -0.00000013
P       12.62077433       2.89554189      -0.00000009
In       7.63387764       3.46877942      -0.00000007
P        7.42135411       6.11106218      -0.00000005
In      11.35141710       3.72843897       2.08626222
P       11.06843709       6.28740778       2.08626224
In       9.78304201       7.09003227      -0.00000006
P        9.62505613       9.68742357      -0.00000005
In       6.22169214       7.05203427       2.08626227
P       20.50369369     -10.78653801       2.08626226
In       8.41991183      10.59328649       2.08626226
P       22.70184884      -7.25786535       2.08626226
In      12.00331301      10.60077831      -0.00000003
P       11.85414418      13.17471898      -0.00000002
In      21.46715816      -6.38586470      -0.00000005
P       21.29561787      -3.78558882      -0.00000006
In      10.64697163      14.06735910       2.08626229
P       25.00513363      -3.79791196       2.08626230
In      16.34113772      -3.02047651      -0.00000008
P       15.79253100      -0.48650435      -0.00000011
In      12.74137401      -3.02863823       2.08626224
P       12.22855176      -0.51636669       2.08626218
In      16.89186587       0.41584645       2.08626220
P       16.18374626       2.91648533       2.08626222
In      20.40603479       0.59738809      -0.00000014
P       19.69174760       3.04838092      -0.00000005
In      14.98360937       3.81350353      -0.00000008
P       14.68639687       6.35333553      -0.00000005
In      18.49932369       3.89907479       2.08626226
P       18.28008755       6.42607576       2.08626229
In      17.04721691       7.25317196      -0.00000001
P       16.83596074       9.78544374       0.00000001
In      13.44130960       7.19791217       2.08626226
P       13.24081154       9.75573840       2.08626228
In      15.62215531      10.64084377       2.08626232
P       15.48238052      13.18935088       2.08626234
In      19.21166755      10.65291919       0.00000004
P       19.05188692      13.17168622       0.00000006
In      14.25739199      14.02596751       0.00000003
P       14.19924182      16.58492712       0.00000006
In      17.87968521      14.04941307       2.08626237
P        3.34815632      -3.85673404       2.08626239
In      23.74281143      -3.00198365      -0.00000001
P       23.88360159      -0.38428532       0.00000005
In      19.98691750      -2.99514990       2.08626224
P       19.40507176      -0.46120291       2.08626218
In      23.04543884       0.80755299       2.08626236
P       23.21061383       3.29828326       2.08626231
In      26.38171732       0.41029525       0.00000010
P       12.25241663     -17.46483654       0.00000007
In      21.98575278       4.08643009       0.00000000
P       21.85470313       6.58470000       0.00000003
In      25.65953732       3.97654129       2.08626238
P       11.03304169     -13.94878262       2.08626238
In       9.82518965     -13.12732432       0.00000007
P        9.64441928     -10.61083358       0.00000007
In      20.62770028       7.35616332       2.08626234
P       20.44273200       9.86345608       2.08626235
In       8.40719629      -9.82101623       2.08626238
P        8.21587681      -7.30683380       2.08626239
In      12.05504861      -9.82077786       0.00000004
P       11.84656357      -7.29779857       0.00000001
In       7.00242958      -6.47921051       0.00000009
P        6.85348536      -3.98174676       0.00000011
In      10.61008687      -6.50322320       2.08626232
P       10.42344652      -3.98649537       2.08626226
In      16.61518160      17.42977374       0.00000008
P        2.25924574      -0.46911837       0.00000013
In      13.00571861      17.45377483       2.08626236
P       27.57701565      -0.42862185       2.08626241
In       1.11334868       0.41322619       2.08626244
P       15.87440554     -17.49265705       2.08626240
In       4.74678594       0.24661322       0.00000024
P        5.09357081       2.82663964       0.00000008
In      14.68486975     -16.64089415       0.00000008
P       14.60899342     -14.08167067       0.00000006
In       3.90135192       3.71339966       2.08626239
P       18.23316635     -14.15711106       2.08626234
In      17.03271533     -13.28006469       0.00000004
P       16.88499083     -10.71258459       0.00000000
In      13.44826145     -13.17226561       2.08626237
P       13.28028619     -10.64250583       2.08626234
In      15.68470827      -9.82644865       2.08626231
P       15.45460026      -7.28048931       2.08626228
In      19.29419746      -9.88363115      -0.00000004
P       19.08807826      -7.29978669      -0.00000006
In      14.22510221      -6.43174765      -0.00000003
P       13.97259940      -3.89141677      -0.00000006
In      17.84805339      -6.43822589       2.08626225
P       17.60406206      -3.87715129       2.08626223
96