96
Lattice="14.453027169969813 20.439668173914434 0.0 14.453027169969813 -20.439668173914434 0.0 0.0 0.0 4.172230053387472" Properties=species:S:1:pos:R:3:x_err:R:1:y_err:R:1:z_err:R:1:total_err:R:1:energies:R:1:forces:R:3 energy=-94314.84200307446 free_energy=-94314.84200307446 stress="0.00040068390142495273 -0.010011658340091076 0.0011892276201024312 -0.010011658340091076 -0.0019265457947812504 0.00026763877513885187 0.0011892276201024312 0.00026763877513885187 0.0036916434596052975" pbc="T T T"
P       10.24367606      -0.42329860       3.13039268       0.00576589       0.00022979      -0.00957922       0.01118302    -212.29978305      -0.00006817      -0.00012036      -0.00070519
P        5.95420126      -0.41998332       2.09631855      -0.00179267      -0.00027504       0.00754787       0.00776271    -211.89430995      -0.00002797      -0.00002274       0.00007942
P        8.27217737       3.16109391       2.24531613      -0.00154122      -0.00058899       0.00256495       0.00304979    -211.79728768       0.00010193      -0.00007390       0.00005485
P       11.82551285       2.99548507       0.42557068      -0.00010438      -0.00079451      -0.00410974       0.00418714    -211.93502493      -0.00014166       0.00004990       0.00023365
P        7.14432949       6.48892319       0.08288442      -0.00234709       0.00034080       0.00197800       0.00308828    -211.85447570       0.00001473       0.00015882       0.00007090
P       10.77174716       6.46570235       2.29982720      -0.00182445       0.00048199      -0.00116361       0.00221696    -211.95264894       0.00023456      -0.00030025      -0.00010798
P        9.64458312       9.82262237       0.02892982      -0.00121130       0.00091657      -0.00070537       0.00167478    -211.95122437      -0.00023022       0.00010959      -0.00004493
P       20.46348369     -10.61191869       2.01885657      -0.00173202       0.00092766       0.00005800       0.00196566    -211.91918716      -0.00010150       0.00014979      -0.00012660
P       22.96411804      -7.27233140       1.92982761      -0.00073372       0.00089430      -0.00222920       0.00251147    -211.90988187      -0.00028580      -0.00011897      -0.00007021
P       12.11362135      13.21544928      -0.01412899       0.00043677      -0.00067945      -0.00149346       0.00169789    -212.00951426       0.00031253      -0.00013026       0.00005344
P       21.81437101      -3.93128729       3.88265876       0.00035975      -0.00003633      -0.00455854       0.00457286    -211.75409679       0.00038620      -0.00009246       0.00018310
P       25.38210109      -3.84480330       2.02329555       0.00015760      -0.00142118       0.00006844       0.00143153    -211.91889836      -0.00026340       0.00043780      -0.00007284
P       17.36694613      -0.44603425       3.31041804       0.00091058      -0.00147505      -0.00294369       0.00341617    -212.09687318      -0.00021492      -0.00022468      -0.00007858
P       13.82670218      -0.45470617       1.08696338       0.00410989      -0.00035531      -0.00490266       0.00640730    -212.05645001       0.00043807       0.00009718       0.00012149
P       15.41177699       2.97226347       2.61079240       0.00089255       0.00087180      -0.00358200       0.00379307    -212.03908389       0.00009183      -0.00015131      -0.00021327
P       19.02941816       2.91987567       0.54860533      -0.00016870       0.00240210      -0.00033836       0.00243167    -212.06684226       0.00023302      -0.00022257      -0.00021300
P       14.36132414       6.41833491       0.29124969      -0.00051460       0.00057664      -0.00056631       0.00095814    -212.07654846      -0.00070390      -0.00015877      -0.00014404
P       17.96641531       6.38007717       2.37990579       0.00065609       0.00166520      -0.00007046       0.00179118    -212.17505331      -0.00037283      -0.00016180      -0.00029641
P       16.87666655       9.80886230       0.12071290       0.00069928      -0.00005323      -0.00075947       0.00103374    -212.09954032      -0.00074865      -0.00052785      -0.00005677
P       13.26111636       9.83512971       2.19463617      -0.00024633      -0.00038543      -0.00179776       0.00185504    -212.02313139       0.00005925       0.00023625       0.00000950
P       15.73843290      13.21669424       2.09531271       0.00075265      -0.00104768      -0.00145245       0.00194261    -212.05181943      -0.00040596       0.00018995      -0.00006839
P       19.37959919      13.22237544      -0.02993091       0.00162455       0.00113030      -0.00083009       0.00214611    -212.11562059       0.00001366      -0.00006129       0.00014161
P       14.54088485      16.60683468      -0.03279255      -0.00039141      -0.00097778       0.00001429       0.00105331    -212.03965895      -0.00001312      -0.00037660       0.00001334
P        3.73253525      -3.82077627       2.02794411      -0.00008320       0.00016412       0.00145158       0.00146320    -212.10294334      -0.00003511       0.00011676      -0.00010893
P       24.15739402      -0.45277005       4.29081554       0.00105843      -0.00207087       0.00086808       0.00248240    -211.57878771      -0.00006480       0.00002438      -0.00012682
P       20.87310522      -0.62695283       1.06679796      -0.00276120       0.00295918       0.01477736       0.01532160    -211.69155364      -0.00025556      -0.00039510       0.00016429
P       22.74624450       2.90665972       2.38514701       0.00070647       0.00156710       0.00293882       0.00340464    -211.96959742       0.00042858      -0.00015114       0.00013504
P       26.39616272       2.95223441       0.11450080      -0.00010155      -0.00010637       0.00171602       0.00172231    -212.07317596      -0.00039433      -0.00014529       0.00004794
P       21.57901344       6.29409027       0.16851658       0.00048666       0.00037653       0.00119859       0.00134730    -212.19103402       0.00032599      -0.00022105      -0.00021822
P       10.74868174     -14.09912278       2.14549093      -0.00014634      -0.00045472       0.00079012       0.00092330    -212.13735901       0.00041496       0.00019736       0.00001431
P        9.62307649     -10.67602714       4.15278104      -0.00005871       0.00003655       0.00026240       0.00027136    -212.13702526       0.00033904       0.00006010       0.00006000
P       20.48382701       9.76785816       2.14794792       0.00066058       0.00091376       0.00088538       0.00143361    -212.14132881       0.00027343       0.00021499       0.00000363
P        8.53459742      -7.21583523       1.97764035       0.00142904       0.00097019       0.00018784       0.00173744    -212.15711997       0.00063180      -0.00042873       0.00010224
P       12.14315367      -7.26251501       3.90338524       0.00039699      -0.00066469      -0.00098654       0.00125406    -212.07750895       0.00029806      -0.00007839       0.00002906
P        7.43185003      -3.74586968       4.03442371       0.00204377       0.00224651       0.00185543       0.00355899    -212.23547206       0.00005185       0.00009165      -0.00025847
P       11.07251574      -3.82755487       1.59858773       0.00100811      -0.00002953      -0.00164743       0.00193163    -212.23802023       0.00014825      -0.00068562      -0.00067985
P        2.38011057      -0.43736375       0.02289217      -0.00316353      -0.00018000       0.00518686       0.00607815    -211.95315386      -0.00005737      -0.00022232       0.00003561
P       27.72345897      -0.44109237       2.07773458      -0.00219402      -0.00111380       0.00122534       0.00274877    -212.01205919       0.00029004      -0.00011625       0.00003337
P       15.55896800     -17.46220142       2.14296620      -0.00000204      -0.00048126       0.00236340       0.00241190    -211.97196895      -0.00015638       0.00010915      -0.00000544
P        4.69711795       3.00802885       0.06743236       0.00000761      -0.00180202       0.00377582       0.00418380    -211.92660144      -0.00002722       0.00017313      -0.00007706
P       14.37858227     -14.07015767       4.17625486       0.00001092      -0.00073602       0.00160621       0.00176685    -212.05103459      -0.00009972       0.00036662       0.00001219
P       17.99702945     -14.04330921       2.09418927      -0.00048953      -0.00142433       0.00267103       0.00306639    -211.93759566      -0.00007873      -0.00002034      -0.00000725
P       16.84948631     -10.66552726       4.05689299      -0.00105669      -0.00073644       0.00060413       0.00142264    -211.99917864      -0.00010647       0.00004271      -0.00008053
P       13.23595588     -10.67862018       1.98446691      -0.00037109      -0.00067249       0.00102675       0.00128225    -212.08153882       0.00015070      -0.00010581       0.00000332
P       15.74189483      -7.27795723       1.78605248      -0.00051089      -0.00029023      -0.00126695       0.00139657    -212.02525747      -0.00013243      -0.00024579       0.00004350
P       19.33862947      -7.26488408       3.92368399      -0.00159262       0.00009962      -0.00093243       0.00184819    -211.95289159       0.00008627      -0.00047989      -0.00006173
P       14.68239482      -3.86274610       3.64646186      -0.00046601      -0.00047587      -0.00112681       0.00130894    -212.11324995      -0.00000224       0.00017462      -0.00012301
P       18.24428606      -3.88615353       1.62453333      -0.00139781      -0.00038337      -0.00104103       0.00178454    -212.09290301      -0.00038247       0.00065545       0.00005186
In       9.87357250      -2.95693977       3.66652644       0.00186070       0.00444325      -0.00210553       0.00525718   -1752.41677943      -0.00020558       0.00039938       0.00065206
In       6.15599985      -2.98380218       1.97381498       0.00161815       0.00190899       0.00199615       0.00320114   -1752.43922657       0.00005365       0.00027791       0.00025439
In       8.13515964       0.68983557       2.48324011       0.00136076      -0.00231104      -0.00098568       0.00285730   -1752.47408928      -0.00005476       0.00017959       0.00061497
In      11.50924574       0.49368796       0.99167747       0.00133820      -0.00309436      -0.00657293       0.00738710   -1752.77032272      -0.00037225      -0.00020331      -0.00007315
In       7.04299812       3.96814529       0.14000206       0.00124947      -0.00130632       0.00165955       0.00245393   -1752.90434135      -0.00014428       0.00002007      -0.00003095
In      10.70105869       3.94304377       2.47977039      -0.00179844      -0.00090450      -0.00428916       0.00473808   -1752.66475061       0.00023457       0.00006102      -0.00015007
In       9.56875107       7.29297432       0.19023236      -0.00271581      -0.00065198      -0.00081731       0.00291010   -1753.01375516      -0.00005310       0.00009431      -0.00006046
In       5.93248183       7.29848303       2.15205726      -0.00050927      -0.00041260       0.00197747       0.00208326   -1753.00577074       0.00000862      -0.00018368      -0.00014293
In       8.43419526      10.63846212       2.09581017      -0.00181956      -0.00118805      -0.00051201       0.00223258   -1753.05213433       0.00004738       0.00016089       0.00008510
In      12.05607833      10.67351819       0.09298700      -0.00078677      -0.00144153      -0.00187413       0.00249186   -1752.97872786       0.00003061      -0.00029303       0.00000508
In      21.75844768      -6.45101601       3.99211248      -0.00228412      -0.00261521      -0.00235739       0.00419688   -1753.14528804      -0.00029768      -0.00032759       0.00021099
In      10.90524826      14.05166388       2.05987939       0.00061368      -0.00253293      -0.00151985       0.00301700   -1753.04396692       0.00047036       0.00006376       0.00007364
In      17.09886820      -2.98158280       3.67428204      -0.00341636      -0.00150952      -0.00149955       0.00402478   -1752.89885009       0.00005900       0.00008984       0.00017122
In      13.51218990      -2.99040000       1.53396646      -0.00094141       0.00030139      -0.00159682       0.00187801   -1752.84412748       0.00043438       0.00055312       0.00012835
In      15.03897604       0.45936781       3.12287278       0.00004696       0.00100343      -0.00474845       0.00485354   -1752.75564648      -0.00007340       0.00003261       0.00015917
In      18.63185486       0.40997806       1.18570246      -0.00499458       0.00455722      -0.00313215       0.00745147   -1752.70481737       0.00010614       0.00037528       0.00019556
In      14.24148930       3.87128471       0.50539460      -0.00312857       0.00025847      -0.00390148       0.00500763   -1752.70451160       0.00021608       0.00026359       0.00011877
In      17.85106787       3.82848199       2.62420935      -0.00194832       0.00340539      -0.00045347       0.00394946   -1752.76832035      -0.00017961       0.00028881       0.00001564
In      16.78640933       7.25450417       0.28171444      -0.00153882       0.00070993       0.00011711       0.00169873   -1752.88704409       0.00018572       0.00006166       0.00014096
In      13.18776407       7.29625905       2.35863831      -0.00285772      -0.00062577      -0.00050271       0.00296831   -1752.93893612      -0.00006898       0.00000815       0.00001877
In      15.68169171      10.66684987       2.19706761      -0.00010489      -0.00071352      -0.00086633       0.00112723   -1752.86690923       0.00024737      -0.00023394       0.00008840
In      19.30101390      10.65414515       0.05941650       0.00067692       0.00232834       0.00074677       0.00253714   -1752.80866536       0.00082075       0.00005183       0.00002594
In      14.52735740      14.05793209       0.00297272       0.00151262      -0.00091935      -0.00146366       0.00229685   -1752.90203841      -0.00005659       0.00033004       0.00020008
In      18.15796586      14.06034034       2.05629448       0.00144812       0.00154212      -0.00093390       0.00231244   -1752.76011468       0.00000789       0.00026050      -0.00002418
In      24.17505247      -2.99255484       4.10121873       0.00150392      -0.00283045       0.00025044       0.00321495   -1752.98100995       0.00061382      -0.00012368       0.00032271
In      20.64672735      -3.02266037       1.78346565      -0.00240271      -0.00532511      -0.00581136       0.00824025   -1753.27364336      -0.00040413       0.00013994      -0.00021594
In      22.83300703       0.34513722       2.27712695       0.00618148       0.00502982       0.00066807       0.00799726   -1752.88758384       0.00011306       0.00012169       0.00003688
In      26.52186720       0.40220528       4.16182113       0.00220542       0.00168987       0.00124041       0.00304272   -1752.95413564       0.00013904      -0.00009568       0.00002779
In      21.48403542       3.70675064       0.32224310      -0.00076319       0.00198309       0.00267436       0.00341574   -1752.98853032      -0.00034579       0.00026311      -0.00005259
In      25.16298540       3.77876402       2.21467142       0.00297258       0.00128319       0.00147991       0.00355991   -1752.87983356      -0.00008728      -0.00034083      -0.00017330
In       9.53517821     -13.24923130       4.23313851       0.00075628       0.00116355       0.00051426       0.00147996   -1752.82815221      -0.00025285      -0.00030054      -0.00012189
In      20.40140254       7.19415797       2.25453085       0.00039458       0.00201996       0.00092763       0.00225752   -1752.83319037       0.00024982      -0.00002251       0.00019230
In       8.44022862      -9.78798582       2.06602098       0.00083521       0.00254134       0.00020720       0.00268308   -1752.78300335      -0.00077759       0.00044893      -0.00007416
In      12.03991019      -9.82026555       4.06313446       0.00006789       0.00029787       0.00102450       0.00106908   -1752.85029991      -0.00030731       0.00022602      -0.00010579
In       7.34688349      -6.33329901       4.06842973       0.00257069       0.00387298       0.00024262       0.00465481   -1752.70675659      -0.00011180      -0.00004591      -0.00002733
In      10.96155695      -6.38459199       1.80583175       0.00117288       0.00234992      -0.00107687       0.00283856   -1752.75864275      -0.00024741       0.00004920      -0.00007384
In       2.49851287      -2.99205248       4.12106855       0.00105546       0.00041944       0.00146199       0.00185131   -1752.85284310       0.00010202       0.00000034       0.00014322
In      13.32764780      17.44925877       2.05199388       0.00160650      -0.00111193       0.00007398       0.00195518   -1752.95511697      -0.00016647       0.00020430      -0.00005336
In       1.19337959       0.42769370       2.11404593       0.00022033      -0.00045457       0.00552106       0.00554413   -1753.00082768      -0.00038581      -0.00028064      -0.00012845
In       4.73705388       0.46096480       0.01531653      -0.00000689      -0.00358250       0.00666198       0.00756414   -1752.82228367       0.00015689      -0.00018271      -0.00001594
In      14.34204870     -16.62051637       4.22998036       0.00211101      -0.00055312       0.00215943       0.00307008   -1752.94294931       0.00033375      -0.00028298      -0.00009312
In       3.49226252       3.85226344       2.14909000       0.00250223      -0.00257761       0.00365999       0.00512843   -1753.05578228      -0.00008003       0.00016904      -0.00001590
In      16.78527467     -13.21017301       4.17014401       0.00113923      -0.00164091       0.00256301       0.00324953   -1752.96766463       0.00015487      -0.00019128      -0.00014585
In      13.16153157     -13.23398816       2.08578953       0.00096615      -0.00044130       0.00150976       0.00184596   -1752.91104629      -0.00010764      -0.00015722      -0.00010340
In      15.64796588      -9.82345823       1.95768883      -0.00051014      -0.00088279       0.00061539       0.00119091   -1752.96156391      -0.00003950       0.00033431       0.00004166
In      19.25263341      -9.79690505       4.08698139      -0.00156894      -0.00137240       0.00006004       0.00208534   -1753.02414843       0.00015255       0.00025641       0.00005699
In      14.56169542      -6.41205261       3.85387371      -0.00100619      -0.00033282      -0.00141706       0.00176953   -1752.90857654      -0.00011507      -0.00024452      -0.00001543
In      18.14865166      -6.41947314       1.81560886      -0.00205582      -0.00183607      -0.00111442       0.00297312   -1753.07996972       0.00004277       0.00010769       0.00016525
96
Lattice="14.453027169969813 20.439668173914434 0.0 14.453027169969813 -20.439668173914434 0.0 0.0 0.0 4.172230053387472" Properties=species:S:1:pos:R:3:x_err:R:1:y_err:R:1:z_err:R:1:total_err:R:1:energies:R:1:forces:R:3 energy=-94314.84200307446 free_energy=-94314.84200307446 stress="0.00040068390142495273 -0.010011658340091076 0.0011892276201024312 -0.010011658340091076 -0.0019265457947812504 0.00026763877513885187 0.0011892276201024312 0.00026763877513885187 0.0036916434596052975" pbc="T T T"
P        8.40695913      -0.71712273      -0.61762381      -0.00082111       0.00134870       0.00782430       0.00798204    -212.29978305      -0.00006817      -0.00012036      -0.00070519
P        6.30770202      -0.68781798       2.74031942       0.00185283       0.00087350      -0.00471498       0.00514072    -211.89430995      -0.00002797      -0.00002274       0.00007942
P        8.89718494       2.85958567       1.92178293      -0.00082281      -0.00061461       0.00323497       0.00339408    -211.79728768       0.00010193      -0.00007390       0.00005485
P       12.51741311       2.94409098      -0.19626565       0.00042233      -0.00106496       0.00419773       0.00435125    -211.93502493      -0.00014166       0.00004990       0.00023365
P        7.40201782       6.28283867      -0.08676020      -0.00151101      -0.00168358       0.00187257       0.00293669    -211.85447570       0.00001473       0.00015882       0.00007090
P       11.01798914       6.37235154       1.98482761       0.00024233      -0.00042242       0.00375253       0.00378400    -211.95264894       0.00023456      -0.00030025      -0.00010798
P        9.61022371       9.81468791      -0.06698623      -0.00062923      -0.00226199       0.00190682       0.00302465    -211.95122437      -0.00023022       0.00010959      -0.00004493
P       20.48606474     -10.64530704       2.02604598      -0.00121210      -0.00103349       0.00136492       0.00209769    -211.91918716      -0.00010150       0.00014979      -0.00012660
P       22.70261087      -7.11982602       2.01310004      -0.00163398      -0.00355367      -0.00011060       0.00391289    -211.90988187      -0.00028580      -0.00011897      -0.00007021
P       11.88905974      13.23674338       0.03921597      -0.00139296      -0.00079939      -0.00103318       0.00190966    -212.00951426       0.00031253      -0.00013026       0.00005344
P       21.35643220      -3.57561482      -0.13089598       0.00049870      -0.00526028       0.00056319       0.00531379    -211.75409679       0.00038620      -0.00009246       0.00018310
P       25.07475442      -3.75725130       2.16525856      -0.00170287      -0.00187488      -0.00845894       0.00882999    -211.91889836      -0.00026340       0.00043780      -0.00007284
P       15.61509438      -0.43305792      -0.31767559       0.00760191      -0.00029532       0.01137015       0.01368052    -212.09687318      -0.00021492      -0.00022468      -0.00007858
P       11.98958006      -0.49002780       1.72303941       0.00355360      -0.00040901       0.00991211       0.01053780    -212.05645001       0.00043807       0.00009718       0.00012149
P       16.08601547       2.99024693       1.90377785      -0.00227805       0.00120081       0.00343869       0.00429605    -212.03908389       0.00009183      -0.00015131      -0.00021327
P       19.62337711       3.11430638      -0.13849962       0.00066036       0.00601030       0.00281968       0.00667161    -212.06684226       0.00023302      -0.00022257      -0.00021300
P       14.63129713       6.40182723      -0.07600007       0.00089886       0.00207317       0.00299385       0.00375088    -212.07654846      -0.00070390      -0.00015877      -0.00014404
P       18.23286368       6.46511999       2.04707966       0.00129225       0.00162503       0.00154685       0.00258908    -212.17505331      -0.00037283      -0.00016180      -0.00029641
P       16.82296308       9.80856685       0.02092920       0.00012964       0.00152635       0.00047062       0.00160251    -212.09954032      -0.00074865      -0.00052785      -0.00005677
P       13.22454241       9.80550772       2.06564873      -0.00026777       0.00059156       0.00094257       0.00114459    -212.02313139       0.00005925       0.00023625       0.00000950
P       15.49444349      13.20587461       2.16248157      -0.00012518       0.00113032      -0.00224637       0.00251783    -212.05181943      -0.00040596       0.00018995      -0.00006839
P       19.06837473      13.13634997       0.11762627      -0.00106411       0.00270463      -0.00136303       0.00321017    -212.11562059       0.00001366      -0.00006129       0.00014161
P       14.26823047      16.62729144       0.12792737      -0.00122739      -0.00065109      -0.00847703       0.00859014    -212.03965895      -0.00001312      -0.00037660       0.00001334
P        3.36807415      -3.87802676       2.24506376       0.00183565       0.00254928      -0.00908899       0.00961656    -212.10294334      -0.00003511       0.00011676      -0.00010893
P       24.16005490      -0.32929532       0.48963272      -0.00475021      -0.00286667       0.00157139       0.00576641    -211.57878771      -0.00006480       0.00002438      -0.00012682
P       19.16767716      -0.36993150       1.53387733       0.00505224      -0.00363173       0.00141181       0.00638027    -211.69155364      -0.00025556      -0.00039510       0.00016429
P       23.18120573       3.12897301       2.15334664       0.00203283       0.00478442       0.00109880       0.00531324    -211.96959742       0.00042858      -0.00015114       0.00013504
P       12.32258071     -17.44773646       0.12603364       0.00410103      -0.00019731      -0.00463523       0.00619215    -212.07317596      -0.00039433      -0.00014529       0.00004794
P       21.84973209       6.51306512       0.09368067       0.00079996       0.00433433       0.00262941       0.00513227    -212.19103402       0.00032599      -0.00022105      -0.00021822
P       11.02426914     -14.04510238       2.19836046      -0.00027647      -0.00177691      -0.00027535       0.00181925    -212.13735901       0.00041496       0.00019736       0.00001431
P        9.66768550     -10.68029256       0.09506906       0.00037019       0.00073755      -0.00084646       0.00118216    -212.13702526       0.00033904       0.00006010       0.00006000
P       20.45758499       9.81549654       2.16667524      -0.00021959       0.00267480      -0.00023768       0.00269431    -212.14132881       0.00027343       0.00021499       0.00000363
P        8.26069769      -7.37663279       2.21632576      -0.00140225       0.00111735      -0.00073854       0.00193913    -212.15711997       0.00063180      -0.00042873       0.00010224
P       11.85368994      -7.30138030      -0.02481052      -0.00150315       0.00073809      -0.00156745       0.00229372    -212.07750895       0.00029806      -0.00007839       0.00002906
P        6.87951965      -4.09307595       0.24869396       0.00305872       0.00305485      -0.00241293       0.00495077    -212.23547206       0.00005185       0.00009165      -0.00025847
P       10.39517135      -3.96910784       1.93433406       0.00290042       0.00123807      -0.00246437       0.00400230    -212.23802023       0.00014825      -0.00068562      -0.00067985
P        2.58070146      -0.44468765       0.30465140      -0.00364772      -0.00087567      -0.01134216       0.01194644    -211.95315386      -0.00005737      -0.00022232       0.00003561
P       27.79994146      -0.41386401       2.35142651      -0.00709045      -0.00151524      -0.01111364       0.01326964    -212.01205919       0.00029004      -0.00011625       0.00003337
P       15.93445667     -17.48736328       2.23854161       0.00176124      -0.00367559      -0.00324919       0.00521240    -211.97196895      -0.00015638       0.00010915      -0.00000544
P        5.15757337       2.89059312       0.15848940      -0.00017246      -0.00253770      -0.00121830       0.00282027    -211.92660144      -0.00002722       0.00017313      -0.00007706
P       14.63225664     -14.06300132       0.08205846      -0.00006090      -0.00133397      -0.00145710       0.00197644    -212.05103459      -0.00009972       0.00036662       0.00001219
P       18.24078624     -14.08910408       2.13684682      -0.00128654      -0.00097237       0.00033240       0.00164657    -211.93759566      -0.00007873      -0.00002034      -0.00000725
P       16.89269794     -10.63474281      -0.00501946      -0.00110456      -0.00094981       0.00030746       0.00148887    -211.99917864      -0.00010647       0.00004271      -0.00008053
P       13.27875707     -10.66590299       2.11805321      -0.00062855      -0.00105589      -0.00106025       0.00162300    -212.08153882       0.00015070      -0.00010581       0.00000332
P       15.45335486      -7.23188756       2.03064015      -0.00225329      -0.00093182       0.00089623       0.00259785    -212.02525747      -0.00013243      -0.00024579       0.00004350
P       19.10729684      -7.15477233      -0.07702117      -0.00245465      -0.00211882       0.00109638       0.00342298    -211.95289159       0.00008627      -0.00047989      -0.00006173
P       13.94817163      -3.84277498      -0.14094172       0.00332501       0.00030174       0.00418010       0.00534976    -212.11324995      -0.00000224       0.00017462      -0.00012301
P       17.59241478      -3.77895044       1.97234019       0.00205403      -0.00157481       0.00608114       0.00660903    -212.09290301      -0.00038247       0.00065545       0.00005186
In       9.17198132      -3.17253495      -0.16402587       0.00394543       0.00392423      -0.00199158       0.00591036   -1752.41677943      -0.00020558       0.00039938       0.00065206
In       5.77874310      -3.18380169       2.35996341       0.00283307       0.00262281      -0.00275161       0.00474097   -1752.43922657       0.00005365       0.00027791       0.00025439
In       9.49271686       0.36532637       1.55642983       0.00100708      -0.00178675       0.00759786       0.00786982   -1752.47408928      -0.00005476       0.00017959       0.00061497
In      13.13172271       0.42317678      -0.35007841       0.00324246      -0.00204632       0.00868204       0.00949098   -1752.77032272      -0.00037225      -0.00020331      -0.00007315
In       7.60857003       3.68129474      -0.12253915      -0.00023699      -0.00339453       0.00178764       0.00384378   -1752.90434135      -0.00014428       0.00002007      -0.00003095
In      11.27503934       3.81224941       1.90646813      -0.00278245      -0.00089650       0.00428537       0.00518750   -1752.66475061       0.00023457       0.00006102      -0.00015007
In       9.77141441       7.22721354      -0.09612075      -0.00258881      -0.00286727       0.00330051       0.00508100   -1753.01375516      -0.00005310       0.00009431      -0.00006046
In       6.19417614       7.20331292       2.01097798      -0.00067863      -0.00157435       0.00113716       0.00205724   -1753.00577074       0.00000862      -0.00018368      -0.00014293