24
Lattice="5.900843966712281 0.0 0.0 0.0 5.900843966712281 0.0 0.0 0.0 17.702531900136844" Properties=species:S:1:pos:R:3 energy=-23579.779980037747 pbc="T T T"
P        4.42563298       1.47521099       1.47521099
In       2.95042198       0.00000000       2.95042198
P        1.47521099       1.47521099       4.42563298
P        4.42563298       4.42563298       4.42563298
In       2.95042198       2.95042198       0.00000000
P        1.47521099       4.42563298       1.47521099
In       0.00000000       0.00000000       0.00000000
In       0.00000000       2.95042198       2.95042198
P        4.42563298       1.47521099       7.37605496
In       2.95042198       0.00000000       8.85126595
P        1.47521099       1.47521099      10.32647694
P        4.42563298       4.42563298      10.32647694
In       2.95042198       2.95042198       5.90084397
P        1.47521099       4.42563298       7.37605496
In       0.00000000       0.00000000       5.90084397
In       0.00000000       2.95042198       8.85126595
P        4.42563298       1.47521099      13.27689893
In       2.95042198       0.00000000      14.75210992
P        1.47521099       1.47521099      16.22732091
P        4.42563298       4.42563298      16.22732091
In       2.95042198       2.95042198      11.80168793
P        1.47521099       4.42563298      13.27689893
In       0.00000000       0.00000000      11.80168793
In       0.00000000       2.95042198      14.75210992
24
Lattice="5.900843966712281 0.0 0.0 0.0 5.900843966712281 0.0 0.0 0.0737605495839034 17.702531900136844" Properties=species:S:1:pos:R:3 energy=-23579.756206539994 pbc="T T T"
P        4.42563298       1.47521099       1.47663560
In       2.95042198      -0.00000000       2.95177433
P        1.47521099       1.47521099       4.42646955
P        4.42563298       4.42563298       4.42646955
In       2.95042198       2.95042198       0.00192059
P        1.47521099       4.42563298       1.47663560
In       0.00000000      -0.00000000       0.00192059
In       0.00000000       2.95042198       2.95177433
P        4.42563298       1.47521099       7.37623562
In       2.95042198      -0.00000000       8.85115145
P        1.47521099       1.47521099      10.32599838
P        4.42563298       4.42563298      10.32599838
In       2.95042198       2.95042198       5.90138828
P        1.47521099       4.42563298       7.37623562
In       0.00000000      -0.00000000       5.90138828
In       0.00000000       2.95042198       8.85115145
P        4.42563298       1.47521099      13.27559872
In       2.95042198      -0.00000000      14.75069271
P        1.47521099       1.47521099      16.22513767
P        4.42563298       4.42563298      16.22513767
In       2.95042198       2.95042198      11.80092255
P        1.47521099       4.42563298      13.27559872
In       0.00000000      -0.00000000      11.80092255
In       0.00000000       2.95042198      14.75069271
24
Lattice="5.900843966712281 0.0 0.0 0.0 5.900843966712281 0.0 0.0 0.14752109916780679 17.702531900136844" Properties=species:S:1:pos:R:3 energy=-23579.68638730935 pbc="T T T"
P        4.42563298       1.47521099       1.48064379
In       2.95042198      -0.00000000       2.95561580
P        1.47521099       1.47521099       4.42901576
P        4.42563298       4.42563298       4.42901576
In       2.95042198       2.95042198       0.00748331
P        1.47521099       4.42563298       1.48064379
In       0.00000000      -0.00000000       0.00748331
In       0.00000000       2.95042198       2.95561580
P        4.42563298       1.47521099       7.37675502
In       2.95042198      -0.00000000       8.85089649
P        1.47521099       1.47521099      10.32435112
P        4.42563298       4.42563298      10.32435112
In       2.95042198       2.95042198       5.90318449
P        1.47521099       4.42563298       7.37675502
In       0.00000000      -0.00000000       5.90318449
In       0.00000000       2.95042198       8.85089649
P        4.42563298       1.47521099      13.27189990
In       2.95042198      -0.00000000      14.74670639
P        1.47521099       1.47521099      16.21883329
P        4.42563298       4.42563298      16.21883329
In       2.95042198       2.95042198      11.79854008
P        1.47521099       4.42563298      13.27189990
In       0.00000000      -0.00000000      11.79854008
In       0.00000000       2.95042198      14.74670639
24
Lattice="5.900843966712281 0.0 0.0 0.0 5.900843966712281 0.0 0.0 0.2212816487517103 17.702531900136844" Properties=species:S:1:pos:R:3 energy=-23579.57474238636 pbc="T T T"
P        4.42563298       1.47521099       1.48692929
In       2.95042198      -0.00000000       2.96165852
P        1.47521099       1.47521099       4.43288377
P        4.42563298       4.42563298       4.43288377
In       2.95042198       2.95042198       0.01624490
P        1.47521099       4.42563298       1.48692929
In       0.00000000      -0.00000000       0.01624490
In       0.00000000       2.95042198       2.96165852
P        4.42563298       1.47521099       7.37765970
In       2.95042198      -0.00000000       8.85035889
P        1.47521099       1.47521099      10.32188658
P        4.42563298       4.42563298      10.32188658
In       2.95042198       2.95042198       5.90592415
P        1.47521099       4.42563298       7.37765970
In       0.00000000      -0.00000000       5.90592415
In       0.00000000       2.95042198       8.85035889
P        4.42563298       1.47521099      13.26605151
In       2.95042198      -0.00000000      14.74042764
P        1.47521099       1.47521099      16.20895214
P        4.42563298       4.42563298      16.20895214
In       2.95042198       2.95042198      11.79494836
P        1.47521099       4.42563298      13.26605151
In       0.00000000      -0.00000000      11.79494836
In       0.00000000       2.95042198      14.74042764
24
Lattice="5.900843966712281 0.0 0.0 0.0 5.900843966712281 0.0 0.0 0.2950421983356135 17.702531900136844" Properties=species:S:1:pos:R:3 energy=-23579.427476981353 pbc="T T T"
P        4.42563298       1.47521099       1.49522361
In       2.95042198       0.00000000       2.96955329
P        1.47521099       1.47521099       4.43800207
P        4.42563298       4.42563298       4.43800207
In       2.95042198       2.95042198       0.02756210
P        1.47521099       4.42563298       1.49522361
In       0.00000000       0.00000000       0.02756210
In       0.00000000       2.95042198       2.96955329
P        4.42563298       1.47521099       7.37878876
In       2.95042198       0.00000000       8.84973171
P        1.47521099       1.47521099      10.31867265
P        4.42563298       4.42563298      10.31867265
In       2.95042198       2.95042198       5.90948601
P        1.47521099       4.42563298       7.37878876
In       0.00000000       0.00000000       5.90948601
In       0.00000000       2.95042198       8.84973171
P        4.42563298       1.47521099      13.25847412
In       2.95042198       0.00000000      14.73213143
P        1.47521099       1.47521099      16.19619304
P        4.42563298       4.42563298      16.19619304
In       2.95042198       2.95042198      11.79010668
P        1.47521099       4.42563298      13.25847412
In       0.00000000       0.00000000      11.79010668
In       0.00000000       2.95042198      14.73213143
24
Lattice="5.900843966712281 0.0 0.0 0.0 5.900843966712281 0.0 0.0 0.36880274791951756 17.702531900136844" Properties=species:S:1:pos:R:3 energy=-23579.251874045527 pbc="T T T"
P        4.42563298       1.47521099       1.50505448
In       2.95042198       0.00000000       2.97891162
P        1.47521099       1.47521099       4.44403858
P        4.42563298       4.42563298       4.44403858
In       2.95042198       2.95042198       0.04076722
P        1.47521099       4.42563298       1.50505448
In       0.00000000       0.00000000       0.04076723
In       0.00000000       2.95042198       2.97891162
P        4.42563298       1.47521099       7.38013959
In       2.95042198       0.00000000       8.84896521
P        1.47521099       1.47521099      10.31483483
P        4.42563298       4.42563298      10.31483483
In       2.95042198       2.95042198       5.91369544
P        1.47521099       4.42563298       7.38013959
In       0.00000000       0.00000000       5.91369544
In       0.00000000       2.95042198       8.84896521
P        4.42563298       1.47521099      13.24945098
In       2.95042198       0.00000000      14.72231322
P        1.47521099       1.47521099      16.18142994
P        4.42563298       4.42563298      16.18142994
In       2.95042198       2.95042198      11.78432435
P        1.47521099       4.42563298      13.24945098
In       0.00000000       0.00000000      11.78432435
In       0.00000000       2.95042198      14.72231322
24
Lattice="5.900843966712281 0.0 0.0 0.0 5.900843966712281 0.0 0.0 0.44256329750342055 17.702531900136844" Properties=species:S:1:pos:R:3 energy=-23579.055505018736 pbc="T T T"
P        4.42563298       1.47521099       1.51617368
In       2.95042198       0.00000000       2.98956984
P        1.47521099       1.47521099       4.45082370
P        4.42563298       4.42563298       4.45082370
In       2.95042198       2.95042198       0.05534084
P        1.47521099       4.42563298       1.51617368
In       0.00000000       0.00000000       0.05534084
In       0.00000000       2.95042198       2.98956984
P        4.42563298       1.47521099       7.38162997
In       2.95042198       0.00000000       8.84801327
P        1.47521099       1.47521099      10.31043293
P        4.42563298       4.42563298      10.31043293
In       2.95042198       2.95042198       5.91839502
P        1.47521099       4.42563298       7.38162997
In       0.00000000       0.00000000       5.91839502
In       0.00000000       2.95042198       8.84801327
P        4.42563298       1.47521099      13.23926422
In       2.95042198       0.00000000      14.71122796
P        1.47521099       1.47521099      16.16545373
P        4.42563298       4.42563298      16.16545373
In       2.95042198       2.95042198      11.77760030
P        1.47521099       4.42563298      13.23926422
In       0.00000000       0.00000000      11.77760030
In       0.00000000       2.95042198      14.71122796
24
Lattice="5.900843966712281 0.0 0.0 0.0 5.900843966712281 0.0 0.0 0.5163238470873246 17.702531900136844" Properties=species:S:1:pos:R:3 energy=-23578.845599897562 pbc="T T T"
P        4.42563298       1.47521099       1.52774207
In       2.95042198       0.00000000       3.00055216
P        1.47521099       1.47521099       4.45796465
P        4.42563298       4.42563298       4.45796465
In       2.95042198       2.95042198       0.07022596
P        1.47521099       4.42563298       1.52774207
In       0.00000000       0.00000000       0.07022596
In       0.00000000       2.95042198       3.00055216
P        4.42563298       1.47521099       7.38321462
In       2.95042198       0.00000000       8.84705620
P        1.47521099       1.47521099      10.30593900
P        4.42563298       4.42563298      10.30593900
In       2.95042198       2.95042198       5.92330830
P        1.47521099       4.42563298       7.38321462
In       0.00000000       0.00000000       5.92330830
In       0.00000000       2.95042198       8.84705620
P        4.42563298       1.47521099      13.22870450
In       2.95042198       0.00000000      14.69970143
P        1.47521099       1.47521099      16.14877508
P        4.42563298       4.42563298      16.14877509
In       2.95042198       2.95042198      11.77074150
P        1.47521099       4.42563298      13.22870450
In       0.00000000       0.00000000      11.77074150
In       0.00000000       2.95042198      14.69970143
24
Lattice="5.900843966712281 0.0 0.0 0.0 5.900843966712281 0.0 0.0 0.5900843966712268 17.702531900136844" Properties=species:S:1:pos:R:3 energy=-23578.628433480022 pbc="T T T"
P        4.42563298       1.47521099       1.53957602
In       2.95042198      -0.00000000       3.01179772
P        1.47521099       1.47521099       4.46534934
P        4.42563298       4.42563298       4.46534934
In       2.95042198       2.95042198       0.08503365
P        1.47521099       4.42563298       1.53957602
In       0.00000000      -0.00000000       0.08503365
In       0.00000000       2.95042198       3.01179772
P        4.42563298       1.47521099       7.38492465
In       2.95042198      -0.00000000       8.84613007
P        1.47521099       1.47521099      10.30141165
P        4.42563298       4.42563298      10.30141165
In       2.95042198       2.95042198       5.92841376
P        1.47521099       4.42563298       7.38492465
In       0.00000000      -0.00000000       5.92841376
In       0.00000000       2.95042198       8.84613007
P        4.42563298       1.47521099      13.21786606
In       2.95042198      -0.00000000      14.68777233
P        1.47521099       1.47521099      16.13193317
P        4.42563298       4.42563298      16.13193317
In       2.95042198       2.95042198      11.76371703
P        1.47521099       4.42563298      13.21786606
In       0.00000000      -0.00000000      11.76371703
In       0.00000000       2.95042198      14.68777233
24
Lattice="5.900843966712281 0.0 0.0 0.0 5.900843966712281 0.0 0.0 0.6638449462551316 17.702531900136844" Properties=species:S:1:pos:R:3 energy=-23578.409353940217 pbc="T T T"
P        4.42563298       1.47521099       1.55145358
In       2.95042198       0.00000000       3.02316653
P        1.47521099       1.47521099       4.47289241
P        4.42563298       4.42563298       4.47289241
In       2.95042198       2.95042198       0.09937082
P        1.47521099       4.42563298       1.55145358
In       0.00000000       0.00000000       0.09937083
In       0.00000000       2.95042198       3.02316653
P        4.42563298       1.47521099       7.38677611
In       2.95042198       0.00000000       8.84526567
P        1.47521099       1.47521099      10.29691987
P        4.42563298       4.42563298      10.29691987
In       2.95042198       2.95042198       5.93367821
P        1.47521099       4.42563298       7.38677611
In       0.00000000       0.00000000       5.93367821
In       0.00000000       2.95042198       8.84526567
P        4.42563298       1.47521099      13.20690640
In       2.95042198       0.00000000      14.67556882
P        1.47521099       1.47521099      16.11532972
P        4.42563298       4.42563298      16.11532972
In       2.95042198       2.95042198      11.75659731
P        1.47521099       4.42563298      13.20690640
In       0.00000000       0.00000000      11.75659731
In       0.00000000       2.95042198      14.67556882
24
Lattice="5.900843966712281 0.0 0.0 0.0 5.900843966712281 0.0 0.0 0.7376054958390351 17.702531900136844" Properties=species:S:1:pos:R:3 energy=-23578.192513881168 pbc="T T T"
P        4.42563298       1.47521099       1.56316971
In       2.95042198       0.00000000       3.03446570
P        1.47521099       1.47521099       4.48042558
P        4.42563298       4.42563298       4.48042558
In       2.95042198       2.95042198       0.11293152
P        1.47521099       4.42563298       1.56316971
In       0.00000000       0.00000000       0.11293152
In       0.00000000       2.95042198       3.03446570
P        4.42563298       1.47521099       7.38869143
In       2.95042198       0.00000000       8.84443801
P        1.47521099       1.47521099      10.29252545
P        4.42563298       4.42563298      10.29252545
In       2.95042198       2.95042198       5.93897672
P        1.47521099       4.42563298       7.38869143
In       0.00000000       0.00000000       5.93897672
In       0.00000000       2.95042198       8.84443801
P        4.42563298       1.47521099      13.19607625
In       2.95042198       0.00000000      14.66334495
P        1.47521099       1.47521099      16.09934310
P        4.42563298       4.42563298      16.09934310
In       2.95042198       2.95042198      11.74953704
P        1.47521099       4.42563298      13.19607625
In       0.00000000       0.00000000      11.74953704
In       0.00000000       2.95042198      14.66334495
24
Lattice="5.900843966712281 0.0 0.0 0.0 5.900843966712281 0.0 0.0 0.8113660454229387 17.702531900136844" Properties=species:S:1:pos:R:3 energy=-23577.981010501957 pbc="T T T"
P        4.42563298       1.47521099       1.57443032
In       2.95042198       0.00000000       3.04540284
P        1.47521099       1.47521099       4.48775485
P        4.42563298       4.42563298       4.48775485
In       2.95042198       2.95042198       0.12530579
P        1.47521099       4.42563298       1.57443032
In       0.00000000       0.00000000       0.12530579
In       0.00000000       2.95042198       3.04540284
P        4.42563298       1.47521099       7.39063445
In       2.95042198       0.00000000       8.84368715
P        1.47521099       1.47521099      10.28835540
P        4.42563298       4.42563298      10.28835540
In       2.95042198       2.95042198       5.94418451
P        1.47521099       4.42563298       7.39063445
In       0.00000000       0.00000000       5.94418451
In       0.00000000       2.95042198       8.84368715
P        4.42563298       1.47521099      13.18567370
In       2.95042198       0.00000000      14.65139902
P        1.47521099       1.47521099      16.08434650
P        4.42563298       4.42563298      16.08434651
In       2.95042198       2.95042198      11.74275089
P        1.47521099       4.42563298      13.18567371
In       0.00000000       0.00000000      11.74275089
In       0.00000000       2.95042198      14.65139902
24
Lattice="5.900843966712281 0.0 0.0 0.0 5.900843966712281 0.0 0.0 0.8851265950068408 17.702531900136844" Properties=species:S:1:pos:R:3 energy=-23577.776968097995 pbc="T T T"
P        4.42563298       1.47521099       1.58513505
In       2.95042198       0.00000000       3.05583727
P        1.47521099       1.47521099       4.49482306
P        4.42563298       4.42563298       4.49482306
In       2.95042198       2.95042198       0.13642445
P        1.47521099       4.42563298       1.58513505
In       0.00000000       0.00000000       0.13642445
In       0.00000000       2.95042198       3.05583727
P        4.42563298       1.47521099       7.39260397
In       2.95042198       0.00000000       8.84303445
P        1.47521099       1.47521099      10.28445957
P        4.42563298       4.42563298      10.28445957
In       2.95042198       2.95042198       5.94924442
P        1.47521099       4.42563298       7.39260397
In       0.00000000       0.00000000       5.94924442
In       0.00000000       2.95042198       8.84303445
P        4.42563298       1.47521099      13.17581438
In       2.95042198       0.00000000      14.63986564
P        1.47521099       1.47521099      16.07035739
P        4.42563298       4.42563298      16.07035739
In       2.95042198       2.95042198      11.73632581
P        1.47521099       4.42563298      13.17581438
In       0.00000000       0.00000000      11.73632581
In       0.00000000       2.95042198      14.63986564
24
Lattice="5.900843966712281 0.0 0.0 0.0 5.900843966712281 0.0 0.0 0.9588871445907456 17.702531900136844" Properties=species:S:1:pos:R:3 energy=-23577.58084623359 pbc="T T T"
P        4.42563298       1.47521099       1.59517118
In       2.95042198       0.00000000       3.06566668
P        1.47521099       1.47521099       4.50146791
P        4.42563298       4.42563298       4.50146791
In       2.95042198       2.95042198       0.14627142
P        1.47521099       4.42563298       1.59517118
In       0.00000000       0.00000000       0.14627142
In       0.00000000       2.95042198       3.06566668
P        4.42563298       1.47521099       7.39448726
In       2.95042198       0.00000000       8.84250370
P        1.47521099       1.47521099      10.28092944
P        4.42563298       4.42563298      10.28092944
In       2.95042198       2.95042198       5.95403626
P        1.47521099       4.42563298       7.39448726
In       0.00000000       0.00000000       5.95403626
In       0.00000000       2.95042198       8.84250370
P        4.42563298       1.47521099      13.16664635
In       2.95042198       0.00000000      14.62895843
P        1.47521099       1.47521099      16.05742406
P        4.42563298       4.42563298      16.05742407
In       2.95042198       2.95042198      11.73036273
P        1.47521099       4.42563298      13.16664635
In       0.00000000       0.00000000      11.73036273
In       0.00000000       2.95042198      14.62895843
24
Lattice="5.900843966712281 0.0 0.0 0.0 5.900843966712281 0.0 0.0 1.0326476941746492 17.702531900136844" Properties=species:S:1:pos:R:3 energy=-23577.39275047707 pbc="T T T"
P        4.42563298       1.47521099       1.60382148
In       2.95042198       0.00000000       3.07423141
P        1.47521099       1.47521099       4.50731897
P        4.42563298       4.42563298       4.50731897
In       2.95042198       2.95042198       0.15442771
P        1.47521099       4.42563298       1.60382148
In       0.00000000       0.00000000       0.15442772
In       0.00000000       2.95042198       3.07423141
P        4.42563298       1.47521099       7.39623092
In       2.95042198       0.00000000       8.84210928
P        1.47521099       1.47521099      10.27797355
P        4.42563298       4.42563298      10.27797355
In       2.95042198       2.95042198       5.95829761
P        1.47521099       4.42563298       7.39623092
In       0.00000000       0.00000000       5.95829761
In       0.00000000       2.95042198       8.84210928
P        4.42563298       1.47521099      13.15912111
In       2.95042198       0.00000000      14.61932031
P        1.47521099       1.47521099      16.04555501
P        4.42563298       4.42563298      16.04555502
In       2.95042198       2.95042198      11.72551810
P        1.47521099       4.42563298      13.15912111
In       0.00000000       0.00000000      11.72551810
In       0.00000000       2.95042198      14.61932031
24
Lattice="5.900843966712281 0.0 0.0 0.0 5.900843966712281 0.0 0.0 1.1064082437585527 17.702531900136844" Properties=species:S:1:pos:R:3 energy=-23577.21314025685 pbc="T T T"
P        4.42563298       1.47521099       1.61218623
In       2.95042198       0.00000000       3.08199020
P        1.47521099       1.47521099       4.51274756
P        4.42563298       4.42563298       4.51274756
In       2.95042198       2.95042198       0.16189462
P        1.47521099       4.42563298       1.61218623
In       0.00000000       0.00000000       0.16189462
In       0.00000000       2.95042198       3.08199020
P        4.42563298       1.47521099       7.39785193
In       2.95042198       0.00000000       8.84166734
P        1.47521099       1.47521099      10.27522959
P        4.42563298       4.42563298      10.27522959
In       2.95042198       2.95042198       5.96220008
P        1.47521099       4.42563298       7.39785193
In       0.00000000       0.00000000       5.96220008
In       0.00000000       2.95042198       8.84166734
P        4.42563298       1.47521099      13.15215562
In       2.95042198       0.00000000      14.61006660
P        1.47521099       1.47521099      16.03496056
P        4.42563298       4.42563298      16.03496056
In       2.95042198       2.95042198      11.72097512
P        1.47521099       4.42563298      13.15215562
In       0.00000000       0.00000000      11.72097512
In       0.00000000       2.95042198      14.61006660
24
Lattice="5.900843966712281 0.0 0.0 0.0 5.900843966712281 0.0 0.0 1.1801687933424536 17.702531900136844" Properties=species:S:1:pos:R:3 energy=-23577.041946576803 pbc="T T T"
P        4.42563298       1.47521099       1.62059987
In       2.95042198       0.00000000       3.08956146
P        1.47521099       1.47521099       4.51811080
P        4.42563298       4.42563298       4.51811080
In       2.95042198       2.95042198       0.16862390
P        1.47521099       4.42563298       1.62059987
In       0.00000000       0.00000000       0.16862390
In       0.00000000       2.95042198       3.08956146
P        4.42563298       1.47521099       7.39943341
In       2.95042198       0.00000000       8.84119893
P        1.47521099       1.47521099      10.27248380
P        4.42563298       4.42563298      10.27248380
In       2.95042198       2.95042198       5.96595149
P        1.47521099       4.42563298       7.39943341
In       0.00000000       0.00000000       5.96595149
In       0.00000000       2.95042198       8.84119893
P        4.42563298       1.47521099      13.14516191
In       2.95042198       0.00000000      14.60100417
P        1.47521099       1.47521099      16.02530131
P        4.42563298       4.42563298      16.02530132
In       2.95042198       2.95042198      11.71649437
P        1.47521099       4.42563298      13.14516191
In       0.00000000       0.00000000      11.71649437
In       0.00000000       2.95042198      14.60100417
24
Lattice="5.900843966712281 0.0 0.0 0.0 5.900843966712281 0.0 0.0 1.2539293429263572 17.702531900136844" Properties=species:S:1:pos:R:3 energy=-23576.87808442898 pbc="T T T"
P        4.42563298       1.47521099       1.62893132
In       2.95042198       0.00000000       3.09692814
P        1.47521099       1.47521099       4.52340808
P        4.42563298       4.42563298       4.52340808
In       2.95042198       2.95042198       0.17450168
P        1.47521099       4.42563298       1.62893132
In       0.00000000       0.00000000       0.17450168
In       0.00000000       2.95042198       3.09692814
P        4.42563298       1.47521099       7.40094029
In       2.95042198       0.00000000       8.84069637
P        1.47521099       1.47521099      10.26984643
P        4.42563298       4.42563298      10.26984643
In       2.95042198       2.95042198       5.96956276
P        1.47521099       4.42563298       7.40094029
In       0.00000000       0.00000000       5.96956276
In       0.00000000       2.95042198       8.84069637
P        4.42563298       1.47521099      13.13833488
In       2.95042198       0.00000000      14.59223029
P        1.47521099       1.47521099      16.01643857
P        4.42563298       4.42563298      16.01643858
In       2.95042198       2.95042198      11.71210664
P        1.47521099       4.42563298      13.13833488
In       0.00000000       0.00000000      11.71210664
In       0.00000000       2.95042198      14.59223029
24
Lattice="5.900843966712281 0.0 0.0 0.0 5.900843966712281 0.0 0.0 1.3276898925102631 17.702531900136844" Properties=species:S:1:pos:R:3 energy=-23576.720444795 pbc="T T T"
P        4.42563298       1.47521099       1.63708205
In       2.95042198       0.00000000       3.10395249
P        1.47521099       1.47521099       4.52858773
P        4.42563298       4.42563298       4.52858773
In       2.95042198       2.95042198       0.17948094
P        1.47521099       4.42563298       1.63708205
In       0.00000000       0.00000000       0.17948094
In       0.00000000       2.95042198       3.10395249
P        4.42563298       1.47521099       7.40237667
In       2.95042198       0.00000000       8.84019944
P        1.47521099       1.47521099      10.26733584
P        4.42563298       4.42563298      10.26733584
In       2.95042198       2.95042198       5.97296953
P        1.47521099       4.42563298       7.40237667
In       0.00000000       0.00000000       5.97296953
In       0.00000000       2.95042198       8.84019944
P        4.42563298       1.47521099      13.13172026
In       2.95042198       0.00000000      14.58387097
P        1.47521099       1.47521099      16.00843906
P        4.42563298       4.42563298      16.00843907
In       2.95042198       2.95042198      11.70791046
P        1.47521099       4.42563298      13.13172026
In       0.00000000       0.00000000      11.70791046
In       0.00000000       2.95042198      14.58387097
24
Lattice="5.900843966712281 0.0 0.0 0.0 5.900843966712281 0.0 0.0 1.401450442094167 17.702531900136844" Properties=species:S:1:pos:R:3 energy=-23576.567800376757 pbc="T T T"
P        4.42563298       1.47521099       1.64497539
In       2.95042198       0.00000000       3.11058432
P        1.47521099       1.47521099       4.53362418
P        4.42563298       4.42563298       4.53362418
In       2.95042198       2.95042198       0.18354388
P        1.47521099       4.42563298       1.64497539
In       0.00000000       0.00000000       0.18354388
In       0.00000000       2.95042198       3.11058432
P        4.42563298       1.47521099       7.40372756
In       2.95042198       0.00000000       8.83971717
P        1.47521099       1.47521099      10.26496472
P        4.42563298       4.42563298      10.26496472
In       2.95042198       2.95042198       5.97614168
P        1.47521099       4.42563298       7.40372756
In       0.00000000       0.00000000       5.97614168
In       0.00000000       2.95042198       8.83971717
P        4.42563298       1.47521099      13.12536432
In       2.95042198       0.00000000      14.57599585
P        1.47521099       1.47521099      16.00138246
P        4.42563298       4.42563298      16.00138246
In       2.95042198       2.95042198      11.70390389
P        1.47521099       4.42563298      13.12536433
In       0.00000000       0.00000000      11.70390389
In       0.00000000       2.95042198      14.57599585
24
Lattice="5.900843966712281 0.0 0.0 0.0 5.900843966712281 0.0 0.0 1.4752109916780702 17.702531900136844" Properties=species:S:1:pos:R:3 energy=-23576.418923411173 pbc="T T T"
P        4.42563298       1.47521099       1.65252819
In       2.95042198       0.00000000       3.11684128
P        1.47521099       1.47521099       4.53859987
P        4.42563298       4.42563298       4.53859987
In       2.95042198       2.95042198       0.18656970
P        1.47521099       4.42563298       1.65252819
In       0.00000000       0.00000000       0.18656970