24
Lattice="5.900843966712281 0.0 0.0 0.0 4.17252678358598 0.0 0.0 0.0 25.035160701515878" Properties=species:S:1:pos:R:3 energy=-23579.779980037747 pbc="T T T"
P        4.42563298       2.08626339       0.00000000
In       0.00000000       0.00000000       0.00000000
P        1.47521099       0.00000000       2.08626339
In       2.95042198       2.08626339       2.08626339
P        4.42563298       2.08626339       4.17252678
In       0.00000000       0.00000000       4.17252678
P        1.47521099       0.00000000       6.25879018
In       2.95042198       2.08626339       6.25879018
P        4.42563298       2.08626339       8.34505357
In       0.00000000       0.00000000       8.34505357
P        1.47521099       0.00000000      10.43131696
In       2.95042198       2.08626339      10.43131696
P        4.42563298       2.08626339      12.51758035
In       0.00000000       0.00000000      12.51758035
P        1.47521099       0.00000000      14.60384374
In       2.95042198       2.08626339      14.60384374
P        4.42563298       2.08626339      16.69010713
In       0.00000000       0.00000000      16.69010713
P        1.47521099       0.00000000      18.77637053
In       2.95042198       2.08626339      18.77637053
P        4.42563298       2.08626339      20.86263392
In       0.00000000       0.00000000      20.86263392
P        1.47521099       0.00000000      22.94889731
In       2.95042198       2.08626339      22.94889731
24
Lattice="5.900843966712281 0.0 0.0 0.0 4.17252678358598 0.0 0.0 0.05215658479482475 25.035160701515878" Properties=species:S:1:pos:R:3 energy=-23579.77817776009 pbc="T T T"
P        4.42563298       2.08626339      -0.00021844
In       0.00000000       0.00000000      -0.00014837
P        1.47521099       0.00000000       2.08627342
In       2.95042198       2.08626339       2.08627111
P        4.42563298       2.08626339       4.17253827
In       0.00000000       0.00000000       4.17252701
P        1.47521099       0.00000000       6.25878151
In       2.95042198       2.08626339       6.25878984
P        4.42563298       2.08626339       8.34505357
In       0.00000000       0.00000000       8.34505357
P        1.47521099       0.00000000      10.43131696
In       2.95042198       2.08626339      10.43131696
P        4.42563298       2.08626339      12.51758035
In       0.00000000       0.00000000      12.51758035
P        1.47521099       0.00000000      14.60384374
In       2.95042198       2.08626339      14.60384374
P        4.42563298       2.08626339      16.69011580
In       0.00000000       0.00000000      16.69010747
P        1.47521099       0.00000000      18.77635904
In       2.95042198       2.08626339      18.77637030
P        4.42563298       2.08626339      20.86262389
In       0.00000000       0.00000000      20.86262620
P        1.47521099       0.00000000      22.94911575
In       2.95042198       2.08626339      22.94904568
24
Lattice="5.900843966712281 0.0 0.0 0.0 4.17252678358598 0.0 0.0 0.1043131695896495 25.035160701515878" Properties=species:S:1:pos:R:3 energy=-23579.772834414398 pbc="T T T"
P        4.42563298       2.08626339      -0.00074358
In       0.00000000       0.00000000      -0.00046239
P        1.47521099       0.00000000       2.08614727
In       2.95042198       2.08626339       2.08612597
P        4.42563298       2.08626339       4.17255842
In       0.00000000       0.00000000       4.17252048
P        1.47521099       0.00000000       6.25876269
In       2.95042198       2.08626339       6.25880492
P        4.42563298       2.08626339       8.34504909
In       0.00000000       0.00000000       8.34504409
P        1.47521099       0.00000000      10.43131528
In       2.95042198       2.08626339      10.43131695
P        4.42563298       2.08626339      12.51758203
In       0.00000000       0.00000000      12.51758036
P        1.47521099       0.00000000      14.60384822
In       2.95042198       2.08626339      14.60385322
P        4.42563298       2.08626339      16.69013462
In       0.00000000       0.00000000      16.69009239
P        1.47521099       0.00000000      18.77633889
In       2.95042198       2.08626339      18.77637683
P        4.42563298       2.08626339      20.86275004
In       0.00000000       0.00000000      20.86277134
P        1.47521099       0.00000000      22.94964089
In       2.95042198       2.08626339      22.94935970
24
Lattice="5.900843966712281 0.0 0.0 0.0 4.17252678358598 0.0 0.0 0.15646975438447425 25.035160701515878" Properties=species:S:1:pos:R:3 energy=-23579.76413958108 pbc="T T T"
P        4.42563298       2.08626339      -0.00201669
In       0.00000000       0.00000000      -0.00091067
P        1.47521099       0.00000000       2.08561932
In       2.95042198       2.08626339       2.08531193
P        4.42563298       2.08626339       4.17189338
In       0.00000000       0.00000000       4.17202519
P        1.47521099       0.00000000       6.25835072
In       2.95042198       2.08626339       6.25838218
P        4.42563298       2.08626339       8.34486874
In       0.00000000       0.00000000       8.34485995
P        1.47521099       0.00000000      10.43125867
In       2.95042198       2.08626339      10.43131691
P        4.42563298       2.08626339      12.51763864
In       0.00000000       0.00000000      12.51758040
P        1.47521099       0.00000000      14.60402857
In       2.95042198       2.08626339      14.60403736
P        4.42563298       2.08626339      16.69054659
In       0.00000000       0.00000000      16.69051513
P        1.47521099       0.00000000      18.77700393
In       2.95042198       2.08626339      18.77687212
P        4.42563298       2.08626339      20.86327799
In       0.00000000       0.00000000      20.86358538
P        1.47521099       0.00000000      22.95091400
In       2.95042198       2.08626339      22.94980798
24
Lattice="5.900843966712281 0.0 0.0 0.0 4.17252678358598 0.0 0.0 0.208626339179299 25.035160701515878" Properties=species:S:1:pos:R:3 energy=-23579.752115513584 pbc="T T T"
P        4.42563298       2.08626339      -0.00372106
In       0.00000000       0.00000000      -0.00199636
P        1.47521099       0.00000000       2.08487212
In       2.95042198       2.08626339       2.08405845
P        4.42563298       2.08626339       4.17103352
In       0.00000000       0.00000000       4.17144889
P        1.47521099       0.00000000       6.25790973
In       2.95042198       2.08626339       6.25780955
P        4.42563298       2.08626339       8.34454797
In       0.00000000       0.00000000       8.34459569
P        1.47521099       0.00000000      10.43116562
In       2.95042198       2.08626339      10.43118088
P        4.42563298       2.08626339      12.51773168
In       0.00000000       0.00000000      12.51771642
P        1.47521099       0.00000000      14.60434934
In       2.95042198       2.08626339      14.60430162
P        4.42563298       2.08626339      16.69098758
In       0.00000000       0.00000000      16.69108776
P        1.47521099       0.00000000      18.77786379
In       2.95042198       2.08626339      18.77744842
P        4.42563298       2.08626339      20.86402519
In       0.00000000       0.00000000      20.86483886
P        1.47521099       0.00000000      22.95261837
In       2.95042198       2.08626339      22.95089367
24
Lattice="5.900843966712281 0.0 0.0 0.0 4.17252678358598 0.0 0.0 0.2607829239741237 25.035160701515878" Properties=species:S:1:pos:R:3 energy=-23579.736775626345 pbc="T T T"
P        4.42563298       2.08626339      -0.00589919
In       0.00000000       0.00000000      -0.00322089
P        1.47521099       0.00000000       2.08392881
In       2.95042198       2.08626339       2.08252186
P        4.42563298       2.08626339       4.16991897
In       0.00000000       0.00000000       4.17077314
P        1.47521099       0.00000000       6.25723835
In       2.95042198       2.08626339       6.25694473
P        4.42563298       2.08626339       8.34396565
In       0.00000000       0.00000000       8.34417637
P        1.47521099       0.00000000      10.43106227
In       2.95042198       2.08626339      10.43093308
P        4.42563298       2.08626339      12.51783504
In       0.00000000       0.00000000      12.51796423
P        1.47521099       0.00000000      14.60493166
In       2.95042198       2.08626339      14.60472094
P        4.42563298       2.08626339      16.69165896
In       0.00000000       0.00000000      16.69195258
P        1.47521099       0.00000000      18.77897834
In       2.95042198       2.08626339      18.77812417
P        4.42563298       2.08626339      20.86496849
In       0.00000000       0.00000000      20.86637545
P        1.47521099       0.00000000      22.95479650
In       2.95042198       2.08626339      22.95211820
24
Lattice="5.900843966712281 0.0 0.0 0.0 4.17252678358598 0.0 0.0 0.3129395087689485 25.035160701515878" Properties=species:S:1:pos:R:3 energy=-23579.71816981921 pbc="T T T"
P        4.42563298       2.08626339      -0.00863922
In       0.00000000       0.00000000      -0.00464864
P        1.47521099       0.00000000       2.08281115
In       2.95042198       2.08626339       2.08052173
P        4.42563298       2.08626339       4.16855719
In       0.00000000       0.00000000       4.16995795
P        1.47521099       0.00000000       6.25654214
In       2.95042198       2.08626339       6.25596678
P        4.42563298       2.08626339       8.34339282
In       0.00000000       0.00000000       8.34379093
P        1.47521099       0.00000000      10.43097041
In       2.95042198       2.08626339      10.43070479
P        4.42563298       2.08626339      12.51792690
In       0.00000000       0.00000000      12.51819252
P        1.47521099       0.00000000      14.60550449
In       2.95042198       2.08626339      14.60510638
P        4.42563298       2.08626339      16.69235517
In       0.00000000       0.00000000      16.69293052
P        1.47521099       0.00000000      18.78034012
In       2.95042198       2.08626339      18.77893936
P        4.42563298       2.08626339      20.86608616
In       0.00000000       0.00000000      20.86837558
P        1.47521099       0.00000000      22.95753653
In       2.95042198       2.08626339      22.95354595
24
Lattice="5.900843966712281 0.0 0.0 0.0 4.17252678358598 0.0 0.0 0.36509609356377326 25.035160701515878" Properties=species:S:1:pos:R:3 energy=-23579.696327894075 pbc="T T T"
P        4.42563298       2.08626339      -0.01193951
In       0.00000000       0.00000000      -0.00621300
P        1.47521099       0.00000000       2.08153266
In       2.95042198       2.08626339       2.07811074
P        4.42563298       2.08626339       4.16693003
In       0.00000000       0.00000000       4.16904074
P        1.47521099       0.00000000       6.25575226
In       2.95042198       2.08626339       6.25479398
P        4.42563298       2.08626339       8.34270670
In       0.00000000       0.00000000       8.34335729
P        1.47521099       0.00000000      10.43087432
In       2.95042198       2.08626339      10.43042311
P        4.42563298       2.08626339      12.51802299
In       0.00000000       0.00000000      12.51847420
P        1.47521099       0.00000000      14.60619061
In       2.95042198       2.08626339      14.60554002
P        4.42563298       2.08626339      16.69314505
In       0.00000000       0.00000000      16.69410333
P        1.47521099       0.00000000      18.78196728
In       2.95042198       2.08626339      18.77985657
P        4.42563298       2.08626339      20.86736465
In       0.00000000       0.00000000      20.87078657
P        1.47521099       0.00000000      22.96083682
In       2.95042198       2.08626339      22.95511031
24
Lattice="5.900843966712281 0.0 0.0 0.0 4.17252678358598 0.0 0.0 0.417252678358598 25.035160701515878" Properties=species:S:1:pos:R:3 energy=-23579.671254786346 pbc="T T T"
P        4.42563298       2.08626339      -0.01567666
In       0.00000000       0.00000000      -0.00794174
P        1.47521099       0.00000000       2.08018272
In       2.95042198       2.08626339       2.07535760
P        4.42563298       2.08626339       4.16518825
In       0.00000000       0.00000000       4.16805874
P        1.47521099       0.00000000       6.25492347
In       2.95042198       2.08626339       6.25343990
P        4.42563298       2.08626339       8.34183538
In       0.00000000       0.00000000       8.34286453
P        1.47521099       0.00000000      10.43075556
In       2.95042198       2.08626339      10.42997993
P        4.42563298       2.08626339      12.51814175
In       0.00000000       0.00000000      12.51891738
P        1.47521099       0.00000000      14.60706193
In       2.95042198       2.08626339      14.60603278
P        4.42563298       2.08626339      16.69397384
In       0.00000000       0.00000000      16.69545741
P        1.47521099       0.00000000      18.78370906
In       2.95042198       2.08626339      18.78083857
P        4.42563298       2.08626339      20.86871459
In       0.00000000       0.00000000      20.87353970
P        1.47521099       0.00000000      22.96457397
In       2.95042198       2.08626339      22.95683905
24
Lattice="5.900843966712281 0.0 0.0 0.0 4.17252678358598 0.0 0.0 0.4694092631534219 25.035160701515878" Properties=species:S:1:pos:R:3 energy=-23579.642929504054 pbc="T T T"
P        4.42563298       2.08626339      -0.02016113
In       0.00000000       0.00000000      -0.00975821
P        1.47521099       0.00000000       2.07850324
In       2.95042198       2.08626339       2.07216734
P        4.42563298       2.08626339       4.16302133
In       0.00000000       0.00000000       4.16697749
P        1.47521099       0.00000000       6.25396901
In       2.95042198       2.08626339       6.25191035
P        4.42563298       2.08626339       8.34090910
In       0.00000000       0.00000000       8.34237901
P        1.47521099       0.00000000      10.43069172
In       2.95042198       2.08626339      10.42954357
P        4.42563298       2.08626339      12.51820559
In       0.00000000       0.00000000      12.51935374
P        1.47521099       0.00000000      14.60798821
In       2.95042198       2.08626339      14.60651830
P        4.42563298       2.08626339      16.69492830
In       0.00000000       0.00000000      16.69698696
P        1.47521099       0.00000000      18.78587598
In       2.95042198       2.08626339      18.78191982
P        4.42563298       2.08626339      20.87039407
In       0.00000000       0.00000000      20.87672997
P        1.47521099       0.00000000      22.96905844
In       2.95042198       2.08626339      22.95865552
24
Lattice="5.900843966712281 0.0 0.0 0.0 4.17252678358598 0.0 0.0 0.5215658479482475 25.035160701515878" Properties=species:S:1:pos:R:3 energy=-23579.6113049736 pbc="T T T"
P        4.42563298       2.08626339      -0.02502872
In       0.00000000       0.00000000      -0.01156167
P        1.47521099       0.00000000       2.07687760
In       2.95042198       2.08626339       2.06861479
P        4.42563298       2.08626339       4.16074058
In       0.00000000       0.00000000       4.16587225
P        1.47521099       0.00000000       6.25299029
In       2.95042198       2.08626339       6.25022027
P        4.42563298       2.08626339       8.33987772
In       0.00000000       0.00000000       8.34185714
P        1.47521099       0.00000000      10.43060013
In       2.95042198       2.08626339      10.42904809
P        4.42563298       2.08626339      12.51829718
In       0.00000000       0.00000000      12.51984922
P        1.47521099       0.00000000      14.60901959
In       2.95042198       2.08626339      14.60704017
P        4.42563298       2.08626339      16.69590702
In       0.00000000       0.00000000      16.69867704
P        1.47521099       0.00000000      18.78815673
In       2.95042198       2.08626339      18.78302506
P        4.42563298       2.08626339      20.87201971
In       0.00000000       0.00000000      20.88028252
P        1.47521099       0.00000000      22.97392603
In       2.95042198       2.08626339      22.96045898
24
Lattice="5.900843966712281 0.0 0.0 0.0 4.17252678358598 0.0 0.0 0.5737224327430722 25.035160701515878" Properties=species:S:1:pos:R:3 energy=-23579.57631372632 pbc="T T T"
P        4.42563298       2.08626339      -0.03066860
In       0.00000000       0.00000000      -0.01352654
P        1.47521099       0.00000000       2.07494598
In       2.95042198       2.08626339       2.06464786
P        4.42563298       2.08626339       4.15806409
In       0.00000000       0.00000000       4.16460784
P        1.47521099       0.00000000       6.25189597
In       2.95042198       2.08626339       6.24833210
P        4.42563298       2.08626339       8.33874118
In       0.00000000       0.00000000       8.34132027
P        1.47521099       0.00000000      10.43055224
In       2.95042198       2.08626339      10.42850139
P        4.42563298       2.08626339      12.51834507
In       0.00000000       0.00000000      12.52039592
P        1.47521099       0.00000000      14.61015613
In       2.95042198       2.08626339      14.60757704
P        4.42563298       2.08626339      16.69700134
In       0.00000000       0.00000000      16.70056521
P        1.47521099       0.00000000      18.79083322
In       2.95042198       2.08626339      18.78428947
P        4.42563298       2.08626339      20.87395133
In       0.00000000       0.00000000      20.88424945
P        1.47521099       0.00000000      22.97956591
In       2.95042198       2.08626339      22.96242385
24
Lattice="5.900843966712281 0.0 0.0 0.0 4.17252678358598 0.0 0.0 0.625879017537897 25.035160701515878" Properties=species:S:1:pos:R:3 energy=-23579.537867934225 pbc="T T T"
P        4.42563298       2.08626339      -0.03679832
In       0.00000000       0.00000000      -0.01556513
P        1.47521099       0.00000000       2.07282245
In       2.95042198       2.08626339       2.06018129
P        4.42563298       2.08626339       4.15511735
In       0.00000000       0.00000000       4.16317322
P        1.47521099       0.00000000       6.25068942
In       2.95042198       2.08626339       6.24622136
P        4.42563298       2.08626339       8.33749881
In       0.00000000       0.00000000       8.34077327
P        1.47521099       0.00000000      10.43051074
In       2.95042198       2.08626339      10.42789027
P        4.42563298       2.08626339      12.51838657
In       0.00000000       0.00000000      12.52100704
P        1.47521099       0.00000000      14.61139850
In       2.95042198       2.08626339      14.60812404
P        4.42563298       2.08626339      16.69820789
In       0.00000000       0.00000000      16.70267595
P        1.47521099       0.00000000      18.79377996
In       2.95042198       2.08626339      18.78572409
P        4.42563298       2.08626339      20.87607486
In       0.00000000       0.00000000      20.88871602
P        1.47521099       0.00000000      22.98569563
In       2.95042198       2.08626339      22.96446244
24
Lattice="5.900843966712281 0.0 0.0 0.0 4.17252678358598 0.0 0.0 0.6780356023327218 25.035160701515878" Properties=species:S:1:pos:R:3 energy=-23579.495880534632 pbc="T T T"
P        4.42563298       2.08626339      -0.04341703
In       0.00000000       0.00000000      -0.01753932
P        1.47521099       0.00000000       2.07071331
In       2.95042198       2.08626339       2.05545510
P        4.42563298       2.08626339       4.15199744
In       0.00000000       0.00000000       4.16178191
P        1.47521099       0.00000000       6.24944001
In       2.95042198       2.08626339       6.24398011
P        4.42563298       2.08626339       8.33614740
In       0.00000000       0.00000000       8.34015253
P        1.47521099       0.00000000      10.43044315
In       2.95042198       2.08626339      10.42723476
P        4.42563298       2.08626339      12.51845416
In       0.00000000       0.00000000      12.52166255
P        1.47521099       0.00000000      14.61274991
In       2.95042198       2.08626339      14.60874478
P        4.42563298       2.08626339      16.69945730
In       0.00000000       0.00000000      16.70491720
P        1.47521099       0.00000000      18.79689987
In       2.95042198       2.08626339      18.78711540
P        4.42563298       2.08626339      20.87818400
In       0.00000000       0.00000000      20.89344221
P        1.47521099       0.00000000      22.99231434
In       2.95042198       2.08626339      22.96643663
24
Lattice="5.900843966712281 0.0 0.0 0.0 4.17252678358598 0.0 0.0 0.7301921871275465 25.035160701515878" Properties=species:S:1:pos:R:3 energy=-23579.45047401116 pbc="T T T"
P        4.42563298       2.08626339      -0.05055214
In       0.00000000       0.00000000      -0.01963001
P        1.47521099       0.00000000       2.06843844
In       2.95042198       2.08626339       2.05033637
P        4.42563298       2.08626339       4.14864553
In       0.00000000       0.00000000       4.16027201
P        1.47521099       0.00000000       6.24810446
In       2.95042198       2.08626339       6.24157938
P        4.42563298       2.08626339       8.33468606
In       0.00000000       0.00000000       8.33948831
P        1.47521099       0.00000000      10.43038175
In       2.95042198       2.08626339      10.42651664
P        4.42563298       2.08626339      12.51851556
In       0.00000000       0.00000000      12.52238067
P        1.47521099       0.00000000      14.61421125
In       2.95042198       2.08626339      14.60940899
P        4.42563298       2.08626339      16.70079284
In       0.00000000       0.00000000      16.70731793
P        1.47521099       0.00000000      18.80025178
In       2.95042198       2.08626339      18.78862530
P        4.42563298       2.08626339      20.88045887
In       0.00000000       0.00000000      20.89856094
P        1.47521099       0.00000000      22.99944945
In       2.95042198       2.08626339      22.96852732
24
Lattice="5.900843966712281 0.0 0.0 0.0 4.17252678358598 0.0 0.0 0.7823487719223712 25.035160701515878" Properties=species:S:1:pos:R:3 energy=-23579.401529892137 pbc="T T T"
P        4.42563298       2.08626339      -0.05808769
In       0.00000000       0.00000000      -0.02149103
P        1.47521099       0.00000000       2.06622125
In       2.95042198       2.08626339       2.04485602
P        4.42563298       2.08626339       4.14508516
In       0.00000000       0.00000000       4.15877420
P        1.47521099       0.00000000       6.24673929
In       2.95042198       2.08626339       6.23901579
P        4.42563298       2.08626339       8.33313932
In       0.00000000       0.00000000       8.33882082
P        1.47521099       0.00000000      10.43032878
In       2.95042198       2.08626339      10.42574798
P        4.42563298       2.08626339      12.51856853
In       0.00000000       0.00000000      12.52314933
P        1.47521099       0.00000000      14.61575799
In       2.95042198       2.08626339      14.61007649
P        4.42563298       2.08626339      16.70215802
In       0.00000000       0.00000000      16.70988152
P        1.47521099       0.00000000      18.80381215
In       2.95042198       2.08626339      18.79012311
P        4.42563298       2.08626339      20.88267606
In       0.00000000       0.00000000      20.90404129
P        1.47521099       0.00000000      23.00698500
In       2.95042198       2.08626339      22.97038834
24
Lattice="5.900843966712281 0.0 0.0 0.0 4.17252678358598 0.0 0.0 0.834505356717196 25.035160701515878" Properties=species:S:1:pos:R:3 energy=-23579.34889499628 pbc="T T T"
P        4.42563298       2.08626339      -0.06587360
In       0.00000000       0.00000000      -0.02335222
P        1.47521099       0.00000000       2.06378316
In       2.95042198       2.08626339       2.03901632
P        4.42563298       2.08626339       4.14127643
In       0.00000000       0.00000000       4.15705450
P        1.47521099       0.00000000       6.24519988
In       2.95042198       2.08626339       6.23629591
P        4.42563298       2.08626339       8.33148365
In       0.00000000       0.00000000       8.33804501
P        1.47521099       0.00000000      10.43024118
In       2.95042198       2.08626339      10.42493166
P        4.42563298       2.08626339      12.51865613
In       0.00000000       0.00000000      12.52396565
P        1.47521099       0.00000000      14.61741366
In       2.95042198       2.08626339      14.61085230
P        4.42563298       2.08626339      16.70369742
In       0.00000000       0.00000000      16.71260140
P        1.47521099       0.00000000      18.80762088
In       2.95042198       2.08626339      18.79184281
P        4.42563298       2.08626339      20.88511415
In       0.00000000       0.00000000      20.90988099
P        1.47521099       0.00000000      23.01477091
In       2.95042198       2.08626339      22.97224953
24
Lattice="5.900843966712281 0.0 0.0 0.0 4.17252678358598 0.0 0.0 0.8866619415120207 25.035160701515878" Properties=species:S:1:pos:R:3 energy=-23579.29249518082 pbc="T T T"
P        4.42563298       2.08626339      -0.07400936
In       0.00000000       0.00000000      -0.02483676
P        1.47521099       0.00000000       2.06160973
In       2.95042198       2.08626339       2.03289177
P        4.42563298       2.08626339       4.13738835
In       0.00000000       0.00000000       4.15554837
P        1.47521099       0.00000000       6.24379627
In       2.95042198       2.08626339       6.23348436
P        4.42563298       2.08626339       8.32979467
In       0.00000000       0.00000000       8.33736700
P        1.47521099       0.00000000      10.43021049
In       2.95042198       2.08626339      10.42407761
P        4.42563298       2.08626339      12.51868682
In       0.00000000       0.00000000      12.52481970
P        1.47521099       0.00000000      14.61910264
In       2.95042198       2.08626339      14.61153031
P        4.42563298       2.08626339      16.70510104
In       0.00000000       0.00000000      16.71541295
P        1.47521099       0.00000000      18.81150896
In       2.95042198       2.08626339      18.79334894
P        4.42563298       2.08626339      20.88728758
In       0.00000000       0.00000000      20.91600554
P        1.47521099       0.00000000      23.02290667
In       2.95042198       2.08626339      22.97373407
24
Lattice="5.900843966712281 0.0 0.0 0.0 4.17252678358598 0.0 0.0 0.9388185263068435 25.035160701515878" Properties=species:S:1:pos:R:3 energy=-23579.232330483726 pbc="T T T"
P        4.42563298       2.08626339      -0.08232834
In       0.00000000       0.00000000      -0.02583920
P        1.47521099       0.00000000       2.05980500
In       2.95042198       2.08626339       2.02657419
P        4.42563298       2.08626339       4.13334922
In       0.00000000       0.00000000       4.15434749
P        1.47521099       0.00000000       6.24254116
In       2.95042198       2.08626339       6.23043180
P        4.42563298       2.08626339       8.32787245
In       0.00000000       0.00000000       8.33685638
P        1.47521099       0.00000000      10.43030924
In       2.95042198       2.08626339      10.42300130
P        4.42563298       2.08626339      12.51858807
In       0.00000000       0.00000000      12.52589601
P        1.47521099       0.00000000      14.62102486
In       2.95042198       2.08626339      14.61204093
P        4.42563298       2.08626339      16.70635615
In       0.00000000       0.00000000      16.71846551
P        1.47521099       0.00000000      18.81554809
In       2.95042198       2.08626339      18.79454982
P        4.42563298       2.08626339      20.88909231
In       0.00000000       0.00000000      20.92232312
P        1.47521099       0.00000000      23.03122565
In       2.95042198       2.08626339      22.97473651
24
Lattice="5.900843966712281 0.0 0.0 0.0 4.17252678358598 0.0 0.0 0.9909751111016702 25.035160701515878" Properties=species:S:1:pos:R:3 energy=-23579.168479499676 pbc="T T T"
P        4.42563298       2.08626339      -0.09092807
In       0.00000000       0.00000000      -0.02690614
P        1.47521099       0.00000000       2.05756351
In       2.95042198       2.08626339       2.01977301
P        4.42563298       2.08626339       4.12927078
In       0.00000000       0.00000000       4.15278633
P        1.47521099       0.00000000       6.24105970
In       2.95042198       2.08626339       6.22745847
P        4.42563298       2.08626339       8.32616955
In       0.00000000       0.00000000       8.33605068
P        1.47521099       0.00000000      10.43025291
In       2.95042198       2.08626339      10.42213102
P        4.42563298       2.08626339      12.51864440
In       0.00000000       0.00000000      12.52676629
P        1.47521099       0.00000000      14.62272776
In       2.95042198       2.08626339      14.61284663
P        4.42563298       2.08626339      16.70783761
In       0.00000000       0.00000000      16.72143884
P        1.47521099       0.00000000      18.81962653
In       2.95042198       2.08626339      18.79611098
P        4.42563298       2.08626339      20.89133380
In       0.00000000       0.00000000      20.92912430
P        1.47521099       0.00000000      23.03982538
In       2.95042198       2.08626339      22.97580345
24
Lattice="5.900843966712281 0.0 0.0 0.0 4.17252678358598 0.0 0.0 1.043131695896495 25.035160701515878" Properties=species:S:1:pos:R:3 energy=-23579.101100268683 pbc="T T T"
P        4.42563298       2.08626339      -0.09944308
In       0.00000000       0.00000000      -0.02750247
P        1.47521099       0.00000000       2.05563878
In       2.95042198       2.08626339       2.01283677
P        4.42563298       2.08626339       4.12503538
In       0.00000000       0.00000000       4.15135305
P        1.47521099       0.00000000       6.23963622