24
Lattice="4.17252678358598 0.0 0.0 0.0 4.17252678358598 0.0 0.0 0.0 35.40506380027369" Properties=species:S:1:pos:R:3 energy=-23579.779980037747 pbc="T T T"
P        2.08626339       0.00000000       4.42563298
In       0.00000000       0.00000000       0.00000000
P        0.00000000       2.08626339       1.47521099
In       2.08626339       2.08626339       2.95042198
P        2.08626339       0.00000000      10.32647694
In       0.00000000       0.00000000       5.90084397
P        0.00000000       2.08626339       7.37605496
In       2.08626339       2.08626339       8.85126595
P        2.08626339       0.00000000      16.22732091
In       0.00000000       0.00000000      11.80168793
P        0.00000000       2.08626339      13.27689893
In       2.08626339       2.08626339      14.75210992
P        2.08626339       0.00000000      22.12816488
In       0.00000000       0.00000000      17.70253190
P        0.00000000       2.08626339      19.17774289
In       2.08626339       2.08626339      20.65295388
P        2.08626339       0.00000000      28.02900884
In       0.00000000       0.00000000      23.60337587
P        0.00000000       2.08626339      25.07858686
In       2.08626339       2.08626339      26.55379785
P        2.08626339       0.00000000      33.92985281
In       0.00000000       0.00000000      29.50421983
P        0.00000000       2.08626339      30.97943083
In       2.08626339       2.08626339      32.45464182
24
Lattice="4.17252678358598 0.0 0.0 0.0 4.17252678358598 0.0 0.0 0.05215658479482475 35.40506380027369" Properties=species:S:1:pos:R:3 energy=-23579.778136696237 pbc="T T T"
P        2.08626339       0.00000000       4.42562967
In       0.00000000       0.00000000      -0.00021934
P        0.00000000       2.08626339       1.47523205
In       2.08626339       2.08626339       2.95043871
P        2.08626339       0.00000000      10.32647694
In       0.00000000       0.00000000       5.90084581
P        0.00000000       2.08626339       7.37605428
In       2.08626339       2.08626339       8.85126689
P        2.08626339       0.00000000      16.22732091
In       0.00000000       0.00000000      11.80168793
P        0.00000000       2.08626339      13.27689893
In       2.08626339       2.08626339      14.75210992
P        2.08626339       0.00000000      22.12816488
In       0.00000000       0.00000000      17.70253190
P        0.00000000       2.08626339      19.17774289
In       2.08626339       2.08626339      20.65295388
P        2.08626339       0.00000000      28.02899930
In       0.00000000       0.00000000      23.60337597
P        0.00000000       2.08626339      25.07858654
In       2.08626339       2.08626339      26.55380159
P        2.08626339       0.00000000      33.93011203
In       0.00000000       0.00000000      29.50422357
P        0.00000000       2.08626339      30.97941874
In       2.08626339       2.08626339      32.45457971
24
Lattice="4.17252678358598 0.0 0.0 0.0 4.17252678358598 0.0 0.0 0.1043131695896495 35.40506380027369" Properties=species:S:1:pos:R:3 energy=-23579.772601772725 pbc="T T T"
P        2.08626339       0.00000000       4.42571656
In       0.00000000       0.00000000      -0.00088566
P        0.00000000       2.08626339       1.47508182
In       2.08626339       2.08626339       2.95040459
P        2.08626339       0.00000000      10.32648049
In       0.00000000       0.00000000       5.90082058
P        0.00000000       2.08626339       7.37607032
In       2.08626339       2.08626339       8.85126329
P        2.08626339       0.00000000      16.22732076
In       0.00000000       0.00000000      11.80168833
P        0.00000000       2.08626339      13.27689832
In       2.08626339       2.08626339      14.75211020
P        2.08626339       0.00000000      22.12816383
In       0.00000000       0.00000000      17.70253220
P        0.00000000       2.08626339      19.17774239
In       2.08626339       2.08626339      20.65295484
P        2.08626339       0.00000000      28.02900104
In       0.00000000       0.00000000      23.60337446
P        0.00000000       2.08626339      25.07859819
In       2.08626339       2.08626339      26.55378396
P        2.08626339       0.00000000      33.93103616
In       0.00000000       0.00000000      29.50411070
P        0.00000000       2.08626339      30.97937111
In       2.08626339       2.08626339      32.45459522
24
Lattice="4.17252678358598 0.0 0.0 0.0 4.17252678358598 0.0 0.0 0.15646975438447425 35.40506380027369" Properties=species:S:1:pos:R:3 energy=-23579.76336132966 pbc="T T T"
P        2.08626339       0.00000000       4.42569719
In       0.00000000       0.00000000      -0.00195354
P        0.00000000       2.08626339       1.47479435
In       2.08626339       2.08626339       2.95022701
P        2.08626339       0.00000000      10.32649101
In       0.00000000       0.00000000       5.90090113
P        0.00000000       2.08626339       7.37607415
In       2.08626339       2.08626339       8.85126393
P        2.08626339       0.00000000      16.22732202
In       0.00000000       0.00000000      11.80168487
P        0.00000000       2.08626339      13.27690307
In       2.08626339       2.08626339      14.75210746
P        2.08626339       0.00000000      22.12816963
In       0.00000000       0.00000000      17.70253079
P        0.00000000       2.08626339      19.17774571
In       2.08626339       2.08626339      20.65294914
P        2.08626339       0.00000000      28.02883141
In       0.00000000       0.00000000      23.60336917
P        0.00000000       2.08626339      25.07859786
In       2.08626339       2.08626339      26.55377939
P        2.08626339       0.00000000      33.93262683
In       0.00000000       0.00000000      29.50401000
P        0.00000000       2.08626339      30.97940717
In       2.08626339       2.08626339      32.45470395
24
Lattice="4.17252678358598 0.0 0.0 0.0 4.17252678358598 0.0 0.0 0.208626339179299 35.40506380027369" Properties=species:S:1:pos:R:3 energy=-23579.750394541406 pbc="T T T"
P        2.08626339       0.00000000       4.42557311
In       0.00000000       0.00000000      -0.00343305
P        0.00000000       2.08626339       1.47444355
In       2.08626339       2.08626339       2.94990785
P        2.08626339       0.00000000      10.32648750
In       0.00000000       0.00000000       5.90084254
P        0.00000000       2.08626339       7.37616185
In       2.08626339       2.08626339       8.85129158
P        2.08626339       0.00000000      16.22732113
In       0.00000000       0.00000000      11.80169977
P        0.00000000       2.08626339      13.27690045
In       2.08626339       2.08626339      14.75211086
P        2.08626339       0.00000000      22.12815602
In       0.00000000       0.00000000      17.70253213
P        0.00000000       2.08626339      19.17774122
In       2.08626339       2.08626339      20.65295671
P        2.08626339       0.00000000      28.02866731
In       0.00000000       0.00000000      23.60337236
P        0.00000000       2.08626339      25.07857293
In       2.08626339       2.08626339      26.55363032
P        2.08626339       0.00000000      33.93486608
In       0.00000000       0.00000000      29.50392776
P        0.00000000       2.08626339      30.97959384
In       2.08626339       2.08626339      32.45490989
24
Lattice="4.17252678358598 0.0 0.0 0.0 4.17252678358598 0.0 0.0 0.2607829239741237 35.40506380027369" Properties=species:S:1:pos:R:3 energy=-23579.733677123204 pbc="T T T"
P        2.08626339       0.00000000       4.42533361
In       0.00000000       0.00000000      -0.00530143
P        0.00000000       2.08626339       1.47400006
In       2.08626339       2.08626339       2.94952129
P        2.08626339       0.00000000      10.32654792
In       0.00000000       0.00000000       5.90064776
P        0.00000000       2.08626339       7.37614846
In       2.08626339       2.08626339       8.85134954
P        2.08626339       0.00000000      16.22732201
In       0.00000000       0.00000000      11.80169092
P        0.00000000       2.08626339      13.27691723
In       2.08626339       2.08626339      14.75211369
P        2.08626339       0.00000000      22.12816380
In       0.00000000       0.00000000      17.70253229
P        0.00000000       2.08626339      19.17774403
In       2.08626339       2.08626339      20.65294025
P        2.08626339       0.00000000      28.02855146
In       0.00000000       0.00000000      23.60329446
P        0.00000000       2.08626339      25.07843391
In       2.08626339       2.08626339      26.55348038
P        2.08626339       0.00000000      33.93775226
In       0.00000000       0.00000000      29.50392310
P        0.00000000       2.08626339      30.97987189
In       2.08626339       2.08626339      32.45525483
24
Lattice="4.17252678358598 0.0 0.0 0.0 4.17252678358598 0.0 0.0 0.3129395087689485 35.40506380027369" Properties=species:S:1:pos:R:3 energy=-23579.71318568932 pbc="T T T"
P        2.08626339       0.00000000       4.42507257
In       0.00000000       0.00000000      -0.00753807
P        0.00000000       2.08626339       1.47350217
In       2.08626339       2.08626339       2.94907118
P        2.08626339       0.00000000      10.32660227
In       0.00000000       0.00000000       5.90036523
P        0.00000000       2.08626339       7.37601772
In       2.08626339       2.08626339       8.85130716
P        2.08626339       0.00000000      16.22733479
In       0.00000000       0.00000000      11.80176785
P        0.00000000       2.08626339      13.27691955
In       2.08626339       2.08626339      14.75212131
P        2.08626339       0.00000000      22.12806160
In       0.00000000       0.00000000      17.70252683
P        0.00000000       2.08626339      19.17773372
In       2.08626339       2.08626339      20.65293874
P        2.08626339       0.00000000      28.02851793
In       0.00000000       0.00000000      23.60314527
P        0.00000000       2.08626339      25.07828809
In       2.08626339       2.08626339      26.55336906
P        2.08626339       0.00000000      33.94125823
In       0.00000000       0.00000000      29.50396469
P        0.00000000       2.08626339      30.98021370
In       2.08626339       2.08626339      32.45567212
24
Lattice="4.17252678358598 0.0 0.0 0.0 4.17252678358598 0.0 0.0 0.36509609356377326 35.40506380027369" Properties=species:S:1:pos:R:3 energy=-23579.688903237216 pbc="T T T"
P        2.08626339       0.00000000       4.42485527
In       0.00000000       0.00000000      -0.01019560
P        0.00000000       2.08626339       1.47287428
In       2.08626339       2.08626339       2.94870046
P        2.08626339       0.00000000      10.32650764
In       0.00000000       0.00000000       5.90006879
P        0.00000000       2.08626339       7.37574871
In       2.08626339       2.08626339       8.85109665
P        2.08626339       0.00000000      16.22735077
In       0.00000000       0.00000000      11.80175988
P        0.00000000       2.08626339      13.27697715
In       2.08626339       2.08626339      14.75215997
P        2.08626339       0.00000000      22.12789762
In       0.00000000       0.00000000      17.70250887
P        0.00000000       2.08626339      19.17767200
In       2.08626339       2.08626339      20.65280058
P        2.08626339       0.00000000      28.02857523
In       0.00000000       0.00000000      23.60301736
P        0.00000000       2.08626339      25.07826842
In       2.08626339       2.08626339      26.55340251
P        2.08626339       0.00000000      33.94528460
In       0.00000000       0.00000000      29.50398815
P        0.00000000       2.08626339      30.98062638
In       2.08626339       2.08626339      32.45628802
24
Lattice="4.17252678358598 0.0 0.0 0.0 4.17252678358598 0.0 0.0 0.417252678358598 35.40506380027369" Properties=species:S:1:pos:R:3 energy=-23579.660821711346 pbc="T T T"
P        2.08626339       0.00000000       4.42464312
In       0.00000000       0.00000000      -0.01322327
P        0.00000000       2.08626339       1.47228224
In       2.08626339       2.08626339       2.94825306
P        2.08626339       0.00000000      10.32641046
In       0.00000000       0.00000000       5.89978203
P        0.00000000       2.08626339       7.37555218
In       2.08626339       2.08626339       8.85090974
P        2.08626339       0.00000000      16.22734626
In       0.00000000       0.00000000      11.80170249
P        0.00000000       2.08626339      13.27699647
In       2.08626339       2.08626339      14.75218600
P        2.08626339       0.00000000      22.12777868
In       0.00000000       0.00000000      17.70248181
P        0.00000000       2.08626339      19.17758217
In       2.08626339       2.08626339      20.65266072
P        2.08626339       0.00000000      28.02857678
In       0.00000000       0.00000000      23.60291052
P        0.00000000       2.08626339      25.07824827
In       2.08626339       2.08626339      26.55338673
P        2.08626339       0.00000000      33.94990354
In       0.00000000       0.00000000      29.50398995
P        0.00000000       2.08626339      30.98099940
In       2.08626339       2.08626339      32.45687436
24
Lattice="4.17252678358598 0.0 0.0 0.0 4.17252678358598 0.0 0.0 0.4694092631534221 35.40506380027369" Properties=species:S:1:pos:R:3 energy=-23579.628946923192 pbc="T T T"
P        2.08626339       0.00000000       4.42450322
In       0.00000000       0.00000000      -0.01670927
P        0.00000000       2.08626339       1.47162155
In       2.08626339       2.08626339       2.94779975
P        2.08626339       0.00000000      10.32643934
In       0.00000000       0.00000000       5.89961812
P        0.00000000       2.08626339       7.37551488
In       2.08626339       2.08626339       8.85088687
P        2.08626339       0.00000000      16.22735580
In       0.00000000       0.00000000      11.80173445
P        0.00000000       2.08626339      13.27703567
In       2.08626339       2.08626339      14.75221245
P        2.08626339       0.00000000      22.12767109
In       0.00000000       0.00000000      17.70247029
P        0.00000000       2.08626339      19.17754139
In       2.08626339       2.08626339      20.65258346
P        2.08626339       0.00000000      28.02839661
In       0.00000000       0.00000000      23.60277051
P        0.00000000       2.08626339      25.07812332
In       2.08626339       2.08626339      26.55322128
P        2.08626339       0.00000000      33.95497489
In       0.00000000       0.00000000      29.50380976
P        0.00000000       2.08626339      30.98123199
In       2.08626339       2.08626339      32.45742628
24
Lattice="4.17252678358598 0.0 0.0 0.0 4.17252678358598 0.0 0.0 0.5215658479482475 35.40506380027369" Properties=species:S:1:pos:R:3 energy=-23579.593300131244 pbc="T T T"
P        2.08626339       0.00000000       4.42438760
In       0.00000000       0.00000000      -0.02067190
P        0.00000000       2.08626339       1.47089522
In       2.08626339       2.08626339       2.94730292
P        2.08626339       0.00000000      10.32619976
In       0.00000000       0.00000000       5.89938299
P        0.00000000       2.08626339       7.37532007
In       2.08626339       2.08626339       8.85065374
P        2.08626339       0.00000000      16.22724764
In       0.00000000       0.00000000      11.80151582
P        0.00000000       2.08626339      13.27685845
In       2.08626339       2.08626339      14.75207633
P        2.08626339       0.00000000      22.12765474
In       0.00000000       0.00000000      17.70234167
P        0.00000000       2.08626339      19.17742527
In       2.08626339       2.08626339      20.65250834
P        2.08626339       0.00000000      28.02837835
In       0.00000000       0.00000000      23.60279933
P        0.00000000       2.08626339      25.07819380
In       2.08626339       2.08626339      26.55326335
P        2.08626339       0.00000000      33.96064884
In       0.00000000       0.00000000      29.50387400
P        0.00000000       2.08626339      30.98173617
In       2.08626339       2.08626339      32.45824121
24
Lattice="4.17252678358598 0.0 0.0 0.0 4.17252678358598 0.0 0.0 0.5737224327430722 35.40506380027369" Properties=species:S:1:pos:R:3 energy=-23579.553911098497 pbc="T T T"
P        2.08626339       0.00000000       4.42403085
In       0.00000000       0.00000000      -0.02453934
P        0.00000000       2.08626339       1.47039429
In       2.08626339       2.08626339       2.94683326
P        2.08626339       0.00000000      10.32541397
In       0.00000000       0.00000000       5.89883125
P        0.00000000       2.08626339       7.37474460
In       2.08626339       2.08626339       8.84990493
P        2.08626339       0.00000000      16.22672866
In       0.00000000       0.00000000      11.80072102
P        0.00000000       2.08626339      13.27611705
In       2.08626339       2.08626339      14.75144887
P        2.08626339       0.00000000      22.12785009
In       0.00000000       0.00000000      17.70197873
P        0.00000000       2.08626339      19.17721252
In       2.08626339       2.08626339      20.65250834
P        2.08626339       0.00000000      28.02894848
In       0.00000000       0.00000000      23.60317694
P        0.00000000       2.08626339      25.07876470
In       2.08626339       2.08626339      26.55382312
P        2.08626339       0.00000000      33.96722481
In       0.00000000       0.00000000      29.50424666
P        0.00000000       2.08626339      30.98243590
In       2.08626339       2.08626339      32.45943402
24
Lattice="4.17252678358598 0.0 0.0 0.0 4.17252678358598 0.0 0.0 0.625879017537897 35.40506380027369" Properties=species:S:1:pos:R:3 energy=-23579.510811306995 pbc="T T T"
P        2.08626339       0.00000000       4.42391230
In       0.00000000       0.00000000      -0.02930369
P        0.00000000       2.08626339       1.46960919
In       2.08626339       2.08626339       2.94622651
P        2.08626339       0.00000000      10.32530181
In       0.00000000       0.00000000       5.89859086
P        0.00000000       2.08626339       7.37462370
In       2.08626339       2.08626339       8.84978227
P        2.08626339       0.00000000      16.22655678
In       0.00000000       0.00000000      11.80056125
P        0.00000000       2.08626339      13.27592326
In       2.08626339       2.08626339      14.75122782
P        2.08626339       0.00000000      22.12784684
In       0.00000000       0.00000000      17.70187202
P        0.00000000       2.08626339      19.17719730
In       2.08626339       2.08626339      20.65250138
P        2.08626339       0.00000000      28.02886909
In       0.00000000       0.00000000      23.60313328
P        0.00000000       2.08626339      25.07871673
In       2.08626339       2.08626339      26.55376407
P        2.08626339       0.00000000      33.97390127
In       0.00000000       0.00000000      29.50423577
P        0.00000000       2.08626339      30.98287089
In       2.08626339       2.08626339      32.46031303
24
Lattice="4.17252678358598 0.0 0.0 0.0 4.17252678358598 0.0 0.0 0.6780356023327218 35.40506380027369" Properties=species:S:1:pos:R:3 energy=-23579.464029889943 pbc="T T T"
P        2.08626339       0.00000000       4.42372089
In       0.00000000       0.00000000      -0.03435527
P        0.00000000       2.08626339       1.46885074
In       2.08626339       2.08626339       2.94564558
P        2.08626339       0.00000000      10.32517793
In       0.00000000       0.00000000       5.89829802
P        0.00000000       2.08626339       7.37447920
In       2.08626339       2.08626339       8.84961522
P        2.08626339       0.00000000      16.22645901
In       0.00000000       0.00000000      11.80043459
P        0.00000000       2.08626339      13.27581212
In       2.08626339       2.08626339      14.75112151
P        2.08626339       0.00000000      22.12777923
In       0.00000000       0.00000000      17.70178131
P        0.00000000       2.08626339      19.17711417
In       2.08626339       2.08626339      20.65242269
P        2.08626339       0.00000000      28.02882708
In       0.00000000       0.00000000      23.60306754
P        0.00000000       2.08626339      25.07869822
In       2.08626339       2.08626339      26.55370959
P        2.08626339       0.00000000      33.98105892
In       0.00000000       0.00000000      29.50412540
P        0.00000000       2.08626339      30.98316101
In       2.08626339       2.08626339      32.46122901
24
Lattice="4.17252678358598 0.0 0.0 0.0 4.17252678358598 0.0 0.0 0.7301921871275465 35.40506380027369" Properties=species:S:1:pos:R:3 energy=-23579.41373140897 pbc="T T T"
P        2.08626339       0.00000000       4.42251946
In       0.00000000       0.00000000      -0.04018389
P        0.00000000       2.08626339       1.46674627
In       2.08626339       2.08626339       2.94401063
P        2.08626339       0.00000000      10.32443772
In       0.00000000       0.00000000       5.89712610
P        0.00000000       2.08626339       7.37352085
In       2.08626339       2.08626339       8.84872904
P        2.08626339       0.00000000      16.22623241
In       0.00000000       0.00000000      11.79980669
P        0.00000000       2.08626339      13.27531287
In       2.08626339       2.08626339      14.75075511
P        2.08626339       0.00000000      22.12815473
In       0.00000000       0.00000000      17.70169932
P        0.00000000       2.08626339      19.17717860
In       2.08626339       2.08626339      20.65264156
P        2.08626339       0.00000000      28.02973676
In       0.00000000       0.00000000      23.60359489
P        0.00000000       2.08626339      25.07941097
In       2.08626339       2.08626339      26.55451718
P        2.08626339       0.00000000      33.98908302
In       0.00000000       0.00000000      29.50512355
P        0.00000000       2.08626339      30.98456622
In       2.08626339       2.08626339      32.46351366
24
Lattice="4.17252678358598 0.0 0.0 0.0 4.17252678358598 0.0 0.0 0.7823487719223712 35.40506380027369" Properties=species:S:1:pos:R:3 energy=-23579.359984545434 pbc="T T T"
P        2.08626339       0.00000000       4.42177510
In       0.00000000       0.00000000      -0.04610625
P        0.00000000       2.08626339       1.46532173
In       2.08626339       2.08626339       2.94291646
P        2.08626339       0.00000000      10.32406876
In       0.00000000       0.00000000       5.89643034
P        0.00000000       2.08626339       7.37302453
In       2.08626339       2.08626339       8.84826607
P        2.08626339       0.00000000      16.22612739
In       0.00000000       0.00000000      11.79949325
P        0.00000000       2.08626339      13.27507202
In       2.08626339       2.08626339      14.75058039
P        2.08626339       0.00000000      22.12831632
In       0.00000000       0.00000000      17.70166229
P        0.00000000       2.08626339      19.17720876
In       2.08626339       2.08626339      20.65273690
P        2.08626339       0.00000000      28.03009939
In       0.00000000       0.00000000      23.60381907
P        0.00000000       2.08626339      25.07973141
In       2.08626339       2.08626339      26.55486054
P        2.08626339       0.00000000      33.99718517
In       0.00000000       0.00000000      29.50552648
P        0.00000000       2.08626339      30.98519121
In       2.08626339       2.08626339      32.46492636
24
Lattice="4.17252678358598 0.0 0.0 0.0 4.17252678358598 0.0 0.0 0.834505356717196 35.40506380027369" Properties=species:S:1:pos:R:3 energy=-23579.302607940394 pbc="T T T"
P        2.08626339       0.00000000       4.42141265
In       0.00000000       0.00000000      -0.05201191
P        0.00000000       2.08626339       1.46446237
In       2.08626339       2.08626339       2.94228991
P        2.08626339       0.00000000      10.32391715
In       0.00000000       0.00000000       5.89608091
P        0.00000000       2.08626339       7.37284094
In       2.08626339       2.08626339       8.84806643
P        2.08626339       0.00000000      16.22604647
In       0.00000000       0.00000000      11.79934916
P        0.00000000       2.08626339      13.27495284
In       2.08626339       2.08626339      14.75047843
P        2.08626339       0.00000000      22.12830476
In       0.00000000       0.00000000      17.70159882
P        0.00000000       2.08626339      19.17716341
In       2.08626339       2.08626339      20.65270770
P        2.08626339       0.00000000      28.03010091
In       0.00000000       0.00000000      23.60382325
P        0.00000000       2.08626339      25.07978539
In       2.08626339       2.08626339      26.55489196
P        2.08626339       0.00000000      34.00547830
In       0.00000000       0.00000000      29.50551660
P        0.00000000       2.08626339      30.98525722
In       2.08626339       2.08626339      32.46572002
24
Lattice="4.17252678358598 0.0 0.0 0.0 4.17252678358598 0.0 0.0 0.8866619415120207 35.40506380027369" Properties=species:S:1:pos:R:3 energy=-23579.241462630333 pbc="T T T"
P        2.08626339       0.00000000       4.42133803
In       0.00000000       0.00000000      -0.05786722
P        0.00000000       2.08626339       1.46398955
In       2.08626339       2.08626339       2.94201864
P        2.08626339       0.00000000      10.32391714
In       0.00000000       0.00000000       5.89597891
P        0.00000000       2.08626339       7.37287902
In       2.08626339       2.08626339       8.84805299
P        2.08626339       0.00000000      16.22597638
In       0.00000000       0.00000000      11.79932187
P        0.00000000       2.08626339      13.27491559
In       2.08626339       2.08626339      14.75042277
P        2.08626339       0.00000000      22.12816018
In       0.00000000       0.00000000      17.70150918
P        0.00000000       2.08626339      19.17705615
In       2.08626339       2.08626339      20.65258068
P        2.08626339       0.00000000      28.02983771
In       0.00000000       0.00000000      23.60366006
P        0.00000000       2.08626339      25.07963851
In       2.08626339       2.08626339      26.55468888
P        2.08626339       0.00000000      34.01398819
In       0.00000000       0.00000000      29.50519230
P        0.00000000       2.08626339      30.98490187
In       2.08626339       2.08626339      32.46607635
24
Lattice="4.17252678358598 0.0 0.0 0.0 4.17252678358598 0.0 0.0 0.938818526306842 35.40506380027369" Properties=species:S:1:pos:R:3 energy=-23579.17644698179 pbc="T T T"
P        2.08626339       0.00000000       4.42157611
In       0.00000000       0.00000000      -0.06366532
P        0.00000000       2.08626339       1.46379829
In       2.08626339       2.08626339       2.94207272
P        2.08626339       0.00000000      10.32422115
In       0.00000000       0.00000000       5.89619012
P        0.00000000       2.08626339       7.37325189
In       2.08626339       2.08626339       8.84837777
P        2.08626339       0.00000000      16.22600606
In       0.00000000       0.00000000      11.79956137
P        0.00000000       2.08626339      13.27510168
In       2.08626339       2.08626339      14.75053170
P        2.08626339       0.00000000      22.12783001
In       0.00000000       0.00000000      17.70145389
P        0.00000000       2.08626339      19.17691453
In       2.08626339       2.08626339      20.65234107
P        2.08626339       0.00000000      28.02917076
In       0.00000000       0.00000000      23.60323598
P        0.00000000       2.08626339      25.07916400
In       2.08626339       2.08626339      26.55411001
P        2.08626339       0.00000000      34.02259496
In       0.00000000       0.00000000      29.50441032
P        0.00000000       2.08626339      30.98402380
In       2.08626339       2.08626339      32.46596084
24
Lattice="4.17252678358598 0.0 0.0 0.0 4.17252678358598 0.0 0.0 0.9909751111016702 35.40506380027369" Properties=species:S:1:pos:R:3 energy=-23579.107513892708 pbc="T T T"
P        2.08626339       0.00000000       4.42203138
In       0.00000000       0.00000000      -0.06928600
P        0.00000000       2.08626339       1.46386576
In       2.08626339       2.08626339       2.94242604
P        2.08626339       0.00000000      10.32448789
In       0.00000000       0.00000000       5.89651814
P        0.00000000       2.08626339       7.37367332
In       2.08626339       2.08626339       8.84868922
P        2.08626339       0.00000000      16.22595347
In       0.00000000       0.00000000      11.79973945
P        0.00000000       2.08626339      13.27520944
In       2.08626339       2.08626339      14.75055980
P        2.08626339       0.00000000      22.12743776
In       0.00000000       0.00000000      17.70131875
P        0.00000000       2.08626339      19.17669298
In       2.08626339       2.08626339      20.65203255
P        2.08626339       0.00000000      28.02842363
In       0.00000000       0.00000000      23.60275812
P        0.00000000       2.08626339      25.07863980
In       2.08626339       2.08626339      26.55346608
P        2.08626339       0.00000000      34.03143330
In       0.00000000       0.00000000      29.50352519
P        0.00000000       2.08626339      30.98298035
In       2.08626339       2.08626339      32.46565728
24
Lattice="4.17252678358598 0.0 0.0 0.0 4.17252678358598 0.0 0.0 1.043131695896495 35.40506380027369" Properties=species:S:1:pos:R:3 energy=-23579.034701647794 pbc="T T T"
P        2.08626339       0.00000000       4.42277555
In       0.00000000       0.00000000      -0.07471999
P        0.00000000       2.08626339       1.46416224
In       2.08626339       2.08626339       2.94310410
P        2.08626339       0.00000000      10.32488613
In       0.00000000       0.00000000       5.89706752
P        0.00000000       2.08626339       7.37428474
In       2.08626339       2.08626339       8.84916321