24
Lattice="4.17252678358598 0.0 0.0 3.532708655153341e-16 7.227028385112867 8.881784197001252e-16 4.622528787170083e-15 0.0 20.441123115763887" Properties=species:S:1:pos:R:3 energy=-23579.77998003775 pbc="T T T"
In       2.08626339       3.61351419       0.00000000
P        2.08626339       3.61351419       2.55514039
In       0.00000000       0.00000000       0.00000000
P        0.00000000       0.00000000       2.55514039
In       0.00000000       2.40900946       3.40685385
P        0.00000000       2.40900946       5.96199424
In       2.08626339       6.02252365       3.40685385
P        2.08626339       6.02252365       5.96199424
In       2.08626339       1.20450473       6.81370771
P        2.08626339       1.20450473       9.36884809
In       0.00000000       4.81801892       6.81370771
P        0.00000000       4.81801892       9.36884809
In       2.08626339       3.61351419      10.22056156
P        2.08626339       3.61351419      12.77570195
In       0.00000000       0.00000000      10.22056156
P        0.00000000       0.00000000      12.77570195
In       0.00000000       2.40900946      13.62741541
P        0.00000000       2.40900946      16.18255580
In       2.08626339       6.02252365      13.62741541
P        2.08626339       6.02252365      16.18255580
In       2.08626339       1.20450473      17.03426926
P        2.08626339       1.20450473      19.58940965
In       0.00000000       4.81801892      17.03426926
P        0.00000000       4.81801892      19.58940965
24
Lattice="4.17252678358598 0.0 0.0 3.532708655153341e-16 7.227028385112864 8.881784197001252e-16 4.622528787170083e-15 0.030112618271303602 20.441123115763887" Properties=species:S:1:pos:R:3 energy=-23579.77321206323 pbc="T T T"
In       2.08626339       3.61351419       0.00043770
P        2.08626339       3.61351419       2.55531067
In       0.00000000       0.00000000       0.00043770
P        0.00000000       0.00000000       2.55531067
In       0.00000000       2.40900946       3.40690485
P        0.00000000       2.40900946       5.96196330
In       2.08626339       6.02252365       3.40690485
P        2.08626339       6.02252365       5.96196330
In       2.08626339       1.20450473       6.81372180
P        2.08626339       1.20450473       9.36884745
In       0.00000000       4.81801892       6.81372180
P        0.00000000       4.81801892       9.36884745
In       2.08626339       3.61351419      10.22056284
P        2.08626339       3.61351419      12.77568821
In       0.00000000       0.00000000      10.22056284
P        0.00000000       0.00000000      12.77568821
In       0.00000000       2.40900946      13.62744989
P        0.00000000       2.40900946      16.18250850
In       2.08626339       6.02252365      13.62744989
P        2.08626339       6.02252365      16.18250850
In       2.08626339       1.20450473      17.03409994
P        2.08626339       1.20450473      19.58896276
In       0.00000000       4.81801892      17.03409994
P        0.00000000       4.81801892      19.58896276
24
Lattice="4.17252678358598 0.0 0.0 3.532708655153341e-16 7.227028385112862 8.881784197001252e-16 4.622528787170083e-15 0.060225236542607204 20.441123115763887" Properties=species:S:1:pos:R:3 energy=-23579.753655312143 pbc="T T T"
In       2.08626339       3.61351419       0.00186656
P        2.08626339       3.61351419       2.55635995
In       0.00000000       0.00000000       0.00186656
P        0.00000000       0.00000000       2.55635995
In       0.00000000       2.40900946       3.40767324
P        0.00000000       2.40900946       5.96235586
In       2.08626339       6.02252365       3.40767324
P        2.08626339       6.02252365       5.96235586
In       2.08626339       1.20450473       6.81388859
P        2.08626339       1.20450473       9.36886348
In       0.00000000       4.81801892       6.81388859
P        0.00000000       4.81801892       9.36886348
In       2.08626339       3.61351419      10.22055754
P        2.08626339       3.61351419      12.77552903
In       0.00000000       0.00000000      10.22055754
P        0.00000000       0.00000000      12.77552903
In       0.00000000       2.40900946      13.62707103
P        0.00000000       2.40900946      16.18175588
In       2.08626339       6.02252365      13.62707103
P        2.08626339       6.02252365      16.18175588
In       2.08626339       1.20450473      17.03303005
P        2.08626339       1.20450473      19.58750670
In       0.00000000       4.81801892      17.03303005
P        0.00000000       4.81801892      19.58750670
24
Lattice="4.17252678358598 0.0 0.0 3.532708655153341e-16 7.227028385112862 8.881784197001252e-16 4.622528787170083e-15 0.0903378548139109 20.441123115763887" Properties=species:S:1:pos:R:3 energy=-23579.722464838942 pbc="T T T"
In       2.08626339       3.61351419       0.00423688
P        2.08626339       3.61351419       2.55786512
In       0.00000000       0.00000000       0.00423688
P        0.00000000       0.00000000       2.55786512
In       0.00000000       2.40900946       3.40899618
P        0.00000000       2.40900946       5.96325680
In       2.08626339       6.02252365       3.40899618
P        2.08626339       6.02252365       5.96325680
In       2.08626339       1.20450473       6.81449472
P        2.08626339       1.20450473       9.36912229
In       0.00000000       4.81801892       6.81449472
P        0.00000000       4.81801892       9.36912229
In       2.08626339       3.61351419      10.22032237
P        2.08626339       3.61351419      12.77494059
In       0.00000000       0.00000000      10.22032237
P        0.00000000       0.00000000      12.77494059
In       0.00000000       2.40900946      13.62617822
P        0.00000000       2.40900946      16.18045818
In       2.08626339       6.02252365      13.62617822
P        2.08626339       6.02252365      16.18045818
In       2.08626339       1.20450473      17.03150869
P        2.08626339       1.20450473      19.58507788
In       0.00000000       4.81801892      17.03150869
P        0.00000000       4.81801892      19.58507788
24
Lattice="4.17252678358598 0.0 0.0 3.532708655153341e-16 7.227028385112862 8.881784197001252e-16 4.622528787170083e-15 0.12045047308521445 20.441123115763887" Properties=species:S:1:pos:R:3 energy=-23579.680817272536 pbc="T T T"
In       2.08626339       3.61351419       0.00727197
P        2.08626339       3.61351419       2.55986892
In       0.00000000       0.00000000       0.00727197
P        0.00000000       0.00000000       2.55986892
In       0.00000000       2.40900946       3.41058077
P        0.00000000       2.40900946       5.96434754
In       2.08626339       6.02252365       3.41058077
P        2.08626339       6.02252365       5.96434754
In       2.08626339       1.20450473       6.81528566
P        2.08626339       1.20450473       9.36943324
In       0.00000000       4.81801892       6.81528566
P        0.00000000       4.81801892       9.36943324
In       2.08626339       3.61351419      10.22002308
P        2.08626339       3.61351419      12.77418609
In       0.00000000       0.00000000      10.22002308
P        0.00000000       0.00000000      12.77418609
In       0.00000000       2.40900946      13.62510787
P        0.00000000       2.40900946      16.17889244
In       2.08626339       6.02252365      13.62510787
P        2.08626339       6.02252365      16.17889244
In       2.08626339       1.20450473      17.02945550
P        2.08626339       1.20450473      19.58200485
In       0.00000000       4.81801892      17.02945550
P        0.00000000       4.81801892      19.58200485
24
Lattice="4.17252678358598 0.0 0.0 3.532708655153341e-16 7.227028385112862 8.881784197001252e-16 4.622528787170083e-15 0.15056309135651796 20.441123115763887" Properties=species:S:1:pos:R:3 energy=-23579.629894057573 pbc="T T T"
In       2.08626339       3.61351419       0.01104211
P        2.08626339       3.61351419       2.56229978
In       0.00000000      -0.00000000       0.01104211
P        0.00000000      -0.00000000       2.56229978
In       0.00000000       2.40900946       3.41250272
P        0.00000000       2.40900946       5.96556612
In       2.08626339       6.02252365       3.41250272
P        2.08626339       6.02252365       5.96556612
In       2.08626339       1.20450473       6.81609964
P        2.08626339       1.20450473       9.36973815
In       0.00000000       4.81801892       6.81609964
P        0.00000000       4.81801892       9.36973815
In       2.08626339       3.61351419      10.21973892
P        2.08626339       3.61351419      12.77340144
In       0.00000000       0.00000000      10.21973892
P        0.00000000      -0.00000000      12.77340144
In       0.00000000       2.40900946      13.62389851
P        0.00000000       2.40900946      16.17699847
In       2.08626339       6.02252365      13.62389851
P        2.08626339       6.02252365      16.17699847
In       2.08626339       1.20450473      17.02695180
P        2.08626339       1.20450473      19.57822025
In       0.00000000       4.81801892      17.02695180
P        0.00000000       4.81801892      19.57822025
24
Lattice="4.17252678358598 0.0 0.0 3.532708655153341e-16 7.227028385112862 8.881784197001252e-16 4.622528787170083e-15 0.18067570962782187 20.441123115763887" Properties=species:S:1:pos:R:3 energy=-23579.570864325335 pbc="T T T"
In       2.08626339       3.61351419       0.01546497
P        2.08626339       3.61351419       2.56512675
In       0.00000000       0.00000000       0.01546497
P        0.00000000       0.00000000       2.56512675
In       0.00000000       2.40900946       3.41474982
P        0.00000000       2.40900946       5.96699531
In       2.08626339       6.02252365       3.41474982
P        2.08626339       6.02252365       5.96699531
In       2.08626339       1.20450473       6.81705030
P        2.08626339       1.20450473       9.37009700
In       0.00000000       4.81801892       6.81705030
P        0.00000000       4.81801892       9.37009700
In       2.08626339       3.61351419      10.21940042
P        2.08626339       3.61351419      12.77248206
In       0.00000000       0.00000000      10.21940042
P        0.00000000       0.00000000      12.77248206
In       0.00000000       2.40900946      13.62246179
P        0.00000000       2.40900946      16.17478031
In       2.08626339       6.02252365      13.62246179
P        2.08626339       6.02252365      16.17478031
In       2.08626339       1.20450473      17.02400236
P        2.08626339       1.20450473      19.57384682
In       0.00000000       4.81801892      17.02400236
P        0.00000000       4.81801892      19.57384682
24
Lattice="4.17252678358598 0.0 0.0 3.532708655153341e-16 7.227028385112861 8.881784197001252e-16 4.622528787170083e-15 0.2107883278991253 20.441123115763887" Properties=species:S:1:pos:R:3 energy=-23579.50486113714 pbc="T T T"
In       2.08626339       3.61351419       0.02031883
P        2.08626339       3.61351419       2.56822770
In       0.00000000       0.00000000       0.02031883
P        0.00000000       0.00000000       2.56822770
In       0.00000000       2.40900946       3.41728672
P        0.00000000       2.40900946       5.96853702
In       2.08626339       6.02252365       3.41728672
P        2.08626339       6.02252365       5.96853702
In       2.08626339       1.20450473       6.81810394
P        2.08626339       1.20450473       9.37055229
In       0.00000000       4.81801892       6.81810394
P        0.00000000       4.81801892       9.37055230
In       2.08626339       3.61351419      10.21897337
P        2.08626339       3.61351419      12.77146024
In       0.00000000       0.00000000      10.21897337
P        0.00000000       0.00000000      12.77146024
In       0.00000000       2.40900946      13.62091490
P        0.00000000       2.40900946      16.17231926
In       2.08626339       6.02252365      13.62091489
P        2.08626339       6.02252365      16.17231926
In       2.08626339       1.20450473      17.02072365
P        2.08626339       1.20450473      19.56903998
In       0.00000000       4.81801892      17.02072366
P        0.00000000       4.81801892      19.56903998
24
Lattice="4.17252678358598 0.0 0.0 3.532708655153341e-16 7.227028385112861 8.881784197001252e-16 4.622528787170083e-15 0.24090094617042876 20.441123115763887" Properties=species:S:1:pos:R:3 energy=-23579.432911388874 pbc="T T T"
In       2.08626339       3.61351419       0.02551766
P        2.08626339       3.61351419       2.57152965
In       0.00000000      -0.00000000       0.02551766
P        0.00000000      -0.00000000       2.57152965
In       0.00000000       2.40900946       3.41997519
P        0.00000000       2.40900946       5.97025655
In       2.08626339       6.02252365       3.41997519
P        2.08626339       6.02252365       5.97025655
In       2.08626339       1.20450473       6.81928940
P        2.08626339       1.20450473       9.37102968
In       0.00000000       4.81801892       6.81928940
P        0.00000000       4.81801892       9.37102968
In       2.08626339       3.61351419      10.21855167
P        2.08626339       3.61351419      12.77034348
In       0.00000000      -0.00000000      10.21855167
P        0.00000000      -0.00000000      12.77034348
In       0.00000000       2.40900946      13.61922106
P        0.00000000       2.40900946      16.16972126
In       2.08626339       6.02252365      13.61922106
P        2.08626339       6.02252365      16.16972126
In       2.08626339       1.20450473      17.01727741
P        2.08626339       1.20450473      19.56374492
In       0.00000000       4.81801892      17.01727741
P        0.00000000       4.81801892      19.56374492
24
Lattice="4.17252678358598 0.0 0.0 3.532708655153341e-16 7.227028385112861 8.881784197001252e-16 4.622528787170083e-15 0.2710135644417324 20.441123115763887" Properties=species:S:1:pos:R:3 energy=-23579.35604339364 pbc="T T T"
In       2.08626339       3.61351419       0.03108412
P        2.08626339       3.61351419       2.57507674
In       0.00000000       0.00000000       0.03108412
P        0.00000000       0.00000000       2.57507674
In       0.00000000       2.40900946       3.42284835
P        0.00000000       2.40900946       5.97207407
In       2.08626339       6.02252365       3.42284835
P        2.08626339       6.02252365       5.97207407
In       2.08626339       1.20450473       6.82052397
P        2.08626339       1.20450473       9.37152218
In       0.00000000       4.81801892       6.82052397
P        0.00000000       4.81801892       9.37152218
In       2.08626339       3.61351419      10.21811667
P        2.08626339       3.61351419      12.76918156
In       0.00000000       0.00000000      10.21811667
P        0.00000000       0.00000000      12.76918156
In       0.00000000       2.40900946      13.61743541
P        0.00000000       2.40900946      16.16695267
In       2.08626339       6.02252365      13.61743541
P        2.08626339       6.02252365      16.16695267
In       2.08626339       1.20450473      17.01356297
P        2.08626339       1.20450473      19.55807920
In       0.00000000       4.81801892      17.01356297
P        0.00000000       4.81801892      19.55807920
24
Lattice="4.17252678358598 0.0 0.0 3.532708655153341e-16 7.227028385112861 8.881784197001252e-16 4.622528787170083e-15 0.30112618271303604 20.441123115763887" Properties=species:S:1:pos:R:3 energy=-23579.275250204948 pbc="T T T"
In       2.08626339       3.61351419       0.03692097
P        2.08626339       3.61351419       2.57881613
In       0.00000000       0.00000000       0.03692097
P        0.00000000       0.00000000       2.57881613
In       0.00000000       2.40900946       3.42578366
P        0.00000000       2.40900946       5.97398155
In       2.08626339       6.02252365       3.42578366
P        2.08626339       6.02252365       5.97398155
In       2.08626339       1.20450473       6.82181873
P        2.08626339       1.20450473       9.37205071
In       0.00000000       4.81801892       6.82181873
P        0.00000000       4.81801892       9.37205071
In       2.08626339       3.61351419      10.21765502
P        2.08626339       3.61351419      12.76798950
In       0.00000000       0.00000000      10.21765502
P        0.00000000       0.00000000      12.76798950
In       0.00000000       2.40900946      13.61557430
P        0.00000000       2.40900946      16.16409430
In       2.08626339       6.02252365      13.61557430
P        2.08626339       6.02252365      16.16409430
In       2.08626339       1.20450473      17.00967687
P        2.08626339       1.20450473      19.55209618
In       0.00000000       4.81801892      17.00967687
P        0.00000000       4.81801892      19.55209618
24
Lattice="4.17252678358598 0.0 0.0 3.532708655153341e-16 7.227028385112861 8.881784197001252e-16 4.622528787170083e-15 0.3312388009843395 20.441123115763887" Properties=species:S:1:pos:R:3 energy=-23579.191477386652 pbc="T T T"
In       2.08626339       3.61351419       0.04302482
P        2.08626339       3.61351419       2.58272297
In       0.00000000       0.00000000       0.04302482
P        0.00000000       0.00000000       2.58272297
In       0.00000000       2.40900946       3.42895052
P        0.00000000       2.40900946       5.97599953
In       2.08626339       6.02252365       3.42895052
P        2.08626339       6.02252365       5.97599953
In       2.08626339       1.20450473       6.82319379
P        2.08626339       1.20450473       9.37260794
In       0.00000000       4.81801892       6.82319379
P        0.00000000       4.81801892       9.37260794
In       2.08626339       3.61351419      10.21717052
P        2.08626339       3.61351419      12.76671026
In       0.00000000       0.00000000      10.21717052
P        0.00000000       0.00000000      12.76671026
In       0.00000000       2.40900946      13.61360449
P        0.00000000       2.40900946      16.16106888
In       2.08626339       6.02252365      13.61360449
P        2.08626339       6.02252365      16.16106888
In       2.08626339       1.20450473      17.00552631
P        2.08626339       1.20450473      19.54587789
In       0.00000000       4.81801892      17.00552631
P        0.00000000       4.81801892      19.54587789
24
Lattice="4.17252678358598 0.0 0.0 3.532708655153341e-16 7.227028385112861 8.881784197001252e-16 4.622528787170083e-15 0.3613514192556437 20.441123115763887" Properties=species:S:1:pos:R:3 energy=-23579.105619180486 pbc="T T T"
In       2.08626339       3.61351419       0.04931960
P        2.08626339       3.61351419       2.58672611
In       0.00000000       0.00000000       0.04931960
P        0.00000000       0.00000000       2.58672611
In       0.00000000       2.40900946       3.43229665
P        0.00000000       2.40900946       5.97806214
In       2.08626339       6.02252365       3.43229664
P        2.08626339       6.02252365       5.97806214
In       2.08626339       1.20450473       6.82462088
P        2.08626339       1.20450473       9.37318695
In       0.00000000       4.81801892       6.82462088
P        0.00000000       4.81801892       9.37318695
In       2.08626339       3.61351419      10.21668180
P        2.08626339       3.61351419      12.76537427
In       0.00000000       0.00000000      10.21668180
P        0.00000000       0.00000000      12.76537428
In       0.00000000       2.40900946      13.61159737
P        0.00000000       2.40900946      16.15793534
In       2.08626339       6.02252365      13.61159737
P        2.08626339       6.02252365      16.15793534
In       2.08626339       1.20450473      17.00116628
P        2.08626339       1.20450473      19.53949052
In       0.00000000       4.81801892      17.00116628
P        0.00000000       4.81801892      19.53949052
24
Lattice="4.17252678358598 0.0 0.0 3.532708655153341e-16 7.227028385112861 8.881784197001252e-16 4.622528787170083e-15 0.39146403752694686 20.441123115763887" Properties=species:S:1:pos:R:3 energy=-23579.01851494805 pbc="T T T"
In       2.08626339       3.61351419       0.05573245
P        2.08626339       3.61351419       2.59084998
In       0.00000000       0.00000000       0.05573245
P        0.00000000       0.00000000       2.59084998
In       0.00000000       2.40900946       3.43568311
P        0.00000000       2.40900946       5.98022965
In       2.08626339       6.02252365       3.43568311
P        2.08626339       6.02252365       5.98022965
In       2.08626339       1.20450473       6.82610216
P        2.08626339       1.20450473       9.37379635
In       0.00000000       4.81801892       6.82610216
P        0.00000000       4.81801892       9.37379635
In       2.08626339       3.61351419      10.21617090
P        2.08626339       3.61351419      12.76401792
In       0.00000000       0.00000000      10.21617090
P        0.00000000       0.00000000      12.76401793
In       0.00000000       2.40900946      13.60950024
P        0.00000000       2.40900946      16.15474413
In       2.08626339       6.02252365      13.60950024
P        2.08626339       6.02252365      16.15474413
In       2.08626339       1.20450473      16.99668712
P        2.08626339       1.20450473      19.53294389
In       0.00000000       4.81801892      16.99668712
P        0.00000000       4.81801892      19.53294389
24
Lattice="4.17252678358598 0.0 0.0 3.532708655153341e-16 7.227028385112861 8.881784197001252e-16 4.622528787170083e-15 0.4215766557982504 20.441123115763887" Properties=species:S:1:pos:R:3 energy=-23578.9309466003 pbc="T T T"
In       2.08626339       3.61351419       0.06222049
P        2.08626339       3.61351419       2.59503099
In       0.00000000       0.00000000       0.06222049
P        0.00000000       0.00000000       2.59503099
In       0.00000000       2.40900946       3.43914714
P        0.00000000       2.40900946       5.98245687
In       2.08626339       6.02252365       3.43914714
P        2.08626339       6.02252365       5.98245687
In       2.08626339       1.20450473       6.82762352
P        2.08626339       1.20450473       9.37442934
In       0.00000000       4.81801892       6.82762352
P        0.00000000       4.81801892       9.37442934
In       2.08626339       3.61351419      10.21565422
P        2.08626339       3.61351419      12.76264270
In       0.00000000       0.00000000      10.21565422
P        0.00000000       0.00000000      12.76264270
In       0.00000000       2.40900946      13.60735920
P        0.00000000       2.40900946      16.15150885
In       2.08626339       6.02252365      13.60735920
P        2.08626339       6.02252365      16.15150885
In       2.08626339       1.20450473      16.99207817
P        2.08626339       1.20450473      19.52630644
In       0.00000000       4.81801892      16.99207817
P        0.00000000       4.81801892      19.52630644
24
Lattice="4.17252678358598 0.0 0.0 3.532708655153341e-16 7.227028385112861 8.881784197001252e-16 4.622528787170083e-15 0.45168927406955445 20.441123115763887" Properties=species:S:1:pos:R:3 energy=-23578.843634775603 pbc="T T T"
In       2.08626339       3.61351419       0.06872316
P        2.08626339       3.61351419       2.59927321
In       0.00000000      -0.00000000       0.06872316
P        0.00000000       0.00000000       2.59927321
In       0.00000000       2.40900946       3.44261110
P        0.00000000       2.40900946       5.98478260
In       2.08626339       6.02252365       3.44261110
P        2.08626339       6.02252365       5.98478260
In       2.08626339       1.20450473       6.82917701
P        2.08626339       1.20450473       9.37509707
In       0.00000000       4.81801892       6.82917701
P        0.00000000       4.81801892       9.37509707
In       2.08626339       3.61351419      10.21511425
P        2.08626339       3.61351419      12.76128024
In       0.00000000      -0.00000000      10.21511425
P        0.00000000      -0.00000000      12.76128024
In       0.00000000       2.40900946      13.60514049
P        0.00000000       2.40900946      16.14828101
In       2.08626339       6.02252365      13.60514049
P        2.08626339       6.02252365      16.14828101
In       2.08626339       1.20450473      16.98737301
P        2.08626339       1.20450473      19.51960475
In       0.00000000       4.81801892      16.98737301
P        0.00000000       4.81801892      19.51960475
24
Lattice="4.17252678358598 0.0 0.0 3.532708655153341e-16 7.227028385112861 8.881784197001252e-16 4.622528787170083e-15 0.4818018923408576 20.441123115763887" Properties=species:S:1:pos:R:3 energy=-23578.757237322843 pbc="T T T"
In       2.08626339       3.61351419       0.07520160
P        2.08626339       3.61351419       2.60346110
In       0.00000000      -0.00000000       0.07520160
P        0.00000000      -0.00000000       2.60346110
In       0.00000000       2.40900946       3.44617374
P        0.00000000       2.40900946       5.98709856
In       2.08626339       6.02252365       3.44617374
P        2.08626339       6.02252365       5.98709856
In       2.08626339       1.20450473       6.83075134
P        2.08626339       1.20450473       9.37577476
In       0.00000000       4.81801892       6.83075134
P        0.00000000       4.81801892       9.37577476
In       2.08626339       3.61351419      10.21460046
P        2.08626339       3.61351419      12.75990820
In       0.00000000      -0.00000000      10.21460046
P        0.00000000      -0.00000000      12.75990820
In       0.00000000       2.40900946      13.60295487
P        0.00000000       2.40900946      16.14504069
In       2.08626339       6.02252365      13.60295487
P        2.08626339       6.02252365      16.14504069
In       2.08626339       1.20450473      16.98257040
P        2.08626339       1.20450473      19.51292221
In       0.00000000       4.81801892      16.98257040
P        0.00000000       4.81801892      19.51292221
24
Lattice="4.17252678358598 0.0 0.0 3.532708655153341e-16 7.227028385112861 8.881784197001252e-16 4.622528787170083e-15 0.5119145106121612 20.441123115763887" Properties=species:S:1:pos:R:3 energy=-23578.672346520463 pbc="T T T"
In       2.08626339       3.61351419       0.08159971
P        2.08626339       3.61351419       2.60759598
In       0.00000000       0.00000000       0.08159971
P        0.00000000       0.00000000       2.60759598
In       0.00000000       2.40900946       3.44975469
P        0.00000000       2.40900946       5.98943839
In       2.08626339       6.02252365       3.44975469
P        2.08626339       6.02252365       5.98943839
In       2.08626339       1.20450473       6.83234037
P        2.08626339       1.20450473       9.37647059
In       0.00000000       4.81801892       6.83234037
P        0.00000000       4.81801892       9.37647059
In       2.08626339       3.61351419      10.21409960
P        2.08626339       3.61351419      12.75855636
In       0.00000000       0.00000000      10.21409960
P        0.00000000       0.00000000      12.75855636
In       0.00000000       2.40900946      13.60077501
P        0.00000000       2.40900946      16.14183550
In       2.08626339       6.02252365      13.60077501
P        2.08626339       6.02252365      16.14183550
In       2.08626339       1.20450473      16.97771332
P        2.08626339       1.20450473      19.50627841
In       0.00000000       4.81801892      16.97771332
P        0.00000000       4.81801892      19.50627841
24
Lattice="4.17252678358598 0.0 0.0 3.532708655153341e-16 7.227028385112861 8.881784197001252e-16 4.622528787170083e-15 0.5420271288834647 20.441123115763887" Properties=species:S:1:pos:R:3 energy=-23578.589489295577 pbc="T T T"
In       2.08626339       3.61351419       0.08786254
P        2.08626339       3.61351419       2.61166926
In       0.00000000       0.00000000       0.08786254
P        0.00000000       0.00000000       2.61166926
In       0.00000000       2.40900946       3.45339816
P        0.00000000       2.40900946       5.99179694
In       2.08626339       6.02252365       3.45339816
P        2.08626339       6.02252365       5.99179694
In       2.08626339       1.20450473       6.83395270
P        2.08626339       1.20450473       9.37716356
In       0.00000000       4.81801892       6.83395270
P        0.00000000       4.81801892       9.37716356
In       2.08626339       3.61351419      10.21366409
P        2.08626339       3.61351419      12.75724231
In       0.00000000       0.00000000      10.21366409
P        0.00000000       0.00000000      12.75724231
In       0.00000000       2.40900946      13.59863727
P        0.00000000       2.40900946      16.13859927
In       2.08626339       6.02252365      13.59863727
P        2.08626339       6.02252365      16.13859927
In       2.08626339       1.20450473      16.97279387
P        2.08626339       1.20450473      19.49967795
In       0.00000000       4.81801892      16.97279387
P        0.00000000       4.81801892      19.49967795
24
Lattice="4.17252678358598 0.0 0.0 3.532708655153341e-16 7.227028385112861 8.881784197001252e-16 4.622528787170083e-15 0.5721397471547686 20.441123115763887" Properties=species:S:1:pos:R:3 energy=-23578.509127111378 pbc="T T T"
In       2.08626339       3.61351419       0.09396053
P        2.08626339       3.61351419       2.61559654
In       0.00000000       0.00000000       0.09396053
P        0.00000000       0.00000000       2.61559654
In       0.00000000       2.40900946       3.45695354
P        0.00000000       2.40900946       5.99414925
In       2.08626339       6.02252365       3.45695354
P        2.08626339       6.02252365       5.99414925
In       2.08626339       1.20450473       6.83554641
P        2.08626339       1.20450473       9.37788532
In       0.00000000       4.81801892       6.83554641
P        0.00000000       4.81801892       9.37788532
In       2.08626339       3.61351419      10.21321197
P        2.08626339       3.61351419      12.75596765