 +-------------------------------------------------+
 |                                                 |
 |      CCC   AA    SSS  TTTTT  EEEEE  PPPP        |
 |     C     A  A  S       T    E      P   P       |
 |     C     AAAA   SS     T    EEE    PPPP        |
 |     C     A  A     S    T    E      P           |
 |      CCC  A  A  SSS     T    EEEEE  P           |
 |                                                 |
 +-------------------------------------------------+
 |                                                 |
 | Welcome to Academic Release CASTEP version 24.1 |
 | Ab Initio Total Energy Program                  |
 |                                                 |
 | Authors:                                        |
 | M. Segall, M. Probert, C. Pickard, P. Hasnip,   |
 | S. Clark, K. Refson, J. R. Yates,               |
 | A. Bartok-Partay, M. Payne                      |
 |                                                 |
 | Contributors:                                   |
 | P. Lindan, P. Haynes, J. White, V. Milman,      |
 | N. Govind, M. Gibson, P. Tulip, V. Cocula,      |
 | B. Montanari, D. Quigley, M. Glover,            |
 | L. Bernasconi, A. Perlov, M. Plummer,           |
 | E. McNellis, J. Meyer, J. Gale, D. Jochym       |
 | J. Aarons, B. Walker, R. Gillen, D. Jones       |
 | T. Green, I. J. Bush, C. J. Armstrong,          |
 | E. J. Higgins, E. L. Brown, M. S. McFly,        |
 | J. Wilkins, B-C. Shih, P. J. P. Byrne,          |
 | R. J. Maurer, J. C. Womack, J. Dziedzic,        |
 | L. LeBlanc, T. K. Stenczel, J. Kermode,         |
 | S. Sturniolo, B. Shi, B. Durham, M. Evans,      |
 | M. J. Smith, A. Tamerus, Z. Hawkhead,           |
 | V. Ravindran, T. Hollins, S. A. Joyce,          |
 | R. T. Strong, A. M. Reilly, S. J. Donaldson     |
 |                                                 |
 | Copyright (c) 2000 - 2023                       |
 |                                                 |
 |     Distributed under license from Cambridge    |
 |     Enterprise for academic use only.           |
 |                                                 |
 | Please cite                                     |
 |                                                 |
 |     "First principles methods using CASTEP"     |
 |                                                 |
 |         Zeitschrift fuer Kristallographie       |
 |           220(5-6) pp. 567-570 (2005)           |
 |                                                 |
 | S. J. Clark, M. D. Segall, C. J. Pickard,       |
 | P. J. Hasnip, M. J. Probert, K. Refson,         |
 | M. C. Payne                                     |
 |                                                 |
 |       in all publications arising from          |
 |              your use of CASTEP                 |
 |                                                 |
 +-------------------------------------------------+
 |                                                 |
 |              http://www.castep.org              |
 |                                                 |
 +-------------------------------------------------+



 Compiled for  GNU 11.2.0 on 04-04-2024 18:39:17
 from code version 6355fd106 Castep241_branch Thu Mar 7 17:56:19 2024 +0000
 Compiler: GNU Fortran 11.2.0; Optimisation: FAST
 Comms   : MPI VERSION : CRAY MPICH version 8.1.23.14 (ANL base 3.4a2)
 MATHLIBS: default (LAPACK version 3.10.1)
 FFT Lib : fftw3 version commercial-fftw-3.3.10-sse2-avx-avx2-avx2_128
 Fundamental constants values: CODATA 2018

 Run started: Fri, 17 Jan 2025 05:28:05 +0000

 Atomic calculation performed for P: 1s2 2s2 2p6 3s2 3p3

 Converged in 47 iterations to an ae energy of -9309.074 eV

   ============================================================                
   | Pseudopotential Report - Date of generation 17-01-2025   |                
   ------------------------------------------------------------                
   | Element: P Ionic charge:  5.00 Level of theory: RSCAN    |                
   | Atomic Solver: Koelling-Harmon                           |                
   |                                                          |                
   |               Reference Electronic Structure             |                
   |         Orbital         Occupation         Energy        |                
   |            3s              2.000           -0.535        |                
   |            3p              3.000           -0.209        |                
   |                                                          |                
   |                 Pseudopotential Definition               |                
   |        Beta     l      e      Rc     scheme   norm       |                
   |          1      0   -0.535   1.807     qc      0         |                
   |          2      0    0.250   1.807     qc      0         |                
   |          3      1   -0.209   1.807     qc      0         |                
   |          4      1    0.250   1.807     qc      0         |                
   |          5      2    0.000   1.807     qc      0         |                
   |          6      2    0.250   1.807     qc      0         |                
   |         loc     3    0.000   1.807     pn      0         |                
   |                                                          |                
   | Augmentation charge Rinner = 1.263                       |                
   | Partial core correction Rc = 1.263                       |                
   ------------------------------------------------------------                
   | "3|1.8|4|4|5|30:31:32"                                   |                
   ------------------------------------------------------------                
   |      Author: Chris J. Pickard, Cambridge University      |                
   ============================================================                
 Warning: otfg_output_psp cannot write out meta-GGA pseudopotentials presently.

 Atomic calculation performed for In:
 1s2 2s2 2p6 3s2 3p6 3d10 4s2 4p6 4d10 5s2 5p1

 Converged in 84 iterations to an ae energy of -160093.328 eV

   ============================================================                
   | Pseudopotential Report - Date of generation 17-01-2025   |                
   ------------------------------------------------------------                
   | Element: In Ionic charge: 13.00 Level of theory: RSCAN   |                
   | Atomic Solver: Koelling-Harmon                           |                
   |                                                          |                
   |               Reference Electronic Structure             |                
   |         Orbital         Occupation         Energy        |                
   |            4d             10.000           -0.711        |                
   |            5s              2.000           -0.313        |                
   |            5p              1.000           -0.095        |                
   |                                                          |                
   |                 Pseudopotential Definition               |                
   |        Beta     l      e      Rc     scheme   norm       |                
   |          1      0   -0.313   2.501     qc      0         |                
   |          2      0    0.250   2.501     qc      0         |                
   |          3      1   -0.095   2.501     qc      0         |                
   |          4      1    0.250   2.501     qc      0         |                
   |          5      2   -0.711   2.207     qc      0         |                
   |          6      2    0.250   2.207     qc      0         |                
   |         loc     3    0.000   2.501     pn      0         |                
   |                                                          |                
   | Augmentation charge Rinner = 1.504                       |                
   | Partial core correction Rc = 1.504                       |                
   ------------------------------------------------------------                
   | "3|2.5|2.5|1.5|7|8|9|50:51:42U2.2U2.2"                   |                
   ------------------------------------------------------------                
   |      Author: Chris J. Pickard, Cambridge University      |                
   ============================================================                
 Warning: otfg_output_psp cannot write out meta-GGA pseudopotentials presently.

 Pseudo atomic calculation performed for P 3s2 3p3

 Converged in 23 iterations to a total energy of -208.0292 eV

 Pseudo atomic calculation performed for In 4d10 5s2 5p1

 Converged in 42 iterations to a total energy of -1747.4501 eV
 Calculation parallelised over 80 processes.
 Data is distributed by G-vector(2-way) and k-point(40-way)
 Each process may use up to 16 threads.

 ************************************ Title ************************************
 

 ***************************** General Parameters ******************************
  
 output verbosity                               : normal  (1)
 write checkpoint data to                       : StackingFaultStructs_001_100_9.check
 type of calculation                            : geometry optimization
 stress calculation                             : off
 density difference calculation                 : off
 electron localisation func (ELF) calculation   : off
 Hirshfeld analysis                             : on
 polarisation (Berry phase) analysis            : off
 molecular orbital projected DOS                : off
 deltaSCF calculation                           : off
 unlimited duration calculation
 timing information                             : on
 memory usage estimate                          : on
 write extra output files                       : on
 write final potential to formatted file        : off
 write final density to formatted file          : off
 write BibTeX reference list                    : on
 write OTFG pseudopotential files               : on
 write electrostatic potential file             : on
 write bands file                               : on
 checkpoint writing                             : off
  
 output         length unit                     : A
 output           mass unit                     : amu
 output           time unit                     : ps
 output         charge unit                     : e
 output           spin unit                     : hbar/2
 output         energy unit                     : eV
 output          force unit                     : eV/A
 output       velocity unit                     : A/ps
 output       pressure unit                     : GPa
 output     inv_length unit                     : 1/A
 output      frequency unit                     : cm-1
 output force constant unit                     : eV/A**2
 output         volume unit                     : A**3
 output   IR intensity unit                     : (D/A)**2/amu
 output         dipole unit                     : D
 output         efield unit                     : eV/A/e
 output        entropy unit                     : J/mol/K
 output    efield chi2 unit                     : pm/V
  
 wavefunctions paging                           : none
 random number generator seed                   :   52805989
 data distribution                              : optimal for this architecture
 optimization strategy                          : balance speed and memory

 *********************** Exchange-Correlation Parameters ***********************
  
 using functional                               : RSCAN
 relativistic treatment                         : Koelling-Harmon
 DFT+D: Semi-empirical dispersion correction    : off

 ************************* Pseudopotential Parameters **************************
  
 pseudopotential representation                 : reciprocal space
 <beta|phi> representation                      : reciprocal space
 spin-orbit coupling                            : off

 **************************** Basis Set Parameters *****************************
  
 plane wave basis set cut-off                   :   900.0000   eV
 size of standard grid                          :     2.0000
 size of   fine   gmax                          :    30.7390   1/A
 finite basis set correction                    : none

 **************************** Electronic Parameters ****************************
  
 number of  electrons                           :  216.0    
 net charge of system                           :  0.000    
 treating system as non-spin-polarized
 number of bands                                :        130

 ********************* Electronic Minimization Parameters **********************
  
 Method: Treating system as metallic with density mixing treatment of electrons,
         and number of  SD  steps               :          1
         and number of  CG  steps               :          4
  
 total energy / atom convergence tol.           : 0.1000E-07   eV
 eigen-energy convergence tolerance             : 0.2222E-08   eV
 max force / atom convergence tol.              : ignored
 convergence tolerance window                   :          3   cycles
 max. number of SCF cycles                      :         50
 number of fixed-spin iterations                :         10
 smearing scheme                                : Gaussian
 smearing width                                 : 0.2000       eV
 Fermi energy convergence tolerance             : 0.2721E-13   eV
 periodic dipole correction                     : NONE

 ************************** Density Mixing Parameters **************************
  
 density-mixing scheme                          : Pulay
 max. length of mixing history                  :         15
 charge density mixing amplitude                : 0.5000    
 cut-off energy for mixing                      :  900.0       eV

 *********************** Population Analysis Parameters ************************
  
 Population analysis with cutoff                :  3.000       A
 Population analysis output                     : summary and pdos components

 ********************** Geometry Optimization Parameters ***********************
  
 optimization method                            : LBFGS
 max. no. of LBFGS updates                      : unbounded
 preconditioned LBFGS is activated
 preconditioner type                            : EXP
     stabilization constant                     :     0.1000
     parameter A                                :     3.0000
     nearest neighbor distance                  : automatic
     cut-off distance                           : automatic
     parameter mu                               : automatic
 variable cell method                           : fixed basis quality
 max. number of steps                           :         30
 estimated bulk modulus                         :  500.0       GPa
 estimated <frequency>                          :  1668.       cm-1
 geom line minimiser                            : on
 with line minimiser tolerance                  :     0.4000
 total energy convergence tolerance             : 0.2000E-04   eV/atom
        max ionic |force| tolerance             : 0.1000E-02   eV/A
 max ionic |displacement| tolerance             : 0.1000E-02   A
   max |stress component| tolerance             : 0.1000       GPa
 convergence tolerance window                   :          2   steps
 backup results every                           :          5   steps
 write geom trajectory file                     : on

 *******************************************************************************
  

                           -------------------------------
                                      Unit Cell
                           -------------------------------
        Real Lattice(A)                      Reciprocal Lattice(1/A)
     5.9012740     0.0000000     0.0000000        1.064716756   0.000000000   0.000000000
     0.0000000     5.9012740     0.0000000        0.000000000   1.064716756  -0.177452803
     0.0000000     2.9506370    17.7038210        0.000000000   0.000000000   0.354905605

                       Lattice parameters(A)       Cell Angles
                    a =      5.901274          alpha =   80.537677
                    b =      5.901274          beta  =   90.000000
                    c =     17.948023          gamma =   90.000000

                       Current cell volume =           616.536183       A**3
                                   density =             2.837629   AMU/A**3
                                           =             4.711994     g/cm^3

                           -------------------------------
                                     Cell Contents
                           -------------------------------
                         Total number of ions in cell =   24
                      Total number of species in cell =    2
                        Max number of any one species =   12

            xxxxxxxxxxxxxxxxxxxxxxxxxxxxxxxxxxxxxxxxxxxxxxxxxxxxxxxxxxxx
            x  Element    Atom        Fractional coordinates of atoms  x
            x            Number           u          v          w      x
            x----------------------------------------------------------x
            x  P            1         0.250000   0.297567   0.904866   x 
            x  P            2         0.250000  -0.118910   0.737820   x 
            x  P            3         0.750000   0.381090   0.737820   x 
            x  P            4         0.750000  -0.202433   0.904866   x 
            x  P            5         0.750000   0.120188   0.259625   x 
            x  P            6         0.750000   0.540333   0.419333   x 
            x  P            7         0.750000  -0.039660   0.579321   x 
            x  P            8         0.250000   0.620188   0.259625   x 
            x  P            9         0.250000   0.200956   0.098087   x 
            x  P           10         0.750000   0.700956   0.098087   x 
            x  P           11         0.250000   0.040333   0.419333   x 
            x  P           12         0.250000   0.460340   0.579321   x 
            x  In           1         0.000000   0.091056   0.817887   x 
            x  In           2         0.500000   0.170588   0.658825   x 
            x  In           3         0.500000  -0.408944   0.817887   x 
            x  In           4         0.500000  -0.089596   0.179192   x 
            x  In           5         0.500000   0.496842   0.006316   x 
            x  In           6         0.000000  -0.003158   0.006316   x 
            x  In           7         0.000000   0.410404   0.179192   x 
            x  In           8         0.000000  -0.329412   0.658825   x 
            x  In           9         0.500000  -0.249657   0.499314   x 
            x  In          10         0.500000   0.330293   0.339415   x 
            x  In          11         0.000000  -0.169707   0.339415   x 
            x  In          12         0.000000   0.250343   0.499314   x 
            xxxxxxxxxxxxxxxxxxxxxxxxxxxxxxxxxxxxxxxxxxxxxxxxxxxxxxxxxxxx


                         No user defined ionic velocities

                           -------------------------------
                                   Details of Species
                           -------------------------------

                               Mass of species in AMU
                                    P   30.9737600
                                    In  114.8180000

                          Electric Quadrupole Moment (Barn)
                                    P    1.0000000 No Isotope Defined
                                    In    0.7700000 Isotope115

                          Files used for pseudopotentials:
                                    P 3|1.8|4|4|5|30:31:32
                                    In 3|2.5|2.5|1.5|7|8|9|50:51:42U2.2U2.2

                           -------------------------------
                              k-Points For BZ Sampling
                           -------------------------------
                       MP grid size for SCF calculation is  6  6  2
                            with an offset of   0.083  0.083  0.250
                       Number of kpoints used =            40

                           -------------------------------
                               Symmetry and Constraints
                           -------------------------------

                      Cell is a supercell containing 2 primitive cells
                      Maximum deviation from symmetry =  0.00000         ANG

                      Number of symmetry operations   =           1
                      Number of ionic constraints     =          48
                      Point group of crystal =     1: C1, 1, 1
                      Space group of crystal =    44: Imm2, I 2 -2

             Set iprint > 1 for details on symmetry rotations/translations

                         Centre of mass is NOT constrained
             Set iprint > 1 for details of linear ionic constraints

                         Number of cell constraints= 6
                         Cell constraints are:  0 0 0 0 0 0

                         External pressure/stress (GPa)
                          0.00000   0.00000   0.00000
                                    0.00000   0.00000
                                              0.00000
 
+---------------- MEMORY AND SCRATCH DISK ESTIMATES PER PROCESS --------------+
|                                                     Memory          Disk    |
| Baseline code, static data and system overhead      386.0 MB         0.0 MB |
| BLAS internal memory storage                          0.0 MB         0.0 MB |
| Model and support data                             2120.5 MB         0.0 MB |
| Electronic energy minimisation requirements         259.1 MB         0.0 MB |
| Force calculation requirements                       47.0 MB         0.0 MB |
|                                               ----------------------------- |
| Approx. total storage required per process         2765.6 MB         0.0 MB |
|                                                                             |
| Requirements will fluctuate during execution and may exceed these estimates |
+-----------------------------------------------------------------------------+
Calculating approximate eigenstates for fixed initial Hamiltonian
Cut-off for approx. calculation is   89.988 eV
Improving approx. states at cut-off of  450.000 eV
Resetting cut-off to  900.000 eV
Calculating total energy with cut-off of  900.000 eV.
------------------------------------------------------------------------ <-- SCF
SCF loop      Energy           Fermi           Energy gain       Timer   <-- SCF
                               energy          per atom          (sec)   <-- SCF
------------------------------------------------------------------------ <-- SCF
Initial  -2.36394689E+004  0.00000000E+000                        67.04  <-- SCF
      1  -2.35478189E+004  2.86040638E+000  -3.81875018E+000     103.22  <-- SCF
      2  -2.35479471E+004  2.85976042E+000   5.34486155E-003     134.07  <-- SCF
      3  -2.35720699E+004  3.18357038E+000   1.00511409E+000     169.86  <-- SCF
      4  -2.35762615E+004  3.21502877E+000   1.74652717E-001     212.45  <-- SCF
      5  -2.35746487E+004  3.40365009E+000  -6.72026064E-002     246.78  <-- SCF
      6  -2.35742070E+004  3.50412018E+000  -1.84030830E-002     279.22  <-- SCF
      7  -2.35740326E+004  3.54273240E+000  -7.26788660E-003     316.70  <-- SCF
      8  -2.35745244E+004  3.52789903E+000   2.04939789E-002     351.22  <-- SCF
      9  -2.35746247E+004  3.51725786E+000   4.17918947E-003     385.08  <-- SCF
     10  -2.35746288E+004  3.50847655E+000   1.70714520E-004     421.17  <-- SCF
     11  -2.35746274E+004  3.52042123E+000  -5.91026581E-005     459.38  <-- SCF
     12  -2.35746274E+004  3.51912444E+000   1.07222213E-006     497.84  <-- SCF
     13  -2.35746274E+004  3.51910882E+000   5.49828045E-007     532.01  <-- SCF
     14  -2.35746274E+004  3.51915163E+000  -8.20808327E-008     560.89  <-- SCF
     15  -2.35746274E+004  3.51899159E+000   1.56500294E-007     592.87  <-- SCF
     16  -2.35746274E+004  3.51902815E+000  -1.62736300E-008     619.67  <-- SCF
     17  -2.35746274E+004  3.51902148E+000   7.15814921E-009     645.17  <-- SCF
     18  -2.35746274E+004  3.51899629E+000   4.02564525E-009     668.96  <-- SCF
     19  -2.35746274E+004  3.51899617E+000   1.12271045E-010     696.71  <-- SCF
------------------------------------------------------------------------ <-- SCF
 
Final energy, E             =  -23574.53637750     eV
Final free energy (E-TS)    =  -23574.62744535     eV
(energies not corrected for finite basis set)
 
NB est. 0K energy (E-0.5TS)      =  -23574.58191142     eV
 
 
+---------------- MEMORY AND SCRATCH DISK ESTIMATES PER PROCESS --------------+
|                                                     Memory          Disk    |
| Model and support data                             1265.6 MB         0.0 MB |
| Electronic energy minimisation requirements         259.1 MB         0.0 MB |
| Geometry minimisation requirements                  302.3 MB         0.0 MB |
|                                               ----------------------------- |
| Approx. total storage required per process         1827.0 MB         0.0 MB |
|                                                                             |
| Requirements will fluctuate during execution and may exceed these estimates |
+-----------------------------------------------------------------------------+
 

 ******************************** Constrained Forces ********************************
 *                                                                                  *
 *                           Cartesian components (eV/A)                            *
 * -------------------------------------------------------------------------------- *
 *                         x                    y                    z              *
 *                                                                                  *
 * P               1      0.00000(cons'd)      0.00000(cons'd)      0.13615         *
 * P               2      0.00000(cons'd)      0.00000(cons'd)      0.08733         *
 * P               3      0.00000(cons'd)      0.00000(cons'd)      0.08733         *
 * P               4      0.00000(cons'd)      0.00000(cons'd)      0.13615         *
 * P               5      0.00000(cons'd)     -0.00000(cons'd)     -0.05961         *
 * P               6      0.00000(cons'd)      0.00000(cons'd)      0.01603         *
 * P               7     -0.00000(cons'd)      0.00000(cons'd)     -0.06050         *
 * P               8      0.00000(cons'd)     -0.00000(cons'd)     -0.05961         *
 * P               9      0.00000(cons'd)      0.00000(cons'd)     -0.16580         *
 * P              10      0.00000(cons'd)      0.00000(cons'd)     -0.16580         *
 * P              11      0.00000(cons'd)     -0.00000(cons'd)      0.01603         *
 * P              12     -0.00000(cons'd)      0.00000(cons'd)     -0.06050         *
 * In              1      0.00000(cons'd)      0.00000(cons'd)     -0.06842         *
 * In              2      0.00000(cons'd)      0.00000(cons'd)     -0.03169         *
 * In              3     -0.00000(cons'd)      0.00000(cons'd)     -0.06842         *
 * In              4      0.00000(cons'd)      0.00000(cons'd)      0.06781         *
 * In              5      0.00000(cons'd)      0.00000(cons'd)      0.09900         *
 * In              6      0.00000(cons'd)      0.00000(cons'd)      0.09900         *
 * In              7      0.00000(cons'd)      0.00000(cons'd)      0.06781         *
 * In              8      0.00000(cons'd)      0.00000(cons'd)     -0.03169         *
 * In              9      0.00000(cons'd)      0.00000(cons'd)     -0.00398         *
 * In             10      0.00000(cons'd)      0.00000(cons'd)     -0.01632         *
 * In             11      0.00000(cons'd)      0.00000(cons'd)     -0.01632         *
 * In             12      0.00000(cons'd)      0.00000(cons'd)     -0.00398         *
 *                                                                                  *
 ************************************************************************************
 EXP precond LBFGS => estimated nearest neighbor distance :  2.644       A
 EXP precond LBFGS => estimated cutoff distance :  5.289       A

 ************************************** Forces **************************************
 *                                                                                  *
 *                           Cartesian components (eV/A)                            *
 * -------------------------------------------------------------------------------- *
 *                         x                    y                    z              *
 *                                                                                  *
 * P               1     -0.00065(cons'd)     -0.00343(cons'd)      0.13615         *
 * P               2     -0.00041(cons'd)     -0.00333(cons'd)      0.08733         *
 * P               3     -0.00041(cons'd)     -0.00333(cons'd)      0.08733         *
 * P               4     -0.00065(cons'd)     -0.00343(cons'd)      0.13615         *
 * P               5      0.00032(cons'd)      0.00302(cons'd)     -0.05961         *
 * P               6      0.00090(cons'd)      0.00152(cons'd)      0.01603         *
 * P               7      0.00073(cons'd)     -0.00276(cons'd)     -0.06050         *
 * P               8      0.00032(cons'd)      0.00302(cons'd)     -0.05961         *
 * P               9     -0.00043(cons'd)     -0.00128(cons'd)     -0.16580         *
 * P              10     -0.00043(cons'd)     -0.00128(cons'd)     -0.16580         *
 * P              11      0.00090(cons'd)      0.00152(cons'd)      0.01603         *
 * P              12      0.00073(cons'd)     -0.00276(cons'd)     -0.06050         *
 * In              1      0.00002(cons'd)      0.00101(cons'd)     -0.06842         *
 * In              2     -0.00010(cons'd)      0.00109(cons'd)     -0.03169         *
 * In              3      0.00002(cons'd)      0.00101(cons'd)     -0.06842         *
 * In              4     -0.00014(cons'd)      0.00106(cons'd)      0.06781         *
 * In              5     -0.00008(cons'd)      0.00108(cons'd)      0.09900         *
 * In              6     -0.00009(cons'd)      0.00109(cons'd)      0.09900         *
 * In              7     -0.00015(cons'd)      0.00106(cons'd)      0.06781         *
 * In              8     -0.00010(cons'd)      0.00109(cons'd)     -0.03169         *
 * In              9     -0.00007(cons'd)      0.00103(cons'd)     -0.00398         *
 * In             10     -0.00007(cons'd)      0.00099(cons'd)     -0.01632         *
 * In             11     -0.00007(cons'd)      0.00099(cons'd)     -0.01632         *
 * In             12     -0.00007(cons'd)      0.00103(cons'd)     -0.00398         *
 *                                                                                  *
 ************************************************************************************
 doing test perturbation to get energy scale for EXP preconditioner

                           -------------------------------
                                     Cell Contents
                           -------------------------------

            xxxxxxxxxxxxxxxxxxxxxxxxxxxxxxxxxxxxxxxxxxxxxxxxxxxxxxxxxxxxxxxxx
            x  Element         Atom        Fractional coordinates of atoms  x
            x                 Number           u          v          w      x
            x---------------------------------------------------------------x
            x  P                 1         0.251466   0.299990   0.906129   x
            x  P                 2         0.251466   0.884796   0.738913   x
            x  P                 3         0.753771   0.383598   0.738913   x
            x  P                 4         0.753771   0.801188   0.906129   x
            x  P                 5         0.753771   0.121083   0.260050   x
            x  P                 6         0.753771   0.543052   0.420005   x
            x  P                 7         0.753771   0.964143   0.580218   x
            x  P                 8         0.251466   0.623029   0.260050   x
            x  P                 9         0.251466   0.201984   0.098250   x
            x  P                10         0.753771   0.703929   0.098250   x
            x  P                11         0.251466   0.041106   0.420005   x
            x  P                12         0.251466   0.462945   0.580218   x
            x  In                1         0.000000   0.092615   0.819067   x
            x  In                2         0.502771   0.172236   0.659824   x
            x  In                3         0.502771   0.594237   0.819067   x
            x  In                4         0.502771   0.914027   0.179488   x
            x  In                5         0.502771   0.498985   0.006326   x
            x  In                6         0.000000   1.000608   0.006326   x
            x  In                7         0.000000   0.412404   0.179488   x
            x  In                8         0.000000   0.673859   0.659824   x
            x  In                9         0.502771   0.753720   0.500102   x
            x  In               10         0.502771   0.332165   0.339966   x
            x  In               11         0.000000   0.833788   0.339966   x
            x  In               12         0.000000   0.252098   0.500102   x
            xxxxxxxxxxxxxxxxxxxxxxxxxxxxxxxxxxxxxxxxxxxxxxxxxxxxxxxxxxxxxxxxx


------------------------------------------------------------------------ <-- SCF
SCF loop      Energy           Fermi           Energy gain       Timer   <-- SCF
                               energy          per atom          (sec)   <-- SCF
------------------------------------------------------------------------ <-- SCF
Initial  -2.35732898E+004  0.00000000E+000                       736.45  <-- SCF
      1  -2.35744722E+004  3.51289920E+000   4.92699011E-002     769.06  <-- SCF
      2  -2.35746129E+004  3.51281144E+000   5.86023321E-003     811.01  <-- SCF
      3  -2.35746133E+004  3.51358231E+000   1.77742978E-005     845.29  <-- SCF
      4  -2.35746142E+004  3.51431560E+000   3.65865365E-005     881.28  <-- SCF
      5  -2.35746144E+004  3.51432464E+000   7.19305944E-006     919.26  <-- SCF
      6  -2.35746144E+004  3.51422907E+000   1.22373622E-006     955.80  <-- SCF
      7  -2.35746144E+004  3.51420169E+000   5.62753781E-008     988.60  <-- SCF
      8  -2.35746144E+004  3.51415893E+000  -2.25690581E-008    1019.88  <-- SCF
      9  -2.35746144E+004  3.51413090E+000  -6.31141155E-009    1049.41  <-- SCF
     10  -2.35746144E+004  3.51410699E+000  -4.45346110E-010    1076.72  <-- SCF
     11  -2.35746144E+004  3.51409465E+000   5.88166222E-010    1103.36  <-- SCF
------------------------------------------------------------------------ <-- SCF
 
Final energy, E             =  -23574.52702112     eV
Final free energy (E-TS)    =  -23574.61438520     eV
(energies not corrected for finite basis set)
 
NB est. 0K energy (E-0.5TS)      =  -23574.57070316     eV
 

 ************************************** Forces **************************************
 *                                                                                  *
 *                           Cartesian components (eV/A)                            *
 * -------------------------------------------------------------------------------- *
 *                         x                    y                    z              *
 *                                                                                  *
 * P               1      0.02527(cons'd)      0.02418(cons'd)      0.05936         *
 * P               2      0.03330(cons'd)     -0.07453(cons'd)      0.09799         *
 * P               3     -0.14341(cons'd)      0.01946(cons'd)      0.09956         *
 * P               4     -0.01950(cons'd)     -0.02038(cons'd)      0.09808         *
 * P               5     -0.15389(cons'd)      0.12734(cons'd)     -0.05524         *
 * P               6     -0.14438(cons'd)     -0.02088(cons'd)      0.01735         *
 * P               7     -0.15429(cons'd)     -0.08326(cons'd)     -0.05845         *
 * P               8      0.02817(cons'd)     -0.02968(cons'd)     -0.05709         *
 * P               9      0.00038(cons'd)      0.07966(cons'd)     -0.13085         *
 * P              10     -0.11164(cons'd)     -0.00922(cons'd)     -0.15614         *
 * P              11      0.02395(cons'd)      0.12254(cons'd)      0.01671         *
 * P              12      0.03177(cons'd)     -0.00296(cons'd)     -0.05542         *
 * In              1      0.09988(cons'd)      0.02475(cons'd)     -0.09976         *
 * In              2     -0.05909(cons'd)      0.10008(cons'd)     -0.03708         *
 * In              3     -0.05345(cons'd)     -0.02079(cons'd)     -0.12177         *
 * In              4     -0.05807(cons'd)     -0.10221(cons'd)      0.06972         *
 * In              5     -0.02699(cons'd)     -0.03915(cons'd)      0.19714         *
 * In              6      0.02617(cons'd)      0.02599(cons'd)      0.15063         *
 * In              7      0.16256(cons'd)      0.01485(cons'd)      0.07014         *
 * In              8      0.17774(cons'd)     -0.03154(cons'd)     -0.03747         *
 * In              9     -0.02219(cons'd)     -0.07362(cons'd)      0.02511         *
 * In             10     -0.05784(cons'd)      0.02019(cons'd)     -0.02400         *
 * In             11      0.17948(cons'd)     -0.11556(cons'd)     -0.01888         *
 * In             12      0.21606(cons'd)      0.06473(cons'd)     -0.04965         *
 *                                                                                  *
 ************************************************************************************
 EXP precond LBFGS => estimated parameter mu :  1.526       eV/A**2
 LBFGS: finished iteration     0 with enthalpy= -2.35746274E+004 eV
  
 +-----------+-----------------+-----------------+------------+-----+ <-- LBFGS
 | Parameter |      value      |    tolerance    |    units   | OK? | <-- LBFGS
 +-----------+-----------------+-----------------+------------+-----+ <-- LBFGS
 |  dE/ion   |   0.000000E+000 |   2.000000E-005 |         eV | No  | <-- LBFGS
 |  |F|max   |   2.309523E-001 |   1.000000E-003 |       eV/A | No  | <-- LBFGS
 |  |dR|max  |   3.789292E-015 |   1.000000E-003 |          A | No  | <-- LBFGS
 +-----------+-----------------+-----------------+------------+-----+ <-- LBFGS
  

================================================================================
 Starting LBFGS iteration          1 ...
================================================================================
  
 +------------+-------------+-------------+-----------------+ <-- min LBFGS
 |    Step    |   lambda    |   F.delta'  |    enthalpy     | <-- min LBFGS
 +------------+-------------+-------------+-----------------+ <-- min LBFGS
 |  previous  |    0.000000 |    0.174361 |   -23574.627445 | <-- min LBFGS
 +------------+-------------+-------------+-----------------+ <-- min LBFGS
  

--------------------------------------------------------------------------------
 LBFGS: starting iteration         1 with trial guess (lambda=  1.000000)
--------------------------------------------------------------------------------

                           -------------------------------
                                     Cell Contents
                           -------------------------------

            xxxxxxxxxxxxxxxxxxxxxxxxxxxxxxxxxxxxxxxxxxxxxxxxxxxxxxxxxxxxxxxxx
            x  Element         Atom        Fractional coordinates of atoms  x
            x                 Number           u          v          w      x
            x---------------------------------------------------------------x
            x  P                 1         0.250000   0.296776   0.906447   x
            x  P                 2         0.250000  -0.119315   0.738629   x
            x  P                 3         0.750000   0.380685   0.738629   x
            x  P                 4         0.750000  -0.203224   0.906447   x
            x  P                 5         0.750000   0.120579   0.258842   x
            x  P                 6         0.750000   0.540556   0.418888   x
            x  P                 7         0.750000  -0.039374   0.578749   x
            x  P                 8         0.250000   0.620579   0.258842   x
            x  P                 9         0.250000   0.201350   0.097300   x
            x  P                10         0.750000   0.701350   0.097300   x
            x  P                11         0.250000   0.040556   0.418888   x
            x  P                12         0.250000   0.460626   0.578749   x
            x  In                1         0.000000   0.090785   0.818429   x
            x  In                2         0.500000   0.170622   0.658756   x
            x  In                3         0.500000  -0.409215   0.818429   x
            x  In                4         0.500000  -0.089515   0.179030   x
            x  In                5         0.500000   0.496327   0.007346   x
            x  In                6         0.000000  -0.003673   0.007346   x
            x  In                7         0.000000   0.410485   0.179030   x
            x  In                8         0.000000  -0.329378   0.658756   x
            x  In                9         0.500000  -0.249421   0.498841   x
            x  In               10         0.500000   0.330628   0.338743   x
            x  In               11         0.000000  -0.169372   0.338743   x
            x  In               12         0.000000   0.250579   0.498841   x
            xxxxxxxxxxxxxxxxxxxxxxxxxxxxxxxxxxxxxxxxxxxxxxxxxxxxxxxxxxxxxxxxx


------------------------------------------------------------------------ <-- SCF
SCF loop      Energy           Fermi           Energy gain       Timer   <-- SCF
                               energy          per atom          (sec)   <-- SCF
------------------------------------------------------------------------ <-- SCF
Initial  -2.35730312E+004  0.00000000E+000                      1127.36  <-- SCF
      1  -2.35744670E+004  3.53130177E+000   5.98279230E-002    1159.95  <-- SCF
      2  -2.35746342E+004  3.53122445E+000   6.96531266E-003    1199.59  <-- SCF
      3  -2.35746349E+004  3.53555378E+000   3.04079984E-005    1240.46  <-- SCF
      4  -2.35746360E+004  3.53907026E+000   4.22559165E-005    1277.67  <-- SCF
      5  -2.35746361E+004  3.54100673E+000   5.70002598E-006    1318.25  <-- SCF
      6  -2.35746361E+004  3.54252909E+000   7.58891555E-007    1355.67  <-- SCF
      7  -2.35746361E+004  3.54366222E+000  -3.18509991E-007    1391.63  <-- SCF
      8  -2.35746361E+004  3.54461218E+000  -2.18951869E-007    1425.03  <-- SCF
      9  -2.35746361E+004  3.54509348E+000  -3.44125577E-008    1454.52  <-- SCF
     10  -2.35746361E+004  3.54525519E+000   1.91621281E-009    1485.29  <-- SCF
     11  -2.35746361E+004  3.54528744E+000   8.17477577E-010    1512.31  <-- SCF
------------------------------------------------------------------------ <-- SCF
 
Final energy, E             =  -23574.54716799     eV
Final free energy (E-TS)    =  -23574.63609610     eV
(energies not corrected for finite basis set)
 
NB est. 0K energy (E-0.5TS)      =  -23574.59163204     eV
 

 ******************************** Constrained Forces ********************************
 *                                                                                  *
 *                           Cartesian components (eV/A)                            *
 * -------------------------------------------------------------------------------- *
 *                         x                    y                    z              *
 *                                                                                  *
 * P               1      0.00000(cons'd)      0.00000(cons'd)      0.00038         *
 * P               2     -0.00000(cons'd)      0.00000(cons'd)     -0.02414         *
 * P               3      0.00000(cons'd)      0.00000(cons'd)     -0.02414         *
 * P               4      0.00000(cons'd)      0.00000(cons'd)      0.00037         *
 * P               5     -0.00000(cons'd)      0.00000(cons'd)      0.00531         *
 * P               6      0.00000(cons'd)     -0.00000(cons'd)     -0.01486         *
 * P               7     -0.00000(cons'd)      0.00000(cons'd)      0.00601         *
 * P               8     -0.00000(cons'd)     -0.00000(cons'd)      0.00532         *
 * P               9      0.00000(cons'd)      0.00000(cons'd)      0.05050         *
 * P              10      0.00000(cons'd)      0.00000(cons'd)      0.05051         *
 * P              11     -0.00000(cons'd)     -0.00000(cons'd)     -0.01486         *
 * P              12      0.00000(cons'd)      0.00000(cons'd)      0.00601         *
 * In              1      0.00000(cons'd)      0.00000(cons'd)      0.02747         *
 * In              2      0.00000(cons'd)      0.00000(cons'd)      0.00486         *
 * In              3      0.00000(cons'd)      0.00000(cons'd)      0.02748         *
 * In              4      0.00000(cons'd)      0.00000(cons'd)     -0.02640         *
 * In              5      0.00000(cons'd)      0.00000(cons'd)     -0.02874         *
 * In              6      0.00000(cons'd)      0.00000(cons'd)     -0.02870         *
 * In              7      0.00000(cons'd)      0.00000(cons'd)     -0.02638         *
 * In              8      0.00000(cons'd)      0.00000(cons'd)      0.00486         *
 * In              9      0.00000(cons'd)      0.00000(cons'd)     -0.00714         *
 * In             10      0.00000(cons'd)      0.00000(cons'd)      0.00669         *
 * In             11     -0.00000(cons'd)      0.00000(cons'd)      0.00669         *
 * In             12      0.00000(cons'd)      0.00000(cons'd)     -0.00714         *
 *                                                                                  *
 ************************************************************************************
  
 +------------+-------------+-------------+-----------------+ <-- min LBFGS
 |    Step    |   lambda    |   F.delta'  |    enthalpy     | <-- min LBFGS
 +------------+-------------+-------------+-----------------+ <-- min LBFGS
 |  previous  |    0.000000 |    0.174361 |   -23574.627445 | <-- min LBFGS
 | trial step |    1.000000 |   -0.022295 |   -23574.636096 | <-- min LBFGS
 +------------+-------------+-------------+-----------------+ <-- min LBFGS
  
 LBFGS: finished iteration     1 with enthalpy= -2.35746361E+004 eV
  
 +-----------+-----------------+-----------------+------------+-----+ <-- LBFGS
 | Parameter |      value      |    tolerance    |    units   | OK? | <-- LBFGS
 +-----------+-----------------+-----------------+------------+-----+ <-- LBFGS
 |  dE/ion   |   3.604477E-004 |   2.000000E-005 |         eV | No  | <-- LBFGS
 |  |F|max   |   5.050676E-002 |   1.000000E-003 |       eV/A | No  | <-- LBFGS
 |  |dR|max  |   2.799472E-002 |   1.000000E-003 |          A | No  | <-- LBFGS
 +-----------+-----------------+-----------------+------------+-----+ <-- LBFGS
  

================================================================================
 Starting LBFGS iteration          2 ...
================================================================================
  
 +------------+-------------+-------------+-----------------+ <-- min LBFGS
 |    Step    |   lambda    |   F.delta'  |    enthalpy     | <-- min LBFGS
 +------------+-------------+-------------+-----------------+ <-- min LBFGS
 |  previous  |    0.000000 |    0.049703 |   -23574.636096 | <-- min LBFGS
 +------------+-------------+-------------+-----------------+ <-- min LBFGS
  

--------------------------------------------------------------------------------
 LBFGS: starting iteration         2 with trial guess (lambda=  1.000000)
--------------------------------------------------------------------------------

                           -------------------------------
                                     Cell Contents
                           -------------------------------

            xxxxxxxxxxxxxxxxxxxxxxxxxxxxxxxxxxxxxxxxxxxxxxxxxxxxxxxxxxxxxxxxx
            x  Element         Atom        Fractional coordinates of atoms  x
            x                 Number           u          v          w      x
            x---------------------------------------------------------------x
            x  P                 1         0.250000   0.296725   0.906549   x
            x  P                 2         0.250000  -0.119279   0.738558   x
            x  P                 3         0.750000   0.380721   0.738558   x
            x  P                 4         0.750000  -0.203275   0.906549   x
            x  P                 5         0.750000   0.120583   0.258834   x
            x  P                 6         0.750000   0.540629   0.418741   x
            x  P                 7         0.750000  -0.039352   0.578704   x
            x  P                 8         0.250000   0.620583   0.258834   x
            x  P                 9         0.250000   0.201221   0.097558   x
            x  P                10         0.750000   0.701221   0.097558   x
            x  P                11         0.250000   0.040629   0.418741   x
            x  P                12         0.250000   0.460648   0.578704   x
            x  In                1         0.000000   0.090708   0.818584   x
            x  In                2         0.500000   0.170634   0.658732   x
            x  In                3         0.500000  -0.409292   0.818584   x
            x  In                4         0.500000  -0.089491   0.178982   x
            x  In                5         0.500000   0.496337   0.007326   x
            x  In                6         0.000000  -0.003663   0.007326   x
            x  In                7         0.000000   0.410509   0.178982   x
            x  In                8         0.000000  -0.329366   0.658732   x
            x  In                9         0.500000  -0.249360   0.498719   x
            x  In               10         0.500000   0.330644   0.338712   x
            x  In               11        -0.000000  -0.169356   0.338712   x
            x  In               12         0.000000   0.250640   0.498719   x
            xxxxxxxxxxxxxxxxxxxxxxxxxxxxxxxxxxxxxxxxxxxxxxxxxxxxxxxxxxxxxxxxx


------------------------------------------------------------------------ <-- SCF
SCF loop      Energy           Fermi           Energy gain       Timer   <-- SCF
                               energy          per atom          (sec)   <-- SCF
------------------------------------------------------------------------ <-- SCF
Initial  -2.35745433E+004  0.00000000E+000                      1535.79  <-- SCF
      1  -2.35746360E+004  3.54209529E+000   3.86366616E-003    1570.96  <-- SCF
      2  -2.35746365E+004  3.54209475E+000   2.09994001E-005    1616.99  <-- SCF
      3  -2.35746365E+004  3.54081813E+000  -5.24259507E-007    1653.78  <-- SCF
      4  -2.35746365E+004  3.54028751E+000  -1.46068368E-007    1686.85  <-- SCF
      5  -2.35746365E+004  3.53985452E+000  -5.69462975E-008    1718.61  <-- SCF
      6  -2.35746365E+004  3.53939103E+000  -5.56051032E-008    1749.49  <-- SCF
      7  -2.35746365E+004  3.53904576E+000  -2.54279094E-008    1780.95  <-- SCF
      8  -2.35746365E+004  3.53890168E+000  -3.80587243E-009    1808.79  <-- SCF
      9  -2.35746365E+004  3.53882555E+000  -5.16369469E-010    1834.96  <-- SCF
------------------------------------------------------------------------ <-- SCF
 
Final energy, E             =  -23574.54770345     eV
Final free energy (E-TS)    =  -23574.63649765     eV
(energies not corrected for finite basis set)
 
NB est. 0K energy (E-0.5TS)      =  -23574.59210055     eV
 

 ******************************** Constrained Forces ********************************
 *                                                                                  *
 *                           Cartesian components (eV/A)                            *
 * -------------------------------------------------------------------------------- *
 *                         x                    y                    z              *
 *                                                                                  *
 * P               1      0.00000(cons'd)      0.00000(cons'd)      0.00250         *
 * P               2      0.00000(cons'd)      0.00000(cons'd)      0.00168         *
 * P               3     -0.00000(cons'd)      0.00000(cons'd)      0.00168         *
 * P               4      0.00000(cons'd)      0.00000(cons'd)      0.00251         *
 * P               5     -0.00000(cons'd)      0.00000(cons'd)      0.00208         *
 * P               6     -0.00000(cons'd)      0.00000(cons'd)      0.00203         *
 * P               7      0.00000(cons'd)      0.00000(cons'd)     -0.00045         *
 * P               8      0.00000(cons'd)     -0.00000(cons'd)      0.00206         *
 * P               9      0.00000(cons'd)      0.00000(cons'd)      0.00093         *
 * P              10      0.00000(cons'd)      0.00000(cons'd)      0.00092         *
 * P              11      0.00000(cons'd)      0.00000(cons'd)      0.00203         *
 * P              12      0.00000(cons'd)      0.00000(cons'd)     -0.00045         *
 * In              1      0.00000(cons'd)      0.00000(cons'd)     -0.00429         *
 * In              2      0.00000(cons'd)      0.00000(cons'd)     -0.00094         *
 * In              3     -0.00000(cons'd)      0.00000(cons'd)     -0.00429         *
 * In              4      0.00000(cons'd)      0.00000(cons'd)      0.00360         *
 * In              5      0.00000(cons'd)      0.00000(cons'd)     -0.00223         *
 * In              6      0.00000(cons'd)      0.00000(cons'd)     -0.00225         *
 * In              7      0.00000(cons'd)      0.00000(cons'd)      0.00359         *
 * In              8      0.00000(cons'd)      0.00000(cons'd)     -0.00094         *
 * In              9      0.00000(cons'd)      0.00000(cons'd)     -0.00009         *
 * In             10      0.00000(cons'd)      0.00000(cons'd)     -0.00479         *
 * In             11      0.00000(cons'd)      0.00000(cons'd)     -0.00479         *
 * In             12      0.00000(cons'd)      0.00000(cons'd)     -0.00009         *
 *                                                                                  *
 ************************************************************************************
  
 +------------+-------------+-------------+-----------------+ <-- min LBFGS
 |    Step    |   lambda    |   F.delta'  |    enthalpy     | <-- min LBFGS
 +------------+-------------+-------------+-----------------+ <-- min LBFGS
 |  previous  |    0.000000 |    0.049703 |   -23574.636096 | <-- min LBFGS
 | trial step |    1.000000 |   -0.001135 |   -23574.636498 | <-- min LBFGS
 +------------+-------------+-------------+-----------------+ <-- min LBFGS
  
 LBFGS: finished iteration     2 with enthalpy= -2.35746365E+004 eV
  
 +-----------+-----------------+-----------------+------------+-----+ <-- LBFGS
 | Parameter |      value      |    tolerance    |    units   | OK? | <-- LBFGS
 +-----------+-----------------+-----------------+------------+-----+ <-- LBFGS
 |  dE/ion   |   1.673129E-005 |   2.000000E-005 |         eV | Yes | <-- LBFGS
 |  |F|max   |   4.792006E-003 |   1.000000E-003 |       eV/A | No  | <-- LBFGS
 |  |dR|max  |   4.563860E-003 |   1.000000E-003 |          A | No  | <-- LBFGS
 +-----------+-----------------+-----------------+------------+-----+ <-- LBFGS
  

================================================================================
 Starting LBFGS iteration          3 ...
================================================================================
  
 +------------+-------------+-------------+-----------------+ <-- min LBFGS
 |    Step    |   lambda    |   F.delta'  |    enthalpy     | <-- min LBFGS
 +------------+-------------+-------------+-----------------+ <-- min LBFGS
 |  previous  |    0.000000 |    0.005314 |   -23574.636498 | <-- min LBFGS
 +------------+-------------+-------------+-----------------+ <-- min LBFGS
  

--------------------------------------------------------------------------------
 LBFGS: starting iteration         3 with trial guess (lambda=  1.000000)
--------------------------------------------------------------------------------

                           -------------------------------
                                     Cell Contents
                           -------------------------------

            xxxxxxxxxxxxxxxxxxxxxxxxxxxxxxxxxxxxxxxxxxxxxxxxxxxxxxxxxxxxxxxxx
            x  Element         Atom        Fractional coordinates of atoms  x
            x                 Number           u          v          w      x
            x---------------------------------------------------------------x
            x  P                 1         0.250000   0.296723   0.906554   x
            x  P                 2         0.250000  -0.119273   0.738545   x
            x  P                 3         0.750000   0.380727   0.738545   x
            x  P                 4         0.750000  -0.203277   0.906554   x
            x  P                 5         0.750000   0.120570   0.258859   x
            x  P                 6         0.750000   0.540627   0.418745   x
            x  P                 7         0.750000  -0.039345   0.578691   x
            x  P                 8         0.250000   0.620570   0.258859   x
            x  P                 9         0.250000   0.201206   0.097587   x
            x  P                10         0.750000   0.701206   0.097587   x
            x  P                11         0.250000   0.040627   0.418745   x
            x  P                12         0.250000   0.460655   0.578691   x
            x  In                1         0.000000   0.090723   0.818553   x
            x  In                2         0.500000   0.170643   0.658714   x
            x  In                3         0.500000  -0.409277   0.818553   x
            x  In                4         0.500000  -0.089511   0.179022   x
            x  In                5         0.500000   0.496340   0.007320   x
            x  In                6         0.000000  -0.003660   0.007320   x
            x  In                7         0.000000   0.410489   0.179022   x
            x  In                8         0.000000  -0.329357   0.658714   x
            x  In                9         0.500000  -0.249356   0.498712   x
            x  In               10         0.500000   0.330651   0.338698   x
            x  In               11        -0.000000  -0.169349   0.338698   x
            x  In               12         0.000000   0.250644   0.498712   x
            xxxxxxxxxxxxxxxxxxxxxxxxxxxxxxxxxxxxxxxxxxxxxxxxxxxxxxxxxxxxxxxxx


------------------------------------------------------------------------ <-- SCF
SCF loop      Energy           Fermi           Energy gain       Timer   <-- SCF
                               energy          per atom          (sec)   <-- SCF
------------------------------------------------------------------------ <-- SCF
Initial  -2.35745489E+004  0.00000000E+000                      1858.69  <-- SCF
      1  -2.35746365E+004  3.53900375E+000   3.64945066E-003    1893.20  <-- SCF
      2  -2.35746365E+004  3.53900374E+000   1.48839761E-006    1934.54  <-- SCF
      3  -2.35746365E+004  3.53898004E+000   5.52538534E-009    1961.57  <-- SCF
      4  -2.35746365E+004  3.53904000E+000   6.04716856E-009    1988.00  <-- SCF
      5  -2.35746365E+004  3.53905342E+000   1.92897381E-009    2014.64  <-- SCF
------------------------------------------------------------------------ <-- SCF
 
Final energy, E             =  -23574.54768118     eV
Final free energy (E-TS)    =  -23574.63650391     eV
(energies not corrected for finite basis set)
 
NB est. 0K energy (E-0.5TS)      =  -23574.59209254     eV
 

 ******************************** Constrained Forces ********************************
 *                                                                                  *
 *                           Cartesian components (eV/A)                            *
 * -------------------------------------------------------------------------------- *
 *                         x                    y                    z              *
 *                                                                                  *
 * P               1      0.00000(cons'd)      0.00000(cons'd)      0.00081         *
 * P               2      0.00000(cons'd)      0.00000(cons'd)      0.00003         *
 * P               3     -0.00000(cons'd)      0.00000(cons'd)      0.00003         *
 * P               4      0.00000(cons'd)      0.00000(cons'd)      0.00081         *
 * P               5      0.00000(cons'd)     -0.00000(cons'd)     -0.00010         *
 * P               6     -0.00000(cons'd)     -0.00000(cons'd)     -0.00021         *
 * P               7      0.00000(cons'd)      0.00000(cons'd)      0.00025         *
 * P               8     -0.00000(cons'd)     -0.00000(cons'd)     -0.00010         *
 * P               9      0.00000(cons'd)      0.00000(cons'd)     -0.00085         *
 * P              10      0.00000(cons'd)      0.00000(cons'd)     -0.00084         *
 * P              11      0.00000(cons'd)      0.00000(cons'd)     -0.00021         *
 * P              12     -0.00000(cons'd)      0.00000(cons'd)      0.00025         *
 * In              1     -0.00000(cons'd)      0.00000(cons'd)      0.00077         *
 * In              2      0.00000(cons'd)      0.00000(cons'd)     -0.00019         *
 * In              3      0.00000(cons'd)      0.00000(cons'd)      0.00077         *
 * In              4      0.00000(cons'd)      0.00000(cons'd)     -0.00154         *
 * In              5      0.00000(cons'd)      0.00000(cons'd)     -0.00012         *
 * In              6      0.00000(cons'd)      0.00000(cons'd)     -0.00013         *
 * In              7      0.00000(cons'd)      0.00000(cons'd)     -0.00154         *
 * In              8      0.00000(cons'd)      0.00000(cons'd)     -0.00019         *
 * In              9      0.00000(cons'd)      0.00000(cons'd)     -0.00037         *
 * In             10      0.00000(cons'd)      0.00000(cons'd)      0.00153         *
 * In             11      0.00000(cons'd)      0.00000(cons'd)      0.00153         *
 * In             12      0.00000(cons'd)      0.00000(cons'd)     -0.00037         *
 *                                                                                  *
 ************************************************************************************
  
 +------------+-------------+-------------+-----------------+ <-- min LBFGS
 |    Step    |   lambda    |   F.delta'  |    enthalpy     | <-- min LBFGS
 +------------+-------------+-------------+-----------------+ <-- min LBFGS
 |  previous  |    0.000000 |    0.005314 |   -23574.636498 | <-- min LBFGS
 | trial step |    1.000000 |   -0.001492 |   -23574.636504 | <-- min LBFGS
 +------------+-------------+-------------+-----------------+ <-- min LBFGS
  
 LBFGS: finished iteration     3 with enthalpy= -2.35746365E+004 eV
  
 +-----------+-----------------+-----------------+------------+-----+ <-- LBFGS
 | Parameter |      value      |    tolerance    |    units   | OK? | <-- LBFGS
 +-----------+-----------------+-----------------+------------+-----+ <-- LBFGS
 |  dE/ion   |   2.609639E-007 |   2.000000E-005 |         eV | Yes | <-- LBFGS
 |  |F|max   |   1.543178E-003 |   1.000000E-003 |       eV/A | No  | <-- LBFGS
 |  |dR|max  |   7.188976E-004 |   1.000000E-003 |          A | Yes | <-- LBFGS
 +-----------+-----------------+-----------------+------------+-----+ <-- LBFGS
  

================================================================================
 Starting LBFGS iteration          4 ...
================================================================================
  
 +------------+-------------+-------------+-----------------+ <-- min LBFGS
 |    Step    |   lambda    |   F.delta'  |    enthalpy     | <-- min LBFGS
 +------------+-------------+-------------+-----------------+ <-- min LBFGS
 |  previous  |    0.000000 |    0.001764 |   -23574.636504 | <-- min LBFGS
 +------------+-------------+-------------+-----------------+ <-- min LBFGS
  

--------------------------------------------------------------------------------
 LBFGS: starting iteration         4 with trial guess (lambda=  1.000000)
--------------------------------------------------------------------------------

                           -------------------------------
                                     Cell Contents
                           -------------------------------

            xxxxxxxxxxxxxxxxxxxxxxxxxxxxxxxxxxxxxxxxxxxxxxxxxxxxxxxxxxxxxxxxx
            x  Element         Atom        Fractional coordinates of atoms  x
            x                 Number           u          v          w      x
            x---------------------------------------------------------------x
            x  P                 1         0.250000   0.296720   0.906561   x
            x  P                 2         0.250000  -0.119275   0.738551   x
            x  P                 3         0.750000   0.380725   0.738551   x
            x  P                 4         0.750000  -0.203280   0.906561   x
            x  P                 5         0.750000   0.120572   0.258855   x
            x  P                 6         0.750000   0.540627   0.418746   x
            x  P                 7         0.750000  -0.039347   0.578693   x
            x  P                 8         0.250000   0.620572   0.258855   x
            x  P                 9         0.250000   0.201212   0.097576   x
            x  P                10         0.750000   0.701212   0.097576   x
            x  P                11         0.250000   0.040627   0.418746   x
            x  P                12         0.250000   0.460653   0.578693   x
            x  In                1        -0.000000   0.090720   0.818561   x
            x  In                2         0.500000   0.170641   0.658717   x
            x  In                3         0.500000  -0.409280   0.818561   x
            x  In                4         0.500000  -0.089505   0.179010   x
            x  In                5         0.500000   0.496342   0.007316   x
            x  In                6         0.000000  -0.003658   0.007317   x
            x  In                7         0.000000   0.410495   0.179010   x
            x  In                8         0.000000  -0.329359   0.658717   x
            x  In                9         0.500000  -0.249356   0.498712   x
            x  In               10         0.500000   0.330649   0.338702   x
            x  In               11        -0.000000  -0.169351   0.338702   x
            x  In               12         0.000000   0.250644   0.498712   x
            xxxxxxxxxxxxxxxxxxxxxxxxxxxxxxxxxxxxxxxxxxxxxxxxxxxxxxxxxxxxxxxxx


------------------------------------------------------------------------ <-- SCF
SCF loop      Energy           Fermi           Energy gain       Timer   <-- SCF
                               energy          per atom          (sec)   <-- SCF
------------------------------------------------------------------------ <-- SCF
Initial  -2.35745469E+004  0.00000000E+000                      2040.15  <-- SCF
      1  -2.35746365E+004  3.53901324E+000   3.73374808E-003    2076.39  <-- SCF
      2  -2.35746365E+004  3.53901323E+000   1.13681072E-007    2112.25  <-- SCF
      3  -2.35746365E+004  3.53902516E+000   1.24142645E-009    2137.37  <-- SCF
      4  -2.35746365E+004  3.53902425E+000   8.28691791E-010    2162.38  <-- SCF
------------------------------------------------------------------------ <-- SCF
 
Final energy, E             =  -23574.54771773     eV
Final free energy (E-TS)    =  -23574.63650446     eV
(energies not corrected for finite basis set)
 
NB est. 0K energy (E-0.5TS)      =  -23574.59211110     eV
 

 ******************************** Constrained Forces ********************************
 *                                                                                  *
 *                           Cartesian components (eV/A)                            *
 * -------------------------------------------------------------------------------- *
 *                         x                    y                    z              *
 *                                                                                  *
 * P               1      0.00000(cons'd)      0.00000(cons'd)      0.00035         *
 * P               2      0.00000(cons'd)      0.00000(cons'd)      0.00039         *
 * P               3      0.00000(cons'd)      0.00000(cons'd)      0.00039         *
 * P               4      0.00000(cons'd)      0.00000(cons'd)      0.00036         *
 * P               5      0.00000(cons'd)     -0.00000(cons'd)     -0.00030         *
 * P               6      0.00000(cons'd)     -0.00000(cons'd)      0.00007         *
 * P               7     -0.00000(cons'd)      0.00000(cons'd)      0.00045         *
 * P               8      0.00000(cons'd)     -0.00000(cons'd)     -0.00030         *
 * P               9      0.00000(cons'd)      0.00000(cons'd)     -0.00030         *
 * P              10      0.00000(cons'd)      0.00000(cons'd)     -0.00030         *
 * P              11      0.00000(cons'd)     -0.00000(cons'd)      0.00007         *
 * P              12     -0.00000(cons'd)      0.00000(cons'd)      0.00045         *
 * In              1      0.00000(cons'd)      0.00000(cons'd)     -0.00086         *
 * In              2      0.00000(cons'd)      0.00000(cons'd)     -0.00047         *
 * In              3      0.00000(cons'd)      0.00000(cons'd)     -0.00086         *
 * In              4      0.00000(cons'd)      0.00000(cons'd)      0.00121         *
 * In              5      0.00000(cons'd)      0.00000(cons'd)     -0.00009         *
 * In              6      0.00000(cons'd)      0.00000(cons'd)     -0.00009         *
 * In              7      0.00000(cons'd)      0.00000(cons'd)      0.00121         *
 * In              8      0.00000(cons'd)      0.00000(cons'd)     -0.00047         *
 * In              9      0.00000(cons'd)      0.00000(cons'd)      0.00002         *
 * In             10      0.00000(cons'd)      0.00000(cons'd)     -0.00048         *
 * In             11      0.00000(cons'd)      0.00000(cons'd)     -0.00048         *
 * In             12      0.00000(cons'd)      0.00000(cons'd)      0.00003         *
 *                                                                                  *
 ************************************************************************************
  
 +------------+-------------+-------------+-----------------+ <-- min LBFGS
 |    Step    |   lambda    |   F.delta'  |    enthalpy     | <-- min LBFGS
 +------------+-------------+-------------+-----------------+ <-- min LBFGS
 |  previous  |    0.000000 |    0.001764 |   -23574.636504 | <-- min LBFGS
 | trial step |    1.000000 |   -0.000520 |   -23574.636504 | <-- min LBFGS
 +------------+-------------+-------------+-----------------+ <-- min LBFGS
  
 LBFGS: finished iteration     4 with enthalpy= -2.35746365E+004 eV
  
 +-----------+-----------------+-----------------+------------+-----+ <-- LBFGS
 | Parameter |      value      |    tolerance    |    units   | OK? | <-- LBFGS
 +-----------+-----------------+-----------------+------------+-----+ <-- LBFGS
 |  dE/ion   |   2.310612E-008 |   2.000000E-005 |         eV | Yes | <-- LBFGS
 |  |F|max   |   1.206821E-003 |   1.000000E-003 |       eV/A | No  | <-- LBFGS
 |  |dR|max  |   2.211180E-004 |   1.000000E-003 |          A | Yes | <-- LBFGS
 +-----------+-----------------+-----------------+------------+-----+ <-- LBFGS
  

================================================================================
 Starting LBFGS iteration          5 ...
================================================================================
  
 +------------+-------------+-------------+-----------------+ <-- min LBFGS
 |    Step    |   lambda    |   F.delta'  |    enthalpy     | <-- min LBFGS
 +------------+-------------+-------------+-----------------+ <-- min LBFGS
 |  previous  |    0.000000 |    0.001388 |   -23574.636504 | <-- min LBFGS
 +------------+-------------+-------------+-----------------+ <-- min LBFGS
  

--------------------------------------------------------------------------------
 LBFGS: starting iteration         5 with trial guess (lambda=  1.000000)
--------------------------------------------------------------------------------

                           -------------------------------
                                     Cell Contents
                           -------------------------------

            xxxxxxxxxxxxxxxxxxxxxxxxxxxxxxxxxxxxxxxxxxxxxxxxxxxxxxxxxxxxxxxxx
            x  Element         Atom        Fractional coordinates of atoms  x
            x                 Number           u          v          w      x
            x---------------------------------------------------------------x
            x  P                 1         0.250000   0.296719   0.906562   x
            x  P                 2         0.250000  -0.119275   0.738551   x
            x  P                 3         0.750000   0.380725   0.738551   x
            x  P                 4         0.750000  -0.203281   0.906562   x
            x  P                 5         0.750000   0.120573   0.258855   x
            x  P                 6         0.750000   0.540627   0.418746   x
            x  P                 7         0.750000  -0.039348   0.578695   x
            x  P                 8         0.250000   0.620573   0.258855   x
            x  P                 9         0.250000   0.201212   0.097575   x
            x  P                10         0.750000   0.701212   0.097575   x
            x  P                11         0.250000   0.040627   0.418746   x
            x  P                12         0.250000   0.460652   0.578695   x
            x  In                1        -0.000000   0.090721   0.818558   x
            x  In                2         0.500000   0.170642   0.658715   x
            x  In                3         0.500000  -0.409279   0.818558   x
            x  In                4         0.500000  -0.089506   0.179013   x
            x  In                5         0.500000   0.496342   0.007315   x
            x  In                6         0.000000  -0.003658   0.007316   x
            x  In                7         0.000000   0.410494   0.179013   x
            x  In                8         0.000000  -0.329358   0.658715   x
            x  In                9         0.500000  -0.249356   0.498713   x
            x  In               10         0.500000   0.330649   0.338701   x
            x  In               11        -0.000000  -0.169351   0.338701   x
            x  In               12         0.000000   0.250644   0.498713   x
            xxxxxxxxxxxxxxxxxxxxxxxxxxxxxxxxxxxxxxxxxxxxxxxxxxxxxxxxxxxxxxxxx


------------------------------------------------------------------------ <-- SCF
SCF loop      Energy           Fermi           Energy gain       Timer   <-- SCF
                               energy          per atom          (sec)   <-- SCF
------------------------------------------------------------------------ <-- SCF
Initial  -2.35745477E+004  0.00000000E+000                      2186.69  <-- SCF
      1  -2.35746365E+004  3.53906351E+000   3.70046057E-003    2222.24  <-- SCF
      2  -2.35746365E+004  3.53906351E+000   8.12888772E-009    2247.36  <-- SCF
      3  -2.35746365E+004  3.53907988E+000   8.24180326E-010    2270.78  <-- SCF
      4  -2.35746365E+004  3.53909904E+000   2.39623276E-010    2294.91  <-- SCF
------------------------------------------------------------------------ <-- SCF
 
Final energy, E             =  -23574.54772250     eV
Final free energy (E-TS)    =  -23574.63650450     eV
(energies not corrected for finite basis set)
 
NB est. 0K energy (E-0.5TS)      =  -23574.59211350     eV
 

 ******************************** Constrained Forces ********************************
 *                                                                                  *
 *                           Cartesian components (eV/A)                            *
 * -------------------------------------------------------------------------------- *
 *                         x                    y                    z              *
 *                                                                                  *
 * P               1      0.00000(cons'd)      0.00000(cons'd)     -0.00027         *
 * P               2     -0.00000(cons'd)      0.00000(cons'd)     -0.00012         *
 * P               3      0.00000(cons'd)      0.00000(cons'd)     -0.00012         *
 * P               4      0.00000(cons'd)      0.00000(cons'd)     -0.00027         *
 * P               5      0.00000(cons'd)      0.00000(cons'd)      0.00004         *
 * P               6     -0.00000(cons'd)     -0.00000(cons'd)      0.00002         *
 * P               7      0.00000(cons'd)      0.00000(cons'd)     -0.00019         *
 * P               8     -0.00000(cons'd)     -0.00000(cons'd)      0.00004         *
 * P               9      0.00000(cons'd)      0.00000(cons'd)      0.00018         *
 * P              10      0.00000(cons'd)      0.00000(cons'd)      0.00018         *
 * P              11     -0.00000(cons'd)      0.00000(cons'd)      0.00002         *
 * P              12      0.00000(cons'd)      0.00000(cons'd)     -0.00019         *
 * In              1      0.00000(cons'd)      0.00000(cons'd)      0.00073         *
 * In              2      0.00000(cons'd)      0.00000(cons'd)      0.00069         *
 * In              3     -0.00000(cons'd)      0.00000(cons'd)      0.00073         *
 * In              4      0.00000(cons'd)      0.00000(cons'd)     -0.00096         *
 * In              5      0.00000(cons'd)      0.00000(cons'd)      0.00006         *
 * In              6      0.00000(cons'd)      0.00000(cons'd)      0.00007         *
 * In              7      0.00000(cons'd)      0.00000(cons'd)     -0.00096         *
 * In              8      0.00000(cons'd)      0.00000(cons'd)      0.00069         *
 * In              9      0.00000(cons'd)      0.00000(cons'd)     -0.00009         *
 * In             10      0.00000(cons'd)      0.00000(cons'd)     -0.00011         *
 * In             11      0.00000(cons'd)      0.00000(cons'd)     -0.00011         *
 * In             12      0.00000(cons'd)      0.00000(cons'd)     -0.00009         *
 *                                                                                  *
 ************************************************************************************
  
 +------------+-------------+-------------+-----------------+ <-- min LBFGS
 |    Step    |   lambda    |   F.delta'  |    enthalpy     | <-- min LBFGS
 +------------+-------------+-------------+-----------------+ <-- min LBFGS
 |  previous  |    0.000000 |    0.001388 |   -23574.636504 | <-- min LBFGS
[...]

 ******************* Unconstrained Forces *******************
 *                                                          *
 *               Cartesian components (eV/A)                *
 * -------------------------------------------------------- *
 *                         x            y            z      *
 *                                                          *
 * P               1     -0.00074     -0.00144     -0.00027 *
 * P               2      0.00011     -0.00348     -0.00012 *
 * P               3      0.00011     -0.00348     -0.00012 *
 * P               4     -0.00074     -0.00144     -0.00027 *
 * P               5      0.00022      0.00248      0.00004 *
 * P               6      0.00064      0.00002      0.00002 *
 * P               7      0.00037     -0.00342     -0.00019 *
 * P               8      0.00022      0.00248      0.00004 *
 * P               9     -0.00063     -0.00044      0.00018 *
 * P              10     -0.00063     -0.00044      0.00018 *
 * P              11      0.00064      0.00002      0.00002 *
 * P              12      0.00037     -0.00342     -0.00019 *
 * In              1      0.00010      0.00100      0.00073 *
 * In              2     -0.00001      0.00108      0.00069 *
 * In              3      0.00010      0.00100      0.00073 *
 * In              4     -0.00007      0.00107     -0.00096 *
 * In              5      0.00001      0.00110      0.00006 *
 * In              6      0.00001      0.00110      0.00007 *
 * In              7     -0.00007      0.00107     -0.00096 *
 * In              8     -0.00001      0.00108      0.00069 *
 * In              9      0.00002      0.00103     -0.00009 *
 * In             10     -0.00000      0.00100     -0.00011 *
 * In             11     -0.00000      0.00100     -0.00011 *
 * In             12      0.00002      0.00103     -0.00009 *
 *                                                          *
 ************************************************************

 ******************************** Constrained Forces ********************************
 *                                                                                  *
 *                           Cartesian components (eV/A)                            *
 * -------------------------------------------------------------------------------- *
 *                         x                    y                    z              *
 *                                                                                  *
 * P               1      0.00000(cons'd)      0.00000(cons'd)     -0.00027         *
 * P               2      0.00000(cons'd)      0.00000(cons'd)     -0.00012         *
 * P               3     -0.00000(cons'd)      0.00000(cons'd)     -0.00012         *
 * P               4      0.00000(cons'd)      0.00000(cons'd)     -0.00027         *
 * P               5     -0.00000(cons'd)     -0.00000(cons'd)      0.00004         *
 * P               6     -0.00000(cons'd)      0.00000(cons'd)      0.00002         *
 * P               7     -0.00000(cons'd)      0.00000(cons'd)     -0.00019         *
 * P               8      0.00000(cons'd)      0.00000(cons'd)      0.00004         *
 * P               9      0.00000(cons'd)      0.00000(cons'd)      0.00018         *
 * P              10      0.00000(cons'd)      0.00000(cons'd)      0.00018         *
 * P              11     -0.00000(cons'd)     -0.00000(cons'd)      0.00002         *
 * P              12      0.00000(cons'd)      0.00000(cons'd)     -0.00019         *
 * In              1      0.00000(cons'd)      0.00000(cons'd)      0.00073         *
 * In              2      0.00000(cons'd)      0.00000(cons'd)      0.00069         *
 * In              3      0.00000(cons'd)      0.00000(cons'd)      0.00073         *
 * In              4      0.00000(cons'd)      0.00000(cons'd)     -0.00096         *
 * In              5      0.00000(cons'd)      0.00000(cons'd)      0.00006         *
 * In              6      0.00000(cons'd)      0.00000(cons'd)      0.00007         *
 * In              7      0.00000(cons'd)      0.00000(cons'd)     -0.00096         *
 * In              8      0.00000(cons'd)      0.00000(cons'd)      0.00069         *
 * In              9      0.00000(cons'd)      0.00000(cons'd)     -0.00009         *
 * In             10      0.00000(cons'd)      0.00000(cons'd)     -0.00011         *
 * In             11      0.00000(cons'd)      0.00000(cons'd)     -0.00011         *
 * In             12      0.00000(cons'd)      0.00000(cons'd)     -0.00009         *
 *                                                                                  *
 ************************************************************************************

 Pseudo atomic calculation performed for P 3s2 3p3

 Converged in 23 iterations to a total energy of -208.0292 eV

 Pseudo atomic calculation performed for In 4d10 5s2 5p1

 Converged in 42 iterations to a total energy of -1747.4501 eV
Charge spilling parameter for spin component 1 = 0.21%

            Orbital Populations       
     Ion    Atom   Orbital             Charge
  -------------------------------------------
      P     1      S                    1.785
      P     1      Px                   1.308
      P     1      Py                   1.308
      P     1      Pz                   1.284
      P     2      S                    1.732
      P     2      Px                   1.312
      P     2      Py                   1.312
      P     2      Pz                   1.315
      P     3      S                    1.732
      P     3      Px                   1.312
      P     3      Py                   1.312
      P     3      Pz                   1.315
      P     4      S                    1.785
      P     4      Px                   1.308
      P     4      Py                   1.308
      P     4      Pz                   1.284
      P     5      S                    1.726
      P     5      Px                   1.317
      P     5      Py                   1.317
      P     5      Pz                   1.319
      P     6      S                    1.724
      P     6      Px                   1.317
      P     6      Py                   1.317
      P     6      Pz                   1.326
      P     7      S                    1.724
      P     7      Px                   1.316
      P     7      Py                   1.317
      P     7      Pz                   1.325
      P     8      S                    1.726
      P     8      Px                   1.317
      P     8      Py                   1.317
      P     8      Pz                   1.319
      P     9      S                    1.766
      P     9      Px                   1.263
      P     9      Py                   1.263
      P     9      Pz                   1.315
      P    10      S                    1.766
      P    10      Px                   1.263
      P    10      Py                   1.263
      P    10      Pz                   1.315
      P    11      S                    1.724
      P    11      Px                   1.317
      P    11      Py                   1.317
      P    11      Pz                   1.326
      P    12      S                    1.724
      P    12      Px                   1.316
      P    12      Py                   1.317
      P    12      Pz                   1.325
     In     1      Dzz                  1.999
     In     1      Dzy                  1.997
     In     1      Dzx                  1.997
     In     1      Dxx-yy               1.999
     In     1      Dxy                  1.997
     In     1      S                    1.431
     In     1      Px                   0.483
     In     1      Py                   0.483
     In     1      Pz                   0.431
     In     1      S                   -0.462
     In     2      Dzz                  1.999
     In     2      Dzy                  1.997
     In     2      Dzx                  1.997
     In     2      Dxx-yy               1.999
     In     2      Dxy                  1.996
     In     2      S                    1.442
     In     2      Px                   0.497
     In     2      Py                   0.497
     In     2      Pz                   0.471
     In     2      S                   -0.596
     In     3      Dzz                  1.999
     In     3      Dzy                  1.997
     In     3      Dzx                  1.997
     In     3      Dxx-yy               1.999
     In     3      Dxy                  1.997
     In     3      S                    1.431
     In     3      Px                   0.483
     In     3      Py                   0.483
     In     3      Pz                   0.431
     In     3      S                   -0.462
     In     4      Dzz                  1.999
     In     4      Dzy                  1.997
     In     4      Dzx                  1.997
     In     4      Dxx-yy               1.999
     In     4      Dxy                  1.997
     In     4      S                    1.443
     In     4      Px                   0.505
     In     4      Py                   0.505
     In     4      Pz                   0.467
     In     4      S                   -0.505
     In     5      Dzz                  1.999
     In     5      Dzy                  1.999
     In     5      Dzx                  1.999
     In     5      Dxx-yy               2.000
     In     5      Dxy                  1.996
     In     5      S                    1.444
     In     5      Px                   0.446
     In     5      Py                   0.446
     In     5      Pz                   0.469
     In     5      S                   -0.445
     In     6      Dzz                  1.999
     In     6      Dzy                  1.999
     In     6      Dzx                  1.999
     In     6      Dxx-yy               2.000
     In     6      Dxy                  1.996
     In     6      S                    1.444
     In     6      Px                   0.446
     In     6      Py                   0.446
     In     6      Pz                   0.469
     In     6      S                   -0.445
     In     7      Dzz                  1.999
     In     7      Dzy                  1.997
     In     7      Dzx                  1.997
     In     7      Dxx-yy               1.999
     In     7      Dxy                  1.997
     In     7      S                    1.443
     In     7      Px                   0.505
     In     7      Py                   0.505
     In     7      Pz                   0.467
     In     7      S                   -0.505
     In     8      Dzz                  1.999
     In     8      Dzy                  1.997
     In     8      Dzx                  1.997
     In     8      Dxx-yy               1.999
     In     8      Dxy                  1.996
     In     8      S                    1.442
     In     8      Px                   0.497
     In     8      Py                   0.497
     In     8      Pz                   0.471
     In     8      S                   -0.596
     In     9      Dzz                  1.999
     In     9      Dzy                  1.997
     In     9      Dzx                  1.997
     In     9      Dxx-yy               1.999
     In     9      Dxy                  1.996
     In     9      S                    1.436
     In     9      Px                   0.493
     In     9      Py                   0.494
     In     9      Pz                   0.473
     In     9      S                   -0.584
     In    10      Dzz                  1.999
     In    10      Dzy                  1.997
     In    10      Dzx                  1.997
     In    10      Dxx-yy               1.999
     In    10      Dxy                  1.996
     In    10      S                    1.442
     In    10      Px                   0.493
     In    10      Py                   0.493
     In    10      Pz                   0.471
     In    10      S                   -0.604
     In    11      Dzz                  1.999
     In    11      Dzy                  1.997
     In    11      Dzx                  1.997
     In    11      Dxx-yy               1.999
     In    11      Dxy                  1.996
     In    11      S                    1.442
     In    11      Px                   0.493
     In    11      Py                   0.493
     In    11      Pz                   0.471
     In    11      S                   -0.604
     In    12      Dzz                  1.999
     In    12      Dzy                  1.997
     In    12      Dzx                  1.997
     In    12      Dxx-yy               1.999
     In    12      Dxy                  1.996
     In    12      S                    1.436
     In    12      Px                   0.493
     In    12      Py                   0.494
     In    12      Pz                   0.473
     In    12      S                   -0.584
  -------------------------------------------
                           Total:     216.000
  -------------------------------------------

     Atomic Populations (Mulliken)
     -----------------------------
Species          Ion     s       p       d       f      Total   Charge (e)
==========================================================================
  P               1     1.785   3.901   0.000   0.000   5.686    -0.686
  P               2     1.732   3.940   0.000   0.000   5.672    -0.672
  P               3     1.732   3.940   0.000   0.000   5.672    -0.672
  P               4     1.785   3.901   0.000   0.000   5.686    -0.686
  P               5     1.726   3.953   0.000   0.000   5.679    -0.679
  P               6     1.724   3.960   0.000   0.000   5.684    -0.684
  P               7     1.724   3.958   0.000   0.000   5.682    -0.682
  P               8     1.726   3.953   0.000   0.000   5.679    -0.679
  P               9     1.766   3.841   0.000   0.000   5.607    -0.607
  P              10     1.766   3.841   0.000   0.000   5.607    -0.607
  P              11     1.724   3.960   0.000   0.000   5.684    -0.684
  P              12     1.724   3.958   0.000   0.000   5.682    -0.682
  In              1     0.969   1.397   9.989   0.000  12.355     0.645
  In              2     0.846   1.466   9.987   0.000  12.299     0.701
  In              3     0.969   1.397   9.989   0.000  12.355     0.645
  In              4     0.938   1.477   9.987   0.000  12.402     0.598
  In              5     0.999   1.361   9.992   0.000  12.353     0.647
  In              6     0.999   1.361   9.992   0.000  12.353     0.647
  In              7     0.938   1.477   9.987   0.000  12.402     0.598
  In              8     0.846   1.466   9.987   0.000  12.299     0.701
  In              9     0.852   1.460   9.988   0.000  12.299     0.701
  In             10     0.838   1.456   9.988   0.000  12.282     0.718
  In             11     0.838   1.456   9.988   0.000  12.282     0.718
  In             12     0.852   1.460   9.988   0.000  12.299     0.701
==========================================================================

                 Bond                   Population      Length (A)
======================================================================
              P 2  -- In 8                   0.58        2.52008
              P 3  -- In 2                   0.58        2.52008
              P 3  -- In 8                   0.58        2.52008
              P 2  -- In 2                   0.58        2.52008
              P 8  -- In 7                   0.56        2.52014
              P 5  -- In 4                   0.56        2.52014
              P 5  -- In 7                   0.56        2.52014
              P 8  -- In 4                   0.56        2.52014
              P 8  -- In 10                  0.61        2.52019
              P 8  -- In 11                  0.61        2.52019
              P 5  -- In 10                  0.61        2.52019
              P 5  -- In 11                  0.61        2.52019
              P 11 -- In 12                  0.59        2.52139
              P 6  -- In 12                  0.60        2.52139
              P 11 -- In 9                   0.60        2.52139
              P 6  -- In 9                   0.59        2.52139
              P 7  -- In 9                   0.59        2.52154
              P 12 -- In 12                  0.59        2.52154
              P 12 -- In 9                   0.59        2.52155
              P 7  -- In 12                  0.59        2.52155
              P 2  -- In 3                   0.57        2.52179
              P 3  -- In 3                   0.57        2.52179
              P 2  -- In 1                   0.57        2.52179
              P 3  -- In 1                   0.57        2.52179
              P 7  -- In 2                   0.60        2.52191
              P 12 -- In 2                   0.60        2.52191
              P 7  -- In 8                   0.60        2.52191
              P 12 -- In 8                   0.60        2.52191
              P 6  -- In 10                  0.59        2.52215
              P 11 -- In 11                  0.59        2.52215
              P 6  -- In 11                  0.59        2.52216
              P 11 -- In 10                  0.59        2.52216
              P 10 -- In 4                   0.57        2.53610
              P 9  -- In 4                   0.57        2.53610
              P 10 -- In 7                   0.57        2.53610
              P 9  -- In 7                   0.57        2.53610
              P 1  -- In 1                   0.52        2.60394
              P 4  -- In 3                   0.52        2.60394
              P 4  -- In 1                   0.52        2.60394
              P 1  -- In 3                   0.52        2.60394
              P 9  -- In 6                   0.50        2.62803
              P 10 -- In 5                   0.50        2.62803
              P 10 -- In 6                   0.50        2.62803
              P 9  -- In 5                   0.50        2.62803
              P 4  -- In 5                   0.42        2.74496
              P 1  -- In 6                   0.42        2.74496
              P 1  -- In 5                   0.42        2.74496
              P 4  -- In 6                   0.42        2.74496
======================================================================

 Hirshfeld supercell size:           3           3           1
Standard grid dimensions: 180 180 180
Fine grid dimensions:     180 180 180


     Hirshfeld Analysis
     ------------------
Species   Ion     Hirshfeld Charge (e)
======================================
  P        1                -0.29
  P        2                -0.23
  P        3                -0.23
  P        4                -0.29
  P        5                -0.24
  P        6                -0.24
  P        7                -0.24
  P        8                -0.24
  P        9                -0.23
  P       10                -0.23
  P       11                -0.24
  P       12                -0.24
  In       1                 0.24
  In       2                 0.24
  In       3                 0.24
  In       4                 0.22
  In       5                 0.29
  In       6                 0.29
  In       7                 0.22
  In       8                 0.24
  In       9                 0.24
  In      10                 0.24
  In      11                 0.24
  In      12                 0.24
======================================

 
 A BibTeX formatted list of references used in this run has been written to 
 StackingFaultStructs_001_100_9.bib
 
Initialisation time =     23.05 s
Calculation time    =   2366.32 s
Finalisation time   =     58.21 s
Total time          =   2447.58 s
Peak Memory Use     = 5910900 kB
 
Overall parallel efficiency rating: Poor (36%)
 
Data was distributed by:-
G-vector (2-way); efficiency rating: Poor (42%)
k-point (40-way); efficiency rating: Good (71%)
