 +-------------------------------------------------+
 |                                                 |
 |      CCC   AA    SSS  TTTTT  EEEEE  PPPP        |
 |     C     A  A  S       T    E      P   P       |
 |     C     AAAA   SS     T    EEE    PPPP        |
 |     C     A  A     S    T    E      P           |
 |      CCC  A  A  SSS     T    EEEEE  P           |
 |                                                 |
 +-------------------------------------------------+
 |                                                 |
 | Welcome to Academic Release CASTEP version 24.1 |
 | Ab Initio Total Energy Program                  |
 |                                                 |
 | Authors:                                        |
 | M. Segall, M. Probert, C. Pickard, P. Hasnip,   |
 | S. Clark, K. Refson, J. R. Yates,               |
 | A. Bartok-Partay, M. Payne                      |
 |                                                 |
 | Contributors:                                   |
 | P. Lindan, P. Haynes, J. White, V. Milman,      |
 | N. Govind, M. Gibson, P. Tulip, V. Cocula,      |
 | B. Montanari, D. Quigley, M. Glover,            |
 | L. Bernasconi, A. Perlov, M. Plummer,           |
 | E. McNellis, J. Meyer, J. Gale, D. Jochym       |
 | J. Aarons, B. Walker, R. Gillen, D. Jones       |
 | T. Green, I. J. Bush, C. J. Armstrong,          |
 | E. J. Higgins, E. L. Brown, M. S. McFly,        |
 | J. Wilkins, B-C. Shih, P. J. P. Byrne,          |
 | R. J. Maurer, J. C. Womack, J. Dziedzic,        |
 | L. LeBlanc, T. K. Stenczel, J. Kermode,         |
 | S. Sturniolo, B. Shi, B. Durham, M. Evans,      |
 | M. J. Smith, A. Tamerus, Z. Hawkhead,           |
 | V. Ravindran, T. Hollins, S. A. Joyce,          |
 | R. T. Strong, A. M. Reilly, S. J. Donaldson     |
 |                                                 |
 | Copyright (c) 2000 - 2023                       |
 |                                                 |
 |     Distributed under license from Cambridge    |
 |     Enterprise for academic use only.           |
 |                                                 |
 | Please cite                                     |
 |                                                 |
 |     "First principles methods using CASTEP"     |
 |                                                 |
 |         Zeitschrift fuer Kristallographie       |
 |           220(5-6) pp. 567-570 (2005)           |
 |                                                 |
 | S. J. Clark, M. D. Segall, C. J. Pickard,       |
 | P. J. Hasnip, M. J. Probert, K. Refson,         |
 | M. C. Payne                                     |
 |                                                 |
 |       in all publications arising from          |
 |              your use of CASTEP                 |
 |                                                 |
 +-------------------------------------------------+
 |                                                 |
 |              http://www.castep.org              |
 |                                                 |
 +-------------------------------------------------+



 Compiled for  GNU 11.2.0 on 04-04-2024 18:39:17
 from code version 6355fd106 Castep241_branch Thu Mar 7 17:56:19 2024 +0000
 Compiler: GNU Fortran 11.2.0; Optimisation: FAST
 Comms   : MPI VERSION : CRAY MPICH version 8.1.23.14 (ANL base 3.4a2)
 MATHLIBS: default (LAPACK version 3.10.1)
 FFT Lib : fftw3 version commercial-fftw-3.3.10-sse2-avx-avx2-avx2_128
 Fundamental constants values: CODATA 2018

 Run started: Sun, 19 Jan 2025 00:37:51 +0000

 Atomic calculation performed for P: 1s2 2s2 2p6 3s2 3p3

 Converged in 47 iterations to an ae energy of -9309.074 eV

   ============================================================                
   | Pseudopotential Report - Date of generation 19-01-2025   |                
   ------------------------------------------------------------                
   | Element: P Ionic charge:  5.00 Level of theory: RSCAN    |                
   | Atomic Solver: Koelling-Harmon                           |                
   |                                                          |                
   |               Reference Electronic Structure             |                
   |         Orbital         Occupation         Energy        |                
   |            3s              2.000           -0.535        |                
   |            3p              3.000           -0.209        |                
   |                                                          |                
   |                 Pseudopotential Definition               |                
   |        Beta     l      e      Rc     scheme   norm       |                
   |          1      0   -0.535   1.807     qc      0         |                
   |          2      0    0.250   1.807     qc      0         |                
   |          3      1   -0.209   1.807     qc      0         |                
   |          4      1    0.250   1.807     qc      0         |                
   |          5      2    0.000   1.807     qc      0         |                
   |          6      2    0.250   1.807     qc      0         |                
   |         loc     3    0.000   1.807     pn      0         |                
   |                                                          |                
   | Augmentation charge Rinner = 1.263                       |                
   | Partial core correction Rc = 1.263                       |                
   ------------------------------------------------------------                
   | "3|1.8|4|4|5|30:31:32"                                   |                
   ------------------------------------------------------------                
   |      Author: Chris J. Pickard, Cambridge University      |                
   ============================================================                
 Warning: otfg_output_psp cannot write out meta-GGA pseudopotentials presently.

 Atomic calculation performed for In:
 1s2 2s2 2p6 3s2 3p6 3d10 4s2 4p6 4d10 5s2 5p1

 Converged in 84 iterations to an ae energy of -160093.328 eV

   ============================================================                
   | Pseudopotential Report - Date of generation 19-01-2025   |                
   ------------------------------------------------------------                
   | Element: In Ionic charge: 13.00 Level of theory: RSCAN   |                
   | Atomic Solver: Koelling-Harmon                           |                
   |                                                          |                
   |               Reference Electronic Structure             |                
   |         Orbital         Occupation         Energy        |                
   |            4d             10.000           -0.711        |                
   |            5s              2.000           -0.313        |                
   |            5p              1.000           -0.095        |                
   |                                                          |                
   |                 Pseudopotential Definition               |                
   |        Beta     l      e      Rc     scheme   norm       |                
   |          1      0   -0.313   2.501     qc      0         |                
   |          2      0    0.250   2.501     qc      0         |                
   |          3      1   -0.095   2.501     qc      0         |                
   |          4      1    0.250   2.501     qc      0         |                
   |          5      2   -0.711   2.207     qc      0         |                
   |          6      2    0.250   2.207     qc      0         |                
   |         loc     3    0.000   2.501     pn      0         |                
   |                                                          |                
   | Augmentation charge Rinner = 1.504                       |                
   | Partial core correction Rc = 1.504                       |                
   ------------------------------------------------------------                
   | "3|2.5|2.5|1.5|7|8|9|50:51:42U2.2U2.2"                   |                
   ------------------------------------------------------------                
   |      Author: Chris J. Pickard, Cambridge University      |                
   ============================================================                
 Warning: otfg_output_psp cannot write out meta-GGA pseudopotentials presently.

 Pseudo atomic calculation performed for P 3s2 3p3

 Converged in 23 iterations to a total energy of -208.0292 eV

 Pseudo atomic calculation performed for In 4d10 5s2 5p1

 Converged in 42 iterations to a total energy of -1747.4501 eV
 Calculation parallelised over 64 processes.
 Data is distributed by k-point(64-way)
 Each process may use up to 16 threads.

 ************************************ Title ************************************
 

 ***************************** General Parameters ******************************
  
 output verbosity                               : normal  (1)
 write checkpoint data to                       : StackingFaultStructs_110_1-10_6.check
 type of calculation                            : geometry optimization
 stress calculation                             : off
 density difference calculation                 : off
 electron localisation func (ELF) calculation   : off
 Hirshfeld analysis                             : on
 polarisation (Berry phase) analysis            : off
 molecular orbital projected DOS                : off
 deltaSCF calculation                           : off
 unlimited duration calculation
 timing information                             : on
 memory usage estimate                          : on
 write extra output files                       : on
 write final potential to formatted file        : off
 write final density to formatted file          : off
 write BibTeX reference list                    : on
 write OTFG pseudopotential files               : on
 write electrostatic potential file             : on
 write bands file                               : on
 checkpoint writing                             : off
  
 output         length unit                     : A
 output           mass unit                     : amu
 output           time unit                     : ps
 output         charge unit                     : e
 output           spin unit                     : hbar/2
 output         energy unit                     : eV
 output          force unit                     : eV/A
 output       velocity unit                     : A/ps
 output       pressure unit                     : GPa
 output     inv_length unit                     : 1/A
 output      frequency unit                     : cm-1
 output force constant unit                     : eV/A**2
 output         volume unit                     : A**3
 output   IR intensity unit                     : (D/A)**2/amu
 output         dipole unit                     : D
 output         efield unit                     : eV/A/e
 output        entropy unit                     : J/mol/K
 output    efield chi2 unit                     : pm/V
  
 wavefunctions paging                           : none
 random number generator seed                   :    3751571
 data distribution                              : optimal for this architecture
 optimization strategy                          : balance speed and memory

 *********************** Exchange-Correlation Parameters ***********************
  
 using functional                               : RSCAN
 relativistic treatment                         : Koelling-Harmon
 DFT+D: Semi-empirical dispersion correction    : off

 ************************* Pseudopotential Parameters **************************
  
 pseudopotential representation                 : reciprocal space
 <beta|phi> representation                      : reciprocal space
 spin-orbit coupling                            : off

 **************************** Basis Set Parameters *****************************
  
 plane wave basis set cut-off                   :   900.0000   eV
 size of standard grid                          :     2.0000
 size of   fine   gmax                          :    30.7390   1/A
 finite basis set correction                    : none

 **************************** Electronic Parameters ****************************
  
 number of  electrons                           :  216.0    
 net charge of system                           :  0.000    
 treating system as non-spin-polarized
 number of bands                                :        130

 ********************* Electronic Minimization Parameters **********************
  
 Method: Treating system as metallic with density mixing treatment of electrons,
         and number of  SD  steps               :          1
         and number of  CG  steps               :          4
  
 total energy / atom convergence tol.           : 0.1000E-07   eV
 eigen-energy convergence tolerance             : 0.2222E-08   eV
 max force / atom convergence tol.              : ignored
 convergence tolerance window                   :          3   cycles
 max. number of SCF cycles                      :         50
 number of fixed-spin iterations                :         10
 smearing scheme                                : Gaussian
 smearing width                                 : 0.2000       eV
 Fermi energy convergence tolerance             : 0.2721E-13   eV
 periodic dipole correction                     : NONE

 ************************** Density Mixing Parameters **************************
  
 density-mixing scheme                          : Pulay
 max. length of mixing history                  :         15
 charge density mixing amplitude                : 0.5000    
 cut-off energy for mixing                      :  900.0       eV

 *********************** Population Analysis Parameters ************************
  
 Population analysis with cutoff                :  3.000       A
 Population analysis output                     : summary and pdos components

 ********************** Geometry Optimization Parameters ***********************
  
 optimization method                            : LBFGS
 max. no. of LBFGS updates                      : unbounded
 preconditioned LBFGS is activated
 preconditioner type                            : EXP
     stabilization constant                     :     0.1000
     parameter A                                :     3.0000
     nearest neighbor distance                  : automatic
     cut-off distance                           : automatic
     parameter mu                               : automatic
 variable cell method                           : fixed basis quality
 max. number of steps                           :         30
 estimated bulk modulus                         :  500.0       GPa
 estimated <frequency>                          :  1668.       cm-1
 geom line minimiser                            : on
 with line minimiser tolerance                  :     0.4000
 total energy convergence tolerance             : 0.2000E-04   eV/atom
        max ionic |force| tolerance             : 0.1000E-02   eV/A
 max ionic |displacement| tolerance             : 0.1000E-02   A
   max |stress component| tolerance             : 0.1000       GPa
 convergence tolerance window                   :          2   steps
 backup results every                           :          5   steps
 write geom trajectory file                     : on

 *******************************************************************************
  

                           -------------------------------
                                      Unit Cell
                           -------------------------------
        Real Lattice(A)                      Reciprocal Lattice(1/A)
     5.9012740     0.0000000     0.0000000        1.064716756   0.000000000   0.000000000
     0.0000000     4.1728310     0.0000000        0.000000000   1.505736826  -0.188217111
     0.0000000     3.1296230    25.0369830        0.000000000   0.000000000   0.250956168

                       Lattice parameters(A)       Cell Angles
                    a =      5.901274          alpha =   82.874983
                    b =      4.172831          beta  =   90.000000
                    c =     25.231826          gamma =   90.000000

                       Current cell volume =           616.536184       A**3
                                   density =             2.837629   AMU/A**3
                                           =             4.711994     g/cm^3

                           -------------------------------
                                     Cell Contents
                           -------------------------------
                         Total number of ions in cell =   24
                      Total number of species in cell =    2
                        Max number of any one species =   12

            xxxxxxxxxxxxxxxxxxxxxxxxxxxxxxxxxxxxxxxxxxxxxxxxxxxxxxxxxxxx
            x  Element    Atom        Fractional coordinates of atoms  x
            x            Number           u          v          w      x
            x----------------------------------------------------------x
            x  P            1         0.250000   0.250501   0.332665   x 
            x  P            2         0.750000  -0.312412   0.416549   x 
            x  P            3         0.750000  -0.186894   0.249192   x 
            x  P            4         0.250000   0.124912   0.500117   x 
            x  P            5         0.750000  -0.438002   0.584002   x 
            x  P            6         0.250000   0.376228   0.165029   x 
            x  P            7         0.250000  -0.000606   0.667474   x 
            x  P            8         0.750000  -0.563728   0.751638   x 
            x  P            9         0.750000  -0.061500   0.081999   x 
            x  P           10         0.250000  -0.126000   0.834667   x 
            x  P           11         0.750000  -0.690151   0.920202   x 
            x  P           12         0.250000   0.502651  -0.003535   x 
            x  In           1         0.500000   0.187714   0.416381   x 
            x  In           2         0.500000  -0.063306   0.751075   x 
            x  In           3         0.000000  -0.500916   0.667888   x 
            x  In           4         0.500000   0.062154   0.583795   x 
            x  In           5         0.000000  -0.375214   0.500285   x 
            x  In           6         0.000000  -0.626865   0.835819   x 
            x  In           7         0.000000  -0.249654   0.332872   x 
            x  In           8         0.500000  -0.188570   0.918094   x 
            x  In           9         0.000000  -0.124194   0.165592   x 
            x  In          10         0.500000   0.439364   0.080847   x 
            x  In          11         0.000000   0.001070  -0.001427   x 
            x  In          12         0.500000   0.313416   0.248779   x 
            xxxxxxxxxxxxxxxxxxxxxxxxxxxxxxxxxxxxxxxxxxxxxxxxxxxxxxxxxxxx


                         No user defined ionic velocities

                           -------------------------------
                                   Details of Species
                           -------------------------------

                               Mass of species in AMU
                                    P   30.9737600
                                    In  114.8180000

                          Electric Quadrupole Moment (Barn)
                                    P    1.0000000 No Isotope Defined
                                    In    0.7700000 Isotope115

                          Files used for pseudopotentials:
                                    P 3|1.8|4|4|5|30:31:32
                                    In 3|2.5|2.5|1.5|7|8|9|50:51:42U2.2U2.2

                           -------------------------------
                              k-Points For BZ Sampling
                           -------------------------------
                       MP grid size for SCF calculation is  6 10  2
                            with an offset of   0.083  0.050  0.250
                       Number of kpoints used =            64

                           -------------------------------
                               Symmetry and Constraints
                           -------------------------------

                      Maximum deviation from symmetry =  0.00000         ANG

                      Number of symmetry operations   =           1
                      Number of ionic constraints     =          48
                      Point group of crystal =     1: C1, 1, 1
                      Space group of crystal =     4: P2_1, P 2yb

             Set iprint > 1 for details on symmetry rotations/translations

                         Centre of mass is NOT constrained
             Set iprint > 1 for details of linear ionic constraints

                         Number of cell constraints= 6
                         Cell constraints are:  0 0 0 0 0 0

                         External pressure/stress (GPa)
                          0.00000   0.00000   0.00000
                                    0.00000   0.00000
                                              0.00000
 
+---------------- MEMORY AND SCRATCH DISK ESTIMATES PER PROCESS --------------+
|                                                     Memory          Disk    |
| Baseline code, static data and system overhead      386.0 MB         0.0 MB |
| BLAS internal memory storage                          0.0 MB         0.0 MB |
| Model and support data                             4221.4 MB         0.0 MB |
| Electronic energy minimisation requirements         519.0 MB         0.0 MB |
| Force calculation requirements                       97.8 MB         0.0 MB |
|                                               ----------------------------- |
| Approx. total storage required per process         5126.4 MB         0.0 MB |
|                                                                             |
| Requirements will fluctuate during execution and may exceed these estimates |
+-----------------------------------------------------------------------------+
Calculating approximate eigenstates for fixed initial Hamiltonian
Cut-off for approx. calculation is   89.988 eV
Improving approx. states at cut-off of  450.000 eV
Resetting cut-off to  900.000 eV
Calculating total energy with cut-off of  900.000 eV.
------------------------------------------------------------------------ <-- SCF
SCF loop      Energy           Fermi           Energy gain       Timer   <-- SCF
                               energy          per atom          (sec)   <-- SCF
------------------------------------------------------------------------ <-- SCF
Initial  -2.36444865E+004  0.00000000E+000                        76.04  <-- SCF
      1  -2.35513649E+004  2.57495962E+000  -3.88006445E+000     115.06  <-- SCF
      2  -2.35514351E+004  2.57444132E+000   2.92668756E-003     143.15  <-- SCF
      3  -2.35764665E+004  2.88415410E+000   1.04297387E+000     175.62  <-- SCF
      4  -2.35809508E+004  2.96138374E+000   1.86846721E-001     222.25  <-- SCF
      5  -2.35787455E+004  3.30462673E+000  -9.18877171E-002     256.35  <-- SCF
      6  -2.35785770E+004  3.35881284E+000  -7.02197437E-003     290.54  <-- SCF
      7  -2.35785503E+004  3.40541686E+000  -1.11321101E-003     328.83  <-- SCF
      8  -2.35791067E+004  3.44545637E+000   2.31854154E-002     364.91  <-- SCF
      9  -2.35791186E+004  3.39275301E+000   4.92524223E-004     402.83  <-- SCF
     10  -2.35791185E+004  3.41075600E+000  -4.20892496E-006     440.50  <-- SCF
     11  -2.35791184E+004  3.41151431E+000  -3.85817939E-006     478.13  <-- SCF
     12  -2.35791186E+004  3.41000031E+000   9.93929957E-006     515.13  <-- SCF
     13  -2.35791186E+004  3.41003356E+000   1.40818311E-008     545.82  <-- SCF
     14  -2.35791186E+004  3.40974564E+000   5.57715118E-008     578.02  <-- SCF
     15  -2.35791186E+004  3.40977130E+000  -1.76601065E-007     607.25  <-- SCF
     16  -2.35791186E+004  3.40981345E+000   1.50357998E-007     635.88  <-- SCF
     17  -2.35791186E+004  3.40977264E+000   6.96351169E-009     661.15  <-- SCF
     18  -2.35791186E+004  3.40976590E+000  -3.30239286E-010     687.05  <-- SCF
------------------------------------------------------------------------ <-- SCF
 
Final energy, E             =  -23579.11857270     eV
Final free energy (E-TS)    =  -23579.11860714     eV
(energies not corrected for finite basis set)
 
NB est. 0K energy (E-0.5TS)      =  -23579.11858992     eV
 
 
+---------------- MEMORY AND SCRATCH DISK ESTIMATES PER PROCESS --------------+
|                                                     Memory          Disk    |
| Model and support data                             2433.0 MB         0.0 MB |
| Electronic energy minimisation requirements         519.0 MB         0.0 MB |
| Geometry minimisation requirements                  605.4 MB         0.0 MB |
|                                               ----------------------------- |
| Approx. total storage required per process         3557.4 MB         0.0 MB |
|                                                                             |
| Requirements will fluctuate during execution and may exceed these estimates |
+-----------------------------------------------------------------------------+
 

 ******************************** Constrained Forces ********************************
 *                                                                                  *
 *                           Cartesian components (eV/A)                            *
 * -------------------------------------------------------------------------------- *
 *                         x                    y                    z              *
 *                                                                                  *
 * P               1      0.00000(cons'd)      0.00000(cons'd)     -0.00351         *
 * P               2     -0.00000(cons'd)     -0.00000(cons'd)      0.00036         *
 * P               3     -0.00000(cons'd)     -0.00000(cons'd)     -0.00657         *
 * P               4      0.00000(cons'd)      0.00000(cons'd)      0.00151         *
 * P               5     -0.00000(cons'd)      0.00000(cons'd)      0.00775         *
 * P               6      0.00000(cons'd)     -0.00000(cons'd)     -0.00244         *
 * P               7      0.00000(cons'd)      0.00000(cons'd)      0.00937         *
 * P               8     -0.00000(cons'd)      0.00000(cons'd)      0.00041         *
 * P               9      0.00000(cons'd)     -0.00000(cons'd)     -0.01625         *
 * P              10      0.00000(cons'd)      0.00000(cons'd)      0.01182         *
 * P              11     -0.00000(cons'd)      0.00000(cons'd)      0.03262         *
 * P              12     -0.00000(cons'd)      0.00000(cons'd)     -0.02940         *
 * In              1      0.00000(cons'd)      0.00000(cons'd)      0.00008         *
 * In              2      0.00000(cons'd)      0.00000(cons'd)     -0.02071         *
 * In              3      0.00000(cons'd)      0.00000(cons'd)     -0.01155         *
 * In              4      0.00000(cons'd)      0.00000(cons'd)     -0.00417         *
 * In              5      0.00000(cons'd)      0.00000(cons'd)     -0.00092         *
 * In              6      0.00000(cons'd)      0.00000(cons'd)      0.00282         *
 * In              7      0.00000(cons'd)      0.00000(cons'd)      0.00330         *
 * In              8      0.00000(cons'd)      0.00000(cons'd)      0.02622         *
 * In              9      0.00000(cons'd)      0.00000(cons'd)      0.01971         *
 * In             10      0.00000(cons'd)      0.00000(cons'd)     -0.00388         *
 * In             11      0.00000(cons'd)      0.00000(cons'd)     -0.02722         *
 * In             12      0.00000(cons'd)      0.00000(cons'd)      0.01065         *
 *                                                                                  *
 ************************************************************************************
 EXP precond LBFGS => estimated nearest neighbor distance :  2.556       A
 EXP precond LBFGS => estimated cutoff distance :  5.112       A

 ************************************** Forces **************************************
 *                                                                                  *
 *                           Cartesian components (eV/A)                            *
 * -------------------------------------------------------------------------------- *
 *                         x                    y                    z              *
 *                                                                                  *
 * P               1      0.04240(cons'd)     -0.00580(cons'd)     -0.00351         *
 * P               2      0.03449(cons'd)      0.00155(cons'd)      0.00036         *
 * P               3      0.02000(cons'd)      0.00502(cons'd)     -0.00657         *
 * P               4      0.03208(cons'd)      0.00447(cons'd)      0.00151         *
 * P               5      0.04297(cons'd)     -0.00712(cons'd)      0.00775         *
 * P               6      0.06102(cons'd)      0.00884(cons'd)     -0.00244         *
 * P               7      0.02532(cons'd)     -0.00197(cons'd)      0.00937         *
 * P               8      0.05971(cons'd)     -0.00334(cons'd)      0.00041         *
 * P               9     -0.03955(cons'd)      0.09594(cons'd)     -0.01625         *
 * P              10     -0.04021(cons'd)     -0.10192(cons'd)      0.01182         *
 * P              11      0.40067(cons'd)     -0.92025(cons'd)      0.03262         *
 * P              12      0.39782(cons'd)      0.92851(cons'd)     -0.02940         *
 * In              1     -0.03568(cons'd)     -0.00052(cons'd)      0.00008         *
 * In              2      0.00698(cons'd)      0.00522(cons'd)     -0.02071         *
 * In              3     -0.05388(cons'd)      0.00046(cons'd)     -0.01155         *
 * In              4     -0.02453(cons'd)     -0.00054(cons'd)     -0.00417         *
 * In              5     -0.03573(cons'd)     -0.00033(cons'd)     -0.00092         *
 * In              6     -0.11857(cons'd)     -0.07572(cons'd)      0.00282         *
 * In              7     -0.02457(cons'd)      0.00031(cons'd)      0.00330         *
 * In              8     -0.29261(cons'd)     -0.23399(cons'd)      0.02622         *
 * In              9      0.00696(cons'd)     -0.00614(cons'd)      0.01971         *
 * In             10     -0.11856(cons'd)      0.07545(cons'd)     -0.00388         *
 * In             11     -0.29258(cons'd)      0.23312(cons'd)     -0.02722         *
 * In             12     -0.05395(cons'd)     -0.00126(cons'd)      0.01065         *
 *                                                                                  *
 ************************************************************************************
 doing test perturbation to get energy scale for EXP preconditioner

                           -------------------------------
                                     Cell Contents
                           -------------------------------

            xxxxxxxxxxxxxxxxxxxxxxxxxxxxxxxxxxxxxxxxxxxxxxxxxxxxxxxxxxxxxxxxx
            x  Element         Atom        Fractional coordinates of atoms  x
            x                 Number           u          v          w      x
            x---------------------------------------------------------------x
            x  P                 1         0.251417   0.253166   0.333027   x
            x  P                 2         0.753644   0.692406   0.416997   x
            x  P                 3         0.753644   0.818054   0.249466   x
            x  P                 4         0.251417   0.127451   0.500647   x
            x  P                 5         0.753644   0.566697   0.584609   x
            x  P                 6         0.251417   0.379028   0.165212   x
            x  P                 7         0.251417   1.004995   0.668153   x
            x  P                 8         0.753644   0.440867   0.752383   x
            x  P                 9         0.753644   0.943586   0.082091   x
            x  P                10         0.251417   0.879505   0.835473   x
            x  P                11         0.753644   0.314358   0.921062   x
            x  P                12         0.251417   0.507786   0.997368   x
            x  In                1         0.502678   0.190315   0.416829   x
            x  In                2         0.502678   0.942244   0.751820   x
            x  In                3         0.000000   0.503729   0.668567   x
            x  In                4         0.502678   0.064636   0.584401   x
            x  In                5         0.000000   0.629543   0.500815   x
            x  In                6         0.000000   0.377685   0.836626   x
            x  In                7         0.000000   0.755228   0.333234   x
            x  In                8         0.502678   0.816895   0.918953   x
            x  In                9         0.000000   0.880823   0.165775   x
            x  In               10         0.502678   0.442234   0.080937   x
            x  In               11         0.000000   0.004567   0.999477   x
            x  In               12         0.502678   0.316147   0.249052   x
            xxxxxxxxxxxxxxxxxxxxxxxxxxxxxxxxxxxxxxxxxxxxxxxxxxxxxxxxxxxxxxxxx


------------------------------------------------------------------------ <-- SCF
SCF loop      Energy           Fermi           Energy gain       Timer   <-- SCF
                               energy          per atom          (sec)   <-- SCF
------------------------------------------------------------------------ <-- SCF
Initial  -2.35777471E+004  0.00000000E+000                       763.10  <-- SCF
      1  -2.35789470E+004  3.40814301E+000   4.99933639E-002     799.01  <-- SCF
      2  -2.35791080E+004  3.40805189E+000   6.70896975E-003     841.11  <-- SCF
      3  -2.35791099E+004  3.40817793E+000   7.78588438E-005     877.12  <-- SCF
      4  -2.35791112E+004  3.40827338E+000   5.57756338E-005     912.38  <-- SCF
      5  -2.35791113E+004  3.40823853E+000   5.49986230E-006     952.02  <-- SCF
      6  -2.35791114E+004  3.40821543E+000   1.48500924E-006     988.36  <-- SCF
      7  -2.35791114E+004  3.40821906E+000   1.12055655E-007    1019.80  <-- SCF
      8  -2.35791114E+004  3.40821819E+000   1.78092040E-008    1045.71  <-- SCF
      9  -2.35791114E+004  3.40821608E+000   3.09022507E-009    1071.56  <-- SCF
     10  -2.35791114E+004  3.40821289E+000   1.80458626E-010    1096.50  <-- SCF
     11  -2.35791114E+004  3.40821087E+000  -2.38463185E-011    1123.83  <-- SCF
------------------------------------------------------------------------ <-- SCF
 
Final energy, E             =  -23579.11133360     eV
Final free energy (E-TS)    =  -23579.11136712     eV
(energies not corrected for finite basis set)
 
NB est. 0K energy (E-0.5TS)      =  -23579.11135036     eV
 

 ************************************** Forces **************************************
 *                                                                                  *
 *                           Cartesian components (eV/A)                            *
 * -------------------------------------------------------------------------------- *
 *                         x                    y                    z              *
 *                                                                                  *
 * P               1      0.07138(cons'd)      0.07269(cons'd)     -0.00211         *
 * P               2     -0.08740(cons'd)     -0.08219(cons'd)      0.00134         *
 * P               3     -0.09575(cons'd)     -0.06762(cons'd)     -0.01204         *
 * P               4      0.06217(cons'd)      0.08269(cons'd)      0.00273         *
 * P               5     -0.07941(cons'd)     -0.06846(cons'd)      0.01093         *
 * P               6      0.09836(cons'd)      0.08105(cons'd)      0.00592         *
 * P               7      0.05251(cons'd)     -0.04742(cons'd)      0.01228         *
 * P               8     -0.06159(cons'd)      0.03079(cons'd)      0.00395         *
 * P               9     -0.21342(cons'd)      0.03164(cons'd)      0.09426         *
 * P              10     -0.01135(cons'd)     -0.12667(cons'd)      0.01271         *
 * P              11      0.30404(cons'd)     -0.88473(cons'd)      0.05143         *
 * P              12      0.37636(cons'd)      0.87698(cons'd)     -0.12262         *
 * In              1     -0.09496(cons'd)      0.06305(cons'd)     -0.00087         *
 * In              2     -0.04851(cons'd)     -0.02161(cons'd)     -0.02222         *
 * In              3      0.09568(cons'd)      0.02964(cons'd)     -0.01350         *
 * In              4     -0.08270(cons'd)      0.06660(cons'd)     -0.00510         *
 * In              5      0.11339(cons'd)     -0.06169(cons'd)     -0.00206         *
 * In              6      0.02541(cons'd)     -0.05045(cons'd)      0.00095         *
 * In              7      0.12463(cons'd)     -0.06221(cons'd)      0.00276         *
 * In              8     -0.34953(cons'd)     -0.26728(cons'd)      0.01154         *
 * In              9      0.15530(cons'd)     -0.06811(cons'd)      0.02578         *
 * In             10     -0.13499(cons'd)      0.14287(cons'd)      0.07767         *
 * In             11     -0.10376(cons'd)      0.26827(cons'd)     -0.14399         *
 * In             12     -0.11586(cons'd)      0.06214(cons'd)      0.01027         *
 *                                                                                  *
 ************************************************************************************
 EXP precond LBFGS => estimated parameter mu :  2.363       eV/A**2
 LBFGS: finished iteration     0 with enthalpy= -2.35791186E+004 eV
  
 +-----------+-----------------+-----------------+------------+-----+ <-- LBFGS
 | Parameter |      value      |    tolerance    |    units   | OK? | <-- LBFGS
 +-----------+-----------------+-----------------+------------+-----+ <-- LBFGS
 |  dE/ion   |   0.000000E+000 |   2.000000E-005 |         eV | No  | <-- LBFGS
 |  |F|max   |   9.621715E-001 |   1.000000E-003 |       eV/A | No  | <-- LBFGS
 |  |dR|max  |   4.307656E-015 |   1.000000E-003 |          A | No  | <-- LBFGS
 +-----------+-----------------+-----------------+------------+-----+ <-- LBFGS
  

================================================================================
 Starting LBFGS iteration          1 ...
================================================================================
  
 +------------+-------------+-------------+-----------------+ <-- min LBFGS
 |    Step    |   lambda    |   F.delta'  |    enthalpy     | <-- min LBFGS
 +------------+-------------+-------------+-----------------+ <-- min LBFGS
 |  previous  |    0.000000 |    0.048150 |   -23579.118607 | <-- min LBFGS
 +------------+-------------+-------------+-----------------+ <-- min LBFGS
  

--------------------------------------------------------------------------------
 LBFGS: starting iteration         1 with trial guess (lambda=  1.000000)
--------------------------------------------------------------------------------

                           -------------------------------
                                     Cell Contents
                           -------------------------------

            xxxxxxxxxxxxxxxxxxxxxxxxxxxxxxxxxxxxxxxxxxxxxxxxxxxxxxxxxxxxxxxxx
            x  Element         Atom        Fractional coordinates of atoms  x
            x                 Number           u          v          w      x
            x---------------------------------------------------------------x
            x  P                 1         0.250000   0.250500   0.332667   x
            x  P                 2         0.750000  -0.312423   0.416564   x
            x  P                 3         0.750000  -0.186885   0.249180   x
            x  P                 4         0.250000   0.124900   0.500133   x
            x  P                 5         0.750000  -0.438025   0.584034   x
            x  P                 6         0.250000   0.376250   0.165000   x
            x  P                 7         0.250000  -0.000626   0.667501   x
            x  P                 8         0.750000  -0.563736   0.751648   x
            x  P                 9         0.750000  -0.061408   0.081878   x
            x  P                10         0.250000  -0.126064   0.834752   x
            x  P                11         0.750000  -0.690259   0.920346   x
            x  P                12         0.250000   0.502765  -0.003687   x
            x  In                1         0.500000   0.187705   0.416393   x
            x  In                2         0.500000  -0.063268   0.751024   x
            x  In                3         0.000000  -0.500893   0.667857   x
            x  In                4         0.500000   0.062155   0.583794   x
            x  In                5         0.000000  -0.375223   0.500298   x
            x  In                6         0.000000  -0.626914   0.835886   x
            x  In                7         0.000000  -0.249668   0.332891   x
            x  In                8         0.500000  -0.188664   0.918218   x
            x  In                9         0.000000  -0.124220   0.165627   x
            x  In               10         0.500000   0.439432   0.080758   x
            x  In               11         0.000000   0.001181  -0.001575   x
            x  In               12         0.500000   0.313390   0.248813   x
            xxxxxxxxxxxxxxxxxxxxxxxxxxxxxxxxxxxxxxxxxxxxxxxxxxxxxxxxxxxxxxxxx


------------------------------------------------------------------------ <-- SCF
SCF loop      Energy           Fermi           Energy gain       Timer   <-- SCF
                               energy          per atom          (sec)   <-- SCF
------------------------------------------------------------------------ <-- SCF
Initial  -2.35777401E+004  0.00000000E+000                      1167.45  <-- SCF
      1  -2.35789541E+004  3.40974283E+000   5.05830210E-002    1207.16  <-- SCF
      2  -2.35791155E+004  3.40965555E+000   6.72394172E-003    1250.12  <-- SCF
      3  -2.35791174E+004  3.40971947E+000   8.05467750E-005    1286.79  <-- SCF
      4  -2.35791188E+004  3.40990319E+000   5.68318675E-005    1325.84  <-- SCF
      5  -2.35791189E+004  3.40995263E+000   5.30007230E-006    1366.88  <-- SCF
      6  -2.35791189E+004  3.41000390E+000   1.33358203E-006    1404.86  <-- SCF
      7  -2.35791189E+004  3.41004473E+000   8.92450402E-008    1439.27  <-- SCF
      8  -2.35791189E+004  3.41007988E+000  -4.02087599E-009    1468.74  <-- SCF
      9  -2.35791189E+004  3.41011688E+000  -1.91536208E-008    1497.70  <-- SCF
     10  -2.35791189E+004  3.41017429E+000  -2.06863590E-008    1527.21  <-- SCF
     11  -2.35791189E+004  3.41020481E+000  -3.53312210E-009    1555.75  <-- SCF
     12  -2.35791189E+004  3.41021798E+000  -1.65506340E-010    1583.73  <-- SCF
------------------------------------------------------------------------ <-- SCF
 
Final energy, E             =  -23579.11890741     eV
Final free energy (E-TS)    =  -23579.11894178     eV
(energies not corrected for finite basis set)
 
NB est. 0K energy (E-0.5TS)      =  -23579.11892459     eV
 

 ******************************** Constrained Forces ********************************
 *                                                                                  *
 *                           Cartesian components (eV/A)                            *
 * -------------------------------------------------------------------------------- *
 *                         x                    y                    z              *
 *                                                                                  *
 * P               1     -0.00000(cons'd)      0.00000(cons'd)      0.00157         *
 * P               2     -0.00000(cons'd)     -0.00000(cons'd)      0.00050         *
 * P               3     -0.00000(cons'd)     -0.00000(cons'd)      0.00322         *
 * P               4     -0.00000(cons'd)     -0.00000(cons'd)     -0.00051         *
 * P               5     -0.00000(cons'd)      0.00000(cons'd)     -0.00189         *
 * P               6      0.00000(cons'd)     -0.00000(cons'd)     -0.00064         *
 * P               7     -0.00000(cons'd)      0.00000(cons'd)     -0.00358         *
 * P               8     -0.00000(cons'd)      0.00000(cons'd)      0.00130         *
 * P               9      0.00000(cons'd)     -0.00000(cons'd)      0.00304         *
 * P              10      0.00000(cons'd)      0.00000(cons'd)     -0.00188         *
 * P              11      0.00000(cons'd)      0.00000(cons'd)      0.00442         *
 * P              12     -0.00000(cons'd)      0.00000(cons'd)     -0.00453         *
 * In              1      0.00000(cons'd)      0.00000(cons'd)     -0.00080         *
 * In              2      0.00000(cons'd)      0.00000(cons'd)      0.00266         *
 * In              3      0.00000(cons'd)      0.00000(cons'd)      0.00193         *
 * In              4      0.00000(cons'd)      0.00000(cons'd)      0.00183         *
 * In              5      0.00000(cons'd)     -0.00000(cons'd)      0.00138         *
 * In              6      0.00000(cons'd)      0.00000(cons'd)      0.00445         *
 * In              7      0.00000(cons'd)      0.00000(cons'd)     -0.00164         *
 * In              8      0.00000(cons'd)      0.00000(cons'd)      0.00899         *
 * In              9      0.00000(cons'd)      0.00000(cons'd)     -0.00316         *
 * In             10      0.00000(cons'd)      0.00000(cons'd)     -0.00428         *
 * In             11      0.00000(cons'd)      0.00000(cons'd)     -0.01041         *
 * In             12      0.00000(cons'd)      0.00000(cons'd)     -0.00197         *
 *                                                                                  *
 ************************************************************************************
  
 +------------+-------------+-------------+-----------------+ <-- min LBFGS
 |    Step    |   lambda    |   F.delta'  |    enthalpy     | <-- min LBFGS
 +------------+-------------+-------------+-----------------+ <-- min LBFGS
 |  previous  |    0.000000 |    0.048150 |   -23579.118607 | <-- min LBFGS
 | trial step |    1.000000 |    0.007422 |   -23579.118942 | <-- min LBFGS
 +------------+-------------+-------------+-----------------+ <-- min LBFGS
  
 LBFGS: finished iteration     1 with enthalpy= -2.35791189E+004 eV
  
 +-----------+-----------------+-----------------+------------+-----+ <-- LBFGS
 | Parameter |      value      |    tolerance    |    units   | OK? | <-- LBFGS
 +-----------+-----------------+-----------------+------------+-----+ <-- LBFGS
 |  dE/ion   |   1.394346E-005 |   2.000000E-005 |         eV | Yes | <-- LBFGS
 |  |F|max   |   1.041480E-002 |   1.000000E-003 |       eV/A | No  | <-- LBFGS
 |  |dR|max  |   3.808768E-003 |   1.000000E-003 |          A | No  | <-- LBFGS
 +-----------+-----------------+-----------------+------------+-----+ <-- LBFGS
  

================================================================================
 Starting LBFGS iteration          2 ...
================================================================================
  
 +------------+-------------+-------------+-----------------+ <-- min LBFGS
 |    Step    |   lambda    |   F.delta'  |    enthalpy     | <-- min LBFGS
 +------------+-------------+-------------+-----------------+ <-- min LBFGS
 |  previous  |    0.000000 |    0.009909 |   -23579.118942 | <-- min LBFGS
 +------------+-------------+-------------+-----------------+ <-- min LBFGS
  

--------------------------------------------------------------------------------
 LBFGS: starting iteration         2 with trial guess (lambda=  1.000000)
--------------------------------------------------------------------------------

                           -------------------------------
                                     Cell Contents
                           -------------------------------

            xxxxxxxxxxxxxxxxxxxxxxxxxxxxxxxxxxxxxxxxxxxxxxxxxxxxxxxxxxxxxxxxx
            x  Element         Atom        Fractional coordinates of atoms  x
            x                 Number           u          v          w      x
            x---------------------------------------------------------------x
            x  P                 1         0.250000   0.250506   0.332658   x
            x  P                 2         0.750000  -0.312423   0.416565   x
            x  P                 3         0.750000  -0.186875   0.249167   x
            x  P                 4         0.250000   0.124895   0.500139   x
            x  P                 5         0.750000  -0.438035   0.584046   x
            x  P                 6         0.250000   0.376283   0.164956   x
            x  P                 7         0.250000  -0.000636   0.667514   x
            x  P                 8         0.750000  -0.563770   0.751694   x
            x  P                 9         0.750000  -0.061381   0.081841   x
            x  P                10         0.250000  -0.126091   0.834788   x
            x  P                11         0.750000  -0.690293   0.920391   x
            x  P                12         0.250000   0.502804  -0.003739   x
            x  In                1         0.500000   0.187709   0.416388   x
            x  In                2         0.500000  -0.063297   0.751063   x
            x  In                3         0.000000  -0.500916   0.667888   x
            x  In                4         0.500000   0.062139   0.583814   x
            x  In                5         0.000000  -0.375233   0.500311   x
            x  In                6         0.000000  -0.626958   0.835944   x
            x  In                7         0.000000  -0.249656   0.332875   x
            x  In                8         0.500000  -0.188710   0.918280   x
            x  In                9         0.000000  -0.124189   0.165585   x
            x  In               10         0.500000   0.439477   0.080697   x
            x  In               11         0.000000   0.001237  -0.001649   x
            x  In               12         0.500000   0.313412   0.248784   x
            xxxxxxxxxxxxxxxxxxxxxxxxxxxxxxxxxxxxxxxxxxxxxxxxxxxxxxxxxxxxxxxxx


------------------------------------------------------------------------ <-- SCF
SCF loop      Energy           Fermi           Energy gain       Timer   <-- SCF
                               energy          per atom          (sec)   <-- SCF
------------------------------------------------------------------------ <-- SCF
Initial  -2.35791109E+004  0.00000000E+000                      1626.22  <-- SCF
      1  -2.35791187E+004  3.41016692E+000   3.27792809E-004    1663.82  <-- SCF
      2  -2.35791190E+004  3.41016681E+000   1.04482118E-005    1706.73  <-- SCF
      3  -2.35791190E+004  3.41013769E+000   1.14393625E-007    1743.06  <-- SCF
      4  -2.35791190E+004  3.41011103E+000   6.50603618E-008    1774.73  <-- SCF
      5  -2.35791190E+004  3.41010195E+000   2.11420170E-009    1800.39  <-- SCF
      6  -2.35791190E+004  3.41008677E+000  -2.36555479E-009    1827.92  <-- SCF
------------------------------------------------------------------------ <-- SCF
 
Final energy, E             =  -23579.11893867     eV
Final free energy (E-TS)    =  -23579.11897305     eV
(energies not corrected for finite basis set)
 
NB est. 0K energy (E-0.5TS)      =  -23579.11895586     eV
 

 ******************************** Constrained Forces ********************************
 *                                                                                  *
 *                           Cartesian components (eV/A)                            *
 * -------------------------------------------------------------------------------- *
 *                         x                    y                    z              *
 *                                                                                  *
 * P               1     -0.00000(cons'd)      0.00000(cons'd)     -0.00035         *
 * P               2      0.00000(cons'd)      0.00000(cons'd)      0.00004         *
 * P               3      0.00000(cons'd)      0.00000(cons'd)     -0.00023         *
 * P               4      0.00000(cons'd)     -0.00000(cons'd)     -0.00025         *
 * P               5      0.00000(cons'd)      0.00000(cons'd)      0.00016         *
 * P               6      0.00000(cons'd)     -0.00000(cons'd)      0.00035         *
 * P               7     -0.00000(cons'd)      0.00000(cons'd)      0.00009         *
 * P               8      0.00000(cons'd)      0.00000(cons'd)      0.00011         *
 * P               9      0.00000(cons'd)      0.00000(cons'd)     -0.00017         *
 * P              10      0.00000(cons'd)      0.00000(cons'd)      0.00005         *
 * P              11      0.00000(cons'd)      0.00000(cons'd)     -0.00188         *
 * P              12      0.00000(cons'd)     -0.00000(cons'd)      0.00176         *
 * In              1      0.00000(cons'd)      0.00000(cons'd)      0.00015         *
 * In              2      0.00000(cons'd)     -0.00000(cons'd)     -0.00088         *
 * In              3      0.00000(cons'd)      0.00000(cons'd)      0.00069         *
 * In              4      0.00000(cons'd)      0.00000(cons'd)     -0.00099         *
 * In              5      0.00000(cons'd)      0.00000(cons'd)     -0.00039         *
 * In              6      0.00000(cons'd)      0.00000(cons'd)     -0.00053         *
 * In              7      0.00000(cons'd)      0.00000(cons'd)      0.00081         *
 * In              8      0.00000(cons'd)      0.00000(cons'd)     -0.00047         *
 * In              9      0.00000(cons'd)     -0.00000(cons'd)      0.00096         *
 * In             10      0.00000(cons'd)      0.00000(cons'd)      0.00076         *
 * In             11      0.00000(cons'd)      0.00000(cons'd)      0.00077         *
 * In             12      0.00000(cons'd)      0.00000(cons'd)     -0.00056         *
 *                                                                                  *
 ************************************************************************************
  
 +------------+-------------+-------------+-----------------+ <-- min LBFGS
 |    Step    |   lambda    |   F.delta'  |    enthalpy     | <-- min LBFGS
 +------------+-------------+-------------+-----------------+ <-- min LBFGS
 |  previous  |    0.000000 |    0.009909 |   -23579.118942 | <-- min LBFGS
 | trial step |    1.000000 |   -0.001626 |   -23579.118973 | <-- min LBFGS
 +------------+-------------+-------------+-----------------+ <-- min LBFGS
  
 LBFGS: finished iteration     2 with enthalpy= -2.35791190E+004 eV
  
 +-----------+-----------------+-----------------+------------+-----+ <-- LBFGS
 | Parameter |      value      |    tolerance    |    units   | OK? | <-- LBFGS
 +-----------+-----------------+-----------------+------------+-----+ <-- LBFGS
 |  dE/ion   |   1.302899E-006 |   2.000000E-005 |         eV | Yes | <-- LBFGS
 |  |F|max   |   1.882969E-003 |   1.000000E-003 |       eV/A | No  | <-- LBFGS
 |  |dR|max  |   1.852691E-003 |   1.000000E-003 |          A | No  | <-- LBFGS
 +-----------+-----------------+-----------------+------------+-----+ <-- LBFGS
  

================================================================================
 Starting LBFGS iteration          3 ...
================================================================================
  
 +------------+-------------+-------------+-----------------+ <-- min LBFGS
 |    Step    |   lambda    |   F.delta'  |    enthalpy     | <-- min LBFGS
 +------------+-------------+-------------+-----------------+ <-- min LBFGS
 |  previous  |    0.000000 |    0.001925 |   -23579.118973 | <-- min LBFGS
 +------------+-------------+-------------+-----------------+ <-- min LBFGS
  

--------------------------------------------------------------------------------
 LBFGS: starting iteration         3 with trial guess (lambda=  1.000000)
--------------------------------------------------------------------------------

                           -------------------------------
                                     Cell Contents
                           -------------------------------

            xxxxxxxxxxxxxxxxxxxxxxxxxxxxxxxxxxxxxxxxxxxxxxxxxxxxxxxxxxxxxxxxx
            x  Element         Atom        Fractional coordinates of atoms  x
            x                 Number           u          v          w      x
            x---------------------------------------------------------------x
            x  P                 1         0.250000   0.250506   0.332659   x
            x  P                 2         0.750000  -0.312423   0.416564   x
            x  P                 3         0.750000  -0.186879   0.249172   x
            x  P                 4         0.250000   0.124899   0.500134   x
            x  P                 5         0.750000  -0.438031   0.584042   x
            x  P                 6         0.250000   0.376276   0.164965   x
            x  P                 7         0.250000  -0.000631   0.667508   x
            x  P                 8         0.750000  -0.563766   0.751688   x
            x  P                 9         0.750000  -0.061387   0.081849   x
            x  P                10         0.250000  -0.126087   0.834782   x
            x  P                11         0.750000  -0.690286   0.920382   x
            x  P                12         0.250000   0.502795  -0.003727   x
            x  In                1         0.500000   0.187709   0.416387   x
            x  In                2         0.500000  -0.063291   0.751055   x
            x  In                3         0.000000  -0.500914   0.667885   x
            x  In                4         0.500000   0.062146   0.583806   x
            x  In                5         0.000000  -0.375230   0.500307   x
            x  In                6         0.000000  -0.626952   0.835936   x
            x  In                7         0.000000  -0.249660   0.332880   x
            x  In                8         0.500000  -0.188707   0.918276   x
            x  In                9         0.000000  -0.124196   0.165595   x
            x  In               10         0.500000   0.439468   0.080709   x
            x  In               11         0.000000   0.001230  -0.001640   x
            x  In               12         0.500000   0.313410   0.248786   x
            xxxxxxxxxxxxxxxxxxxxxxxxxxxxxxxxxxxxxxxxxxxxxxxxxxxxxxxxxxxxxxxxx


------------------------------------------------------------------------ <-- SCF
SCF loop      Energy           Fermi           Energy gain       Timer   <-- SCF
                               energy          per atom          (sec)   <-- SCF
------------------------------------------------------------------------ <-- SCF
Initial  -2.35791200E+004  0.00000000E+000                      1869.39  <-- SCF
      1  -2.35791190E+004  3.41007341E+000  -4.23333387E-005    1907.28  <-- SCF
      2  -2.35791190E+004  3.41007341E+000   2.65248916E-007    1947.21  <-- SCF
      3  -2.35791190E+004  3.41007074E+000   3.01971731E-009    1970.70  <-- SCF
      4  -2.35791190E+004  3.41006440E+000   1.83526423E-009    1993.61  <-- SCF
------------------------------------------------------------------------ <-- SCF
 
Final energy, E             =  -23579.11893808     eV
Final free energy (E-TS)    =  -23579.11897246     eV
(energies not corrected for finite basis set)
 
NB est. 0K energy (E-0.5TS)      =  -23579.11895527     eV
 

 ******************************** Constrained Forces ********************************
 *                                                                                  *
 *                           Cartesian components (eV/A)                            *
 * -------------------------------------------------------------------------------- *
 *                         x                    y                    z              *
 *                                                                                  *
 * P               1     -0.00000(cons'd)      0.00000(cons'd)     -0.00037         *
 * P               2     -0.00000(cons'd)      0.00000(cons'd)      0.00004         *
 * P               3     -0.00000(cons'd)     -0.00000(cons'd)      0.00005         *
 * P               4     -0.00000(cons'd)     -0.00000(cons'd)     -0.00014         *
 * P               5      0.00000(cons'd)      0.00000(cons'd)      0.00035         *
 * P               6      0.00000(cons'd)     -0.00000(cons'd)     -0.00040         *
 * P               7     -0.00000(cons'd)      0.00000(cons'd)     -0.00012         *
 * P               8      0.00000(cons'd)      0.00000(cons'd)      0.00050         *
 * P               9      0.00000(cons'd)     -0.00000(cons'd)     -0.00038         *
 * P              10      0.00000(cons'd)      0.00000(cons'd)      0.00036         *
 * P              11     -0.00000(cons'd)      0.00000(cons'd)     -0.00028         *
 * P              12      0.00000(cons'd)      0.00000(cons'd)      0.00034         *
 * In              1      0.00000(cons'd)      0.00000(cons'd)     -0.00017         *
 * In              2      0.00000(cons'd)      0.00000(cons'd)      0.00070         *
 * In              3      0.00000(cons'd)      0.00000(cons'd)      0.00073         *
 * In              4      0.00000(cons'd)      0.00000(cons'd)      0.00049         *
 * In              5      0.00000(cons'd)      0.00000(cons'd)      0.00056         *
 * In              6      0.00000(cons'd)      0.00000(cons'd)      0.00108         *
 * In              7      0.00000(cons'd)      0.00000(cons'd)     -0.00028         *
 * In              8      0.00000(cons'd)      0.00000(cons'd)      0.00105         *
 * In              9     -0.00000(cons'd)      0.00000(cons'd)     -0.00091         *
 * In             10      0.00000(cons'd)      0.00000(cons'd)     -0.00122         *
 * In             11      0.00000(cons'd)      0.00000(cons'd)     -0.00138         *
 * In             12      0.00000(cons'd)      0.00000(cons'd)     -0.00062         *
 *                                                                                  *
 ************************************************************************************
  
 +------------+-------------+-------------+-----------------+ <-- min LBFGS
 |    Step    |   lambda    |   F.delta'  |    enthalpy     | <-- min LBFGS
 +------------+-------------+-------------+-----------------+ <-- min LBFGS
 |  previous  |    0.000000 |    0.001925 |   -23579.118973 | <-- min LBFGS
 | trial step |    1.000000 |   -0.001531 |   -23579.118972 | <-- min LBFGS
 +------------+-------------+-------------+-----------------+ <-- min LBFGS
  

--------------------------------------------------------------------------------
 LBFGS: improving iteration         3 with line minimization (lambda=  0.557025)
--------------------------------------------------------------------------------

                           -------------------------------
                                     Cell Contents
                           -------------------------------

            xxxxxxxxxxxxxxxxxxxxxxxxxxxxxxxxxxxxxxxxxxxxxxxxxxxxxxxxxxxxxxxxx
            x  Element         Atom        Fractional coordinates of atoms  x
            x                 Number           u          v          w      x
            x---------------------------------------------------------------x
            x  P                 1         0.250000   0.250506   0.332658   x
            x  P                 2         0.750000  -0.312423   0.416565   x
            x  P                 3         0.750000  -0.186877   0.249170   x
            x  P                 4         0.250000   0.124897   0.500137   x
            x  P                 5         0.750000  -0.438033   0.584044   x
            x  P                 6         0.250000   0.376279   0.164961   x
            x  P                 7         0.250000  -0.000633   0.667511   x
            x  P                 8         0.750000  -0.563768   0.751691   x
            x  P                 9         0.750000  -0.061384   0.081845   x
            x  P                10         0.250000  -0.126089   0.834785   x
            x  P                11         0.750000  -0.690289   0.920386   x
            x  P                12         0.250000   0.502799  -0.003732   x
            x  In                1         0.500000   0.187709   0.416388   x
            x  In                2         0.500000  -0.063294   0.751058   x
            x  In                3         0.000000  -0.500915   0.667886   x
            x  In                4         0.500000   0.062143   0.583809   x
            x  In                5         0.000000  -0.375231   0.500309   x
            x  In                6         0.000000  -0.626955   0.835939   x
            x  In                7         0.000000  -0.249658   0.332878   x
            x  In                8         0.500000  -0.188708   0.918278   x
            x  In                9         0.000000  -0.124193   0.165591   x
            x  In               10         0.500000   0.439472   0.080704   x
            x  In               11         0.000000   0.001233  -0.001644   x
            x  In               12         0.500000   0.313411   0.248785   x
            xxxxxxxxxxxxxxxxxxxxxxxxxxxxxxxxxxxxxxxxxxxxxxxxxxxxxxxxxxxxxxxxx


------------------------------------------------------------------------ <-- SCF
SCF loop      Energy           Fermi           Energy gain       Timer   <-- SCF
                               energy          per atom          (sec)   <-- SCF
------------------------------------------------------------------------ <-- SCF
Initial  -2.35791186E+004  0.00000000E+000                      2036.09  <-- SCF
      1  -2.35791190E+004  3.41005952E+000   1.48733421E-005    2075.13  <-- SCF
      2  -2.35791190E+004  3.41005952E+000   5.15673414E-008    2108.81  <-- SCF
      3  -2.35791190E+004  3.41005666E+000   4.27300247E-010    2131.99  <-- SCF
      4  -2.35791190E+004  3.41005274E+000   9.42251827E-011    2156.57  <-- SCF
------------------------------------------------------------------------ <-- SCF
 
Final energy, E             =  -23579.11893847     eV
Final free energy (E-TS)    =  -23579.11897285     eV
(energies not corrected for finite basis set)
 
NB est. 0K energy (E-0.5TS)      =  -23579.11895566     eV
 

 ******************************** Constrained Forces ********************************
 *                                                                                  *
 *                           Cartesian components (eV/A)                            *
 * -------------------------------------------------------------------------------- *
 *                         x                    y                    z              *
 *                                                                                  *
 * P               1     -0.00000(cons'd)      0.00000(cons'd)     -0.00052         *
 * P               2     -0.00000(cons'd)     -0.00000(cons'd)      0.00004         *
 * P               3      0.00000(cons'd)     -0.00000(cons'd)     -0.00039         *
 * P               4      0.00000(cons'd)     -0.00000(cons'd)      0.00003         *
 * P               5      0.00000(cons'd)      0.00000(cons'd)      0.00058         *
 * P               6      0.00000(cons'd)      0.00000(cons'd)     -0.00067         *
 * P               7      0.00000(cons'd)      0.00000(cons'd)      0.00035         *
 * P               8      0.00000(cons'd)      0.00000(cons'd)      0.00083         *
 * P               9      0.00000(cons'd)     -0.00000(cons'd)     -0.00085         *
 * P              10      0.00000(cons'd)      0.00000(cons'd)      0.00068         *
 * P              11     -0.00000(cons'd)      0.00000(cons'd)     -0.00053         *
 * P              12     -0.00000(cons'd)     -0.00000(cons'd)      0.00036         *
 * In              1      0.00000(cons'd)      0.00000(cons'd)     -0.00014         *
 * In              2      0.00000(cons'd)      0.00000(cons'd)     -0.00043         *
 * In              3      0.00000(cons'd)      0.00000(cons'd)      0.00058         *
 * In              4      0.00000(cons'd)      0.00000(cons'd)     -0.00076         *
 * In              5      0.00000(cons'd)      0.00000(cons'd)     -0.00017         *
 * In              6      0.00000(cons'd)      0.00000(cons'd)      0.00009         *
 * In              7      0.00000(cons'd)      0.00000(cons'd)      0.00058         *
 * In              8      0.00000(cons'd)      0.00000(cons'd)      0.00056         *
 * In              9      0.00000(cons'd)      0.00000(cons'd)      0.00041         *
 * In             10      0.00000(cons'd)      0.00000(cons'd)      0.00020         *
 * In             11      0.00000(cons'd)      0.00000(cons'd)     -0.00038         *
 * In             12      0.00000(cons'd)      0.00000(cons'd)     -0.00045         *
 *                                                                                  *
 ************************************************************************************
  
 +------------+-------------+-------------+-----------------+ <-- min LBFGS
 |    Step    |   lambda    |   F.delta'  |    enthalpy     | <-- min LBFGS
 +------------+-------------+-------------+-----------------+ <-- min LBFGS
 |  previous  |    0.000000 |    0.001925 |   -23579.118973 | <-- min LBFGS
 | trial step |    1.000000 |   -0.001531 |   -23579.118972 | <-- min LBFGS
 |  line step |    0.557025 |   -0.000166 |   -23579.118973 | <-- min LBFGS
 +------------+-------------+-------------+-----------------+ <-- min LBFGS
  
 LBFGS: finished iteration     3 with enthalpy= -2.35791190E+004 eV
  
 +-----------+-----------------+-----------------+------------+-----+ <-- LBFGS
 | Parameter |      value      |    tolerance    |    units   | OK? | <-- LBFGS
 +-----------+-----------------+-----------------+------------+-----+ <-- LBFGS
 |  dE/ion   |   8.298132E-009 |   2.000000E-005 |         eV | Yes | <-- LBFGS
 |  |F|max   |   8.511756E-004 |   1.000000E-003 |       eV/A | Yes | <-- LBFGS
 |  |dR|max  |   1.684340E-004 |   1.000000E-003 |          A | Yes | <-- LBFGS
 +-----------+-----------------+-----------------+------------+-----+ <-- LBFGS
  
 Hirshfeld supercell size:           3           4           1
Standard grid dimensions: 180 180 250
Fine grid dimensions:     180 180 250

 LBFGS: Geometry optimization completed successfully.

================================================================================
 LBFGS: Final Configuration:
================================================================================

                           -------------------------------
                                     Cell Contents
                           -------------------------------

            xxxxxxxxxxxxxxxxxxxxxxxxxxxxxxxxxxxxxxxxxxxxxxxxxxxxxxxxxxxxxxxxx
            x  Element         Atom        Fractional coordinates of atoms  x
            x                 Number           u          v          w      x
            x---------------------------------------------------------------x
            x  P                 1         0.250000   0.250506   0.332658   x
            x  P                 2         0.750000  -0.312423   0.416565   x
            x  P                 3         0.750000  -0.186877   0.249170   x
            x  P                 4         0.250000   0.124897   0.500137   x
            x  P                 5         0.750000  -0.438033   0.584044   x
            x  P                 6         0.250000   0.376279   0.164961   x
            x  P                 7         0.250000  -0.000633   0.667511   x
            x  P                 8         0.750000  -0.563768   0.751691   x
            x  P                 9         0.750000  -0.061384   0.081845   x
            x  P                10         0.250000  -0.126089   0.834785   x
            x  P                11         0.750000  -0.690289   0.920386   x
            x  P                12         0.250000   0.502799  -0.003732   x
            x  In                1         0.500000   0.187709   0.416388   x
            x  In                2         0.500000  -0.063294   0.751058   x
            x  In                3         0.000000  -0.500915   0.667886   x
            x  In                4         0.500000   0.062143   0.583809   x
            x  In                5         0.000000  -0.375231   0.500309   x
            x  In                6         0.000000  -0.626955   0.835939   x
            x  In                7         0.000000  -0.249658   0.332878   x
            x  In                8         0.500000  -0.188708   0.918278   x
            x  In                9         0.000000  -0.124193   0.165591   x
            x  In               10         0.500000   0.439472   0.080704   x
            x  In               11         0.000000   0.001233  -0.001644   x
            x  In               12         0.500000   0.313411   0.248785   x
            xxxxxxxxxxxxxxxxxxxxxxxxxxxxxxxxxxxxxxxxxxxxxxxxxxxxxxxxxxxxxxxxx


 LBFGS: Final Enthalpy     = -2.35791190E+004 eV
 LBFGS: Final <frequency>  =     155.35550 cm-1

 ******************* Unconstrained Forces *******************
 *                                                          *
 *               Cartesian components (eV/A)                *
 * -------------------------------------------------------- *
 *                         x            y            z      *
 *                                                          *
 * P               1      0.04226     -0.00582     -0.00052 *
 * P               2      0.03535      0.00154      0.00004 *
 * P               3      0.01994      0.00508     -0.00039 *
 * P               4      0.03265      0.00444      0.00003 *
 * P               5      0.04178     -0.00714      0.00058 *
 * P               6      0.06821      0.00888     -0.00067 *
 * P               7      0.02327     -0.00195      0.00035 *
 * P               8      0.06530     -0.00332      0.00083 *
 * P               9     -0.02608      0.09553     -0.00085 *
 * P              10     -0.02701     -0.10203      0.00068 *
 * P              11      0.39436     -0.91850     -0.00053 *
 * P              12      0.39190      0.92756      0.00036 *
 * In              1     -0.03698     -0.00053     -0.00014 *
 * In              2      0.00269      0.00529     -0.00043 *
 * In              3     -0.05464      0.00045      0.00058 *
 * In              4     -0.02604     -0.00055     -0.00076 *
 * In              5     -0.03725     -0.00034     -0.00017 *
 * In              6     -0.12254     -0.07542      0.00009 *
 * In              7     -0.02690      0.00030      0.00058 *
 * In              8     -0.29099     -0.22429      0.00056 *
 * In              9     -0.00001     -0.00623      0.00041 *
 * In             10     -0.12211      0.07517      0.00020 *
 * In             11     -0.28992      0.22314     -0.00038 *
 * In             12     -0.05723     -0.00127     -0.00045 *
 *                                                          *
 ************************************************************

 ******************************** Constrained Forces ********************************
 *                                                                                  *
 *                           Cartesian components (eV/A)                            *
 * -------------------------------------------------------------------------------- *
 *                         x                    y                    z              *
 *                                                                                  *
 * P               1     -0.00000(cons'd)      0.00000(cons'd)     -0.00052         *
 * P               2      0.00000(cons'd)     -0.00000(cons'd)      0.00004         *
 * P               3     -0.00000(cons'd)      0.00000(cons'd)     -0.00039         *
 * P               4      0.00000(cons'd)      0.00000(cons'd)      0.00003         *
 * P               5     -0.00000(cons'd)      0.00000(cons'd)      0.00058         *
 * P               6     -0.00000(cons'd)     -0.00000(cons'd)     -0.00067         *
 * P               7     -0.00000(cons'd)      0.00000(cons'd)      0.00035         *
 * P               8      0.00000(cons'd)      0.00000(cons'd)      0.00083         *
 * P               9      0.00000(cons'd)     -0.00000(cons'd)     -0.00085         *
 * P              10      0.00000(cons'd)      0.00000(cons'd)      0.00068         *
 * P              11      0.00000(cons'd)      0.00000(cons'd)     -0.00053         *
 * P              12     -0.00000(cons'd)     -0.00000(cons'd)      0.00036         *
 * In              1      0.00000(cons'd)      0.00000(cons'd)     -0.00014         *
 * In              2     -0.00000(cons'd)     -0.00000(cons'd)     -0.00043         *
 * In              3      0.00000(cons'd)      0.00000(cons'd)      0.00058         *
 * In              4      0.00000(cons'd)      0.00000(cons'd)     -0.00076         *
 * In              5      0.00000(cons'd)      0.00000(cons'd)     -0.00017         *
 * In              6      0.00000(cons'd)      0.00000(cons'd)      0.00009         *
 * In              7      0.00000(cons'd)      0.00000(cons'd)      0.00058         *
 * In              8      0.00000(cons'd)      0.00000(cons'd)      0.00056         *
 * In              9      0.00000(cons'd)      0.00000(cons'd)      0.00041         *
 * In             10      0.00000(cons'd)      0.00000(cons'd)      0.00020         *
 * In             11      0.00000(cons'd)      0.00000(cons'd)     -0.00038         *
 * In             12      0.00000(cons'd)      0.00000(cons'd)     -0.00045         *
 *                                                                                  *
 ************************************************************************************

 Pseudo atomic calculation performed for P 3s2 3p3

 Converged in 23 iterations to a total energy of -208.0292 eV

 Pseudo atomic calculation performed for In 4d10 5s2 5p1

 Converged in 42 iterations to a total energy of -1747.4501 eV
Charge spilling parameter for spin component 1 = 0.15%

            Orbital Populations       
     Ion    Atom   Orbital             Charge
  -------------------------------------------
      P     1      S                    1.737
      P     1      Px                   1.313
      P     1      Py                   1.312
      P     1      Pz                   1.312
      P     2      S                    1.737
      P     2      Px                   1.313
      P     2      Py                   1.312
      P     2      Pz                   1.312
      P     3      S                    1.737
      P     3      Px                   1.314
      P     3      Py                   1.313
      P     3      Pz                   1.311
      P     4      S                    1.736
      P     4      Px                   1.313
      P     4      Py                   1.312
      P     4      Pz                   1.312
      P     5      S                    1.737
      P     5      Px                   1.313
      P     5      Py                   1.312
      P     5      Pz                   1.312
      P     6      S                    1.737
      P     6      Px                   1.312
      P     6      Py                   1.310
      P     6      Pz                   1.312
      P     7      S                    1.736
      P     7      Px                   1.314
      P     7      Py                   1.313
      P     7      Pz                   1.311
      P     8      S                    1.737
      P     8      Px                   1.312
      P     8      Py                   1.310
      P     8      Pz                   1.312
      P     9      S                    1.737
      P     9      Px                   1.312
      P     9      Py                   1.314
      P     9      Pz                   1.308
      P    10      S                    1.737
      P    10      Px                   1.312
      P    10      Py                   1.314
      P    10      Pz                   1.308
      P    11      S                    1.752
      P    11      Px                   1.303
      P    11      Py                   1.269
      P    11      Pz                   1.326
      P    12      S                    1.752
      P    12      Px                   1.303
      P    12      Py                   1.269
      P    12      Pz                   1.326
     In     1      Dzz                  1.998
     In     1      Dzy                  1.999
     In     1      Dzx                  1.997
     In     1      Dxx-yy               1.999
     In     1      Dxy                  1.997
     In     1      S                    1.429
     In     1      Px                   0.481
     In     1      Py                   0.481
     In     1      Pz                   0.481
     In     1      S                   -0.532
     In     2      Dzz                  1.998
     In     2      Dzy                  1.999
     In     2      Dzx                  1.997
     In     2      Dxx-yy               1.999
     In     2      Dxy                  1.997
     In     2      S                    1.434
     In     2      Px                   0.481
     In     2      Py                   0.482
     In     2      Pz                   0.479
     In     2      S                   -0.539
     In     3      Dzz                  1.998
     In     3      Dzy                  1.999
     In     3      Dzx                  1.997
     In     3      Dxx-yy               1.999
     In     3      Dxy                  1.997
     In     3      S                    1.431
     In     3      Px                   0.481
     In     3      Py                   0.481
     In     3      Pz                   0.481
     In     3      S                   -0.533
     In     4      Dzz                  1.998
     In     4      Dzy                  1.999
     In     4      Dzx                  1.997
     In     4      Dxx-yy               1.999
     In     4      Dxy                  1.997
     In     4      S                    1.431
     In     4      Px                   0.481
     In     4      Py                   0.482
     In     4      Pz                   0.481
     In     4      S                   -0.533
     In     5      Dzz                  1.998
     In     5      Dzy                  1.999
     In     5      Dzx                  1.997
     In     5      Dxx-yy               1.999
     In     5      Dxy                  1.997
     In     5      S                    1.429
     In     5      Px                   0.481
     In     5      Py                   0.481
     In     5      Pz                   0.481
     In     5      S                   -0.532
     In     6      Dzz                  1.998
     In     6      Dzy                  1.999
     In     6      Dzx                  1.997
     In     6      Dxx-yy               1.999
     In     6      Dxy                  1.997
     In     6      S                    1.430
     In     6      Px                   0.482
     In     6      Py                   0.477
     In     6      Pz                   0.483
     In     6      S                   -0.524
     In     7      Dzz                  1.998
     In     7      Dzy                  1.999
     In     7      Dzx                  1.997
     In     7      Dxx-yy               1.999
     In     7      Dxy                  1.997
     In     7      S                    1.431
     In     7      Px                   0.481
     In     7      Py                   0.482
     In     7      Pz                   0.480
     In     7      S                   -0.533
     In     8      Dzz                  1.998
     In     8      Dzy                  1.999
     In     8      Dzx                  1.998
     In     8      Dxx-yy               1.999
     In     8      Dxy                  1.997
     In     8      S                    1.405
     In     8      Px                   0.473
     In     8      Py                   0.487
     In     8      Pz                   0.456
     In     8      S                   -0.483
     In     9      Dzz                  1.998
     In     9      Dzy                  1.999
     In     9      Dzx                  1.997
     In     9      Dxx-yy               1.999
     In     9      Dxy                  1.997
     In     9      S                    1.434
     In     9      Px                   0.481
     In     9      Py                   0.482
     In     9      Pz                   0.479
     In     9      S                   -0.539
     In    10      Dzz                  1.998
     In    10      Dzy                  1.999
     In    10      Dzx                  1.997
     In    10      Dxx-yy               1.999
     In    10      Dxy                  1.997
     In    10      S                    1.430
     In    10      Px                   0.482
     In    10      Py                   0.477
     In    10      Pz                   0.483
     In    10      S                   -0.523
     In    11      Dzz                  1.998
     In    11      Dzy                  1.999
     In    11      Dzx                  1.998
     In    11      Dxx-yy               1.999
     In    11      Dxy                  1.997
     In    11      S                    1.405
     In    11      Px                   0.473
     In    11      Py                   0.487
     In    11      Pz                   0.456
     In    11      S                   -0.483
     In    12      Dzz                  1.998
     In    12      Dzy                  1.999
     In    12      Dzx                  1.997
     In    12      Dxx-yy               1.999
     In    12      Dxy                  1.997
     In    12      S                    1.431
     In    12      Px                   0.481
     In    12      Py                   0.481
     In    12      Pz                   0.481
     In    12      S                   -0.532
  -------------------------------------------
                           Total:     216.000
  -------------------------------------------

     Atomic Populations (Mulliken)
     -----------------------------
Species          Ion     s       p       d       f      Total   Charge (e)
==========================================================================
  P               1     1.737   3.937   0.000   0.000   5.674    -0.674
  P               2     1.737   3.938   0.000   0.000   5.674    -0.674
  P               3     1.737   3.938   0.000   0.000   5.675    -0.675
  P               4     1.736   3.938   0.000   0.000   5.674    -0.674
  P               5     1.737   3.937   0.000   0.000   5.674    -0.674
  P               6     1.737   3.934   0.000   0.000   5.672    -0.672
  P               7     1.736   3.938   0.000   0.000   5.675    -0.675
  P               8     1.737   3.934   0.000   0.000   5.672    -0.672
  P               9     1.737   3.934   0.000   0.000   5.671    -0.671
  P              10     1.737   3.934   0.000   0.000   5.671    -0.671
  P              11     1.752   3.897   0.000   0.000   5.650    -0.650
  P              12     1.752   3.897   0.000   0.000   5.650    -0.650
  In              1     0.898   1.443   9.989   0.000  12.330     0.670
  In              2     0.895   1.442   9.989   0.000  12.327     0.673
  In              3     0.898   1.443   9.989   0.000  12.331     0.669
  In              4     0.898   1.443   9.989   0.000  12.330     0.670
  In              5     0.898   1.443   9.989   0.000  12.330     0.670
  In              6     0.906   1.442   9.989   0.000  12.338     0.662
  In              7     0.898   1.443   9.989   0.000  12.330     0.670
  In              8     0.922   1.417   9.990   0.000  12.328     0.672
  In              9     0.896   1.442   9.989   0.000  12.327     0.673
  In             10     0.907   1.442   9.989   0.000  12.338     0.662
  In             11     0.922   1.417   9.990   0.000  12.329     0.671
  In             12     0.899   1.443   9.989   0.000  12.331     0.669
==========================================================================

                 Bond                   Population      Length (A)
======================================================================
              P 4  -- In 5                   1.25        2.55533
              P 2  -- In 1                   1.25        2.55533
              P 1  -- In 7                   1.25        2.55533
              P 5  -- In 4                   1.25        2.55533
              P 7  -- In 3                   1.24        2.55534
              P 3  -- In 12                  1.24        2.55534
              P 6  -- In 9                   1.25        2.55537
              P 8  -- In 2                   1.25        2.55538
              P 9  -- In 10                  1.21        2.55549
              P 10 -- In 6                   1.21        2.55549
              P 12 -- In 11                  1.27        2.55586
              P 11 -- In 8                   1.27        2.55587
              P 9  -- In 11                  0.57        2.55852
              P 10 -- In 8                   0.57        2.55859
              P 7  -- In 2                   0.53        2.55970
              P 3  -- In 9                   0.53        2.56035
              P 4  -- In 4                   0.54        2.56227
              P 2  -- In 7                   0.54        2.56255
              P 7  -- In 4                   0.54        2.56286
              P 3  -- In 7                   0.54        2.56299
              P 10 -- In 2                   0.54        2.56337
              P 1  -- In 1                   0.54        2.56343
              P 5  -- In 5                   0.54        2.56355
              P 2  -- In 5                   0.54        2.56373
              P 9  -- In 9                   0.54        2.56375
              P 4  -- In 1                   0.54        2.56383
              P 8  -- In 3                   0.54        2.56496
              P 6  -- In 12                  0.54        2.56538
              P 5  -- In 3                   0.53        2.56575
              P 1  -- In 12                  0.53        2.56637
              P 8  -- In 6                   0.52        2.57407
              P 6  -- In 10                  0.52        2.57425
              P 12 -- In 10                  0.54        2.57791
              P 11 -- In 6                   0.54        2.57813
              P 11 -- In 11                  0.41        2.66002
              P 12 -- In 8                   0.41        2.66039
======================================================================

 Hirshfeld supercell size:           3           4           1
Standard grid dimensions: 180 180 250
Fine grid dimensions:     180 180 250


     Hirshfeld Analysis
     ------------------
Species   Ion     Hirshfeld Charge (e)
======================================
  P        1                -0.24
  P        2                -0.24
  P        3                -0.24
  P        4                -0.24
  P        5                -0.24
  P        6                -0.24
  P        7                -0.24
  P        8                -0.24
  P        9                -0.24
  P       10                -0.24
  P       11                -0.24
  P       12                -0.24
  In       1                 0.24
  In       2                 0.24
  In       3                 0.24
  In       4                 0.24
  In       5                 0.24
  In       6                 0.23
  In       7                 0.24
  In       8                 0.25
  In       9                 0.24
  In      10                 0.23
  In      11                 0.25
  In      12                 0.24
======================================

 
 A BibTeX formatted list of references used in this run has been written to 
 StackingFaultStructs_110_1-10_6.bib
 
Initialisation time =     21.88 s
Calculation time    =   2257.71 s
Finalisation time   =     44.60 s
Total time          =   2324.20 s
Peak Memory Use     = 8908592 kB
 
Overall parallel efficiency rating: Very good (84%)
 
Data was distributed by:-
k-point (64-way); efficiency rating: Very good (85%)
