 +-------------------------------------------------+
 |                                                 |
 |      CCC   AA    SSS  TTTTT  EEEEE  PPPP        |
 |     C     A  A  S       T    E      P   P       |
 |     C     AAAA   SS     T    EEE    PPPP        |
 |     C     A  A     S    T    E      P           |
 |      CCC  A  A  SSS     T    EEEEE  P           |
 |                                                 |
 +-------------------------------------------------+
 |                                                 |
 | Welcome to Academic Release CASTEP version 24.1 |
 | Ab Initio Total Energy Program                  |
 |                                                 |
 | Authors:                                        |
 | M. Segall, M. Probert, C. Pickard, P. Hasnip,   |
 | S. Clark, K. Refson, J. R. Yates,               |
 | A. Bartok-Partay, M. Payne                      |
 |                                                 |
 | Contributors:                                   |
 | P. Lindan, P. Haynes, J. White, V. Milman,      |
 | N. Govind, M. Gibson, P. Tulip, V. Cocula,      |
 | B. Montanari, D. Quigley, M. Glover,            |
 | L. Bernasconi, A. Perlov, M. Plummer,           |
 | E. McNellis, J. Meyer, J. Gale, D. Jochym       |
 | J. Aarons, B. Walker, R. Gillen, D. Jones       |
 | T. Green, I. J. Bush, C. J. Armstrong,          |
 | E. J. Higgins, E. L. Brown, M. S. McFly,        |
 | J. Wilkins, B-C. Shih, P. J. P. Byrne,          |
 | R. J. Maurer, J. C. Womack, J. Dziedzic,        |
 | L. LeBlanc, T. K. Stenczel, J. Kermode,         |
 | S. Sturniolo, B. Shi, B. Durham, M. Evans,      |
 | M. J. Smith, A. Tamerus, Z. Hawkhead,           |
 | V. Ravindran, T. Hollins, S. A. Joyce,          |
 | R. T. Strong, A. M. Reilly, S. J. Donaldson     |
 |                                                 |
 | Copyright (c) 2000 - 2023                       |
 |                                                 |
 |     Distributed under license from Cambridge    |
 |     Enterprise for academic use only.           |
 |                                                 |
 | Please cite                                     |
 |                                                 |
 |     "First principles methods using CASTEP"     |
 |                                                 |
 |         Zeitschrift fuer Kristallographie       |
 |           220(5-6) pp. 567-570 (2005)           |
 |                                                 |
 | S. J. Clark, M. D. Segall, C. J. Pickard,       |
 | P. J. Hasnip, M. J. Probert, K. Refson,         |
 | M. C. Payne                                     |
 |                                                 |
 |       in all publications arising from          |
 |              your use of CASTEP                 |
 |                                                 |
 +-------------------------------------------------+
 |                                                 |
 |              http://www.castep.org              |
 |                                                 |
 +-------------------------------------------------+



 Compiled for  GNU 11.2.0 on 04-04-2024 18:39:17
 from code version 6355fd106 Castep241_branch Thu Mar 7 17:56:19 2024 +0000
 Compiler: GNU Fortran 11.2.0; Optimisation: FAST
 Comms   : MPI VERSION : CRAY MPICH version 8.1.23.14 (ANL base 3.4a2)
 MATHLIBS: default (LAPACK version 3.10.1)
 FFT Lib : fftw3 version commercial-fftw-3.3.10-sse2-avx-avx2-avx2_128
 Fundamental constants values: CODATA 2018

 Run started: Tue, 29 Jul 2025 23:03:53 +0100

 Atomic calculation performed for P: 1s2 2s2 2p6 3s2 3p3

 Converged in 47 iterations to an ae energy of -9309.074 eV

   ============================================================                
   | Pseudopotential Report - Date of generation 29-07-2025   |                
   ------------------------------------------------------------                
   | Element: P Ionic charge:  5.00 Level of theory: RSCAN    |                
   | Atomic Solver: Koelling-Harmon                           |                
   |                                                          |                
   |               Reference Electronic Structure             |                
   |         Orbital         Occupation         Energy        |                
   |            3s              2.000           -0.535        |                
   |            3p              3.000           -0.209        |                
   |                                                          |                
   |                 Pseudopotential Definition               |                
   |        Beta     l      e      Rc     scheme   norm       |                
   |          1      0   -0.535   1.807     qc      0         |                
   |          2      0    0.250   1.807     qc      0         |                
   |          3      1   -0.209   1.807     qc      0         |                
   |          4      1    0.250   1.807     qc      0         |                
   |          5      2    0.000   1.807     qc      0         |                
   |          6      2    0.250   1.807     qc      0         |                
   |         loc     3    0.000   1.807     pn      0         |                
   |                                                          |                
   | Augmentation charge Rinner = 1.263                       |                
   | Partial core correction Rc = 1.263                       |                
   ------------------------------------------------------------                
   | "3|1.8|4|4|5|30:31:32"                                   |                
   ------------------------------------------------------------                
   |      Author: Chris J. Pickard, Cambridge University      |                
   ============================================================                
 Warning: otfg_output_psp cannot write out meta-GGA pseudopotentials presently.

 Atomic calculation performed for In:
 1s2 2s2 2p6 3s2 3p6 3d10 4s2 4p6 4d10 5s2 5p1

 Converged in 84 iterations to an ae energy of -160093.328 eV

   ============================================================                
   | Pseudopotential Report - Date of generation 29-07-2025   |                
   ------------------------------------------------------------                
   | Element: In Ionic charge: 13.00 Level of theory: RSCAN   |                
   | Atomic Solver: Koelling-Harmon                           |                
   |                                                          |                
   |               Reference Electronic Structure             |                
   |         Orbital         Occupation         Energy        |                
   |            4d             10.000           -0.711        |                
   |            5s              2.000           -0.313        |                
   |            5p              1.000           -0.095        |                
   |                                                          |                
   |                 Pseudopotential Definition               |                
   |        Beta     l      e      Rc     scheme   norm       |                
   |          1      0   -0.313   2.501     qc      0         |                
   |          2      0    0.250   2.501     qc      0         |                
   |          3      1   -0.095   2.501     qc      0         |                
   |          4      1    0.250   2.501     qc      0         |                
   |          5      2   -0.711   2.207     qc      0         |                
   |          6      2    0.250   2.207     qc      0         |                
   |         loc     3    0.000   2.501     pn      0         |                
   |                                                          |                
   | Augmentation charge Rinner = 1.504                       |                
   | Partial core correction Rc = 1.504                       |                
   ------------------------------------------------------------                
   | "3|2.5|2.5|1.5|7|8|9|50:51:42U2.2U2.2"                   |                
   ------------------------------------------------------------                
   |      Author: Chris J. Pickard, Cambridge University      |                
   ============================================================                
 Warning: otfg_output_psp cannot write out meta-GGA pseudopotentials presently.

 Pseudo atomic calculation performed for P 3s2 3p3

 Converged in 23 iterations to a total energy of -208.0292 eV

 Pseudo atomic calculation performed for In 4d10 5s2 5p1

 Converged in 42 iterations to a total energy of -1747.4501 eV
 Calculation parallelised over 108 processes.
 Data is distributed by G-vector(3-way) and k-point(36-way)
 Each process may use up to 16 threads.

 ************************************ Title ************************************
 

 ***************************** General Parameters ******************************
  
 output verbosity                               : normal  (1)
 write checkpoint data to                       : In_Interstitial_Migration_Tetra_Octa_Singlepoints_3.check
 type of calculation                            : single point energy
 stress calculation                             : off
 density difference calculation                 : off
 electron localisation func (ELF) calculation   : off
 Hirshfeld analysis                             : on
 polarisation (Berry phase) analysis            : off
 molecular orbital projected DOS                : off
 deltaSCF calculation                           : off
 unlimited duration calculation
 timing information                             : on
 memory usage estimate                          : on
 write extra output files                       : on
 write final potential to formatted file        : off
 write final density to formatted file          : off
 write BibTeX reference list                    : on
 write OTFG pseudopotential files               : on
 write electrostatic potential file             : on
 write bands file                               : on
 checkpoint writing                             : off
  
 output         length unit                     : A
 output           mass unit                     : amu
 output           time unit                     : ps
 output         charge unit                     : e
 output           spin unit                     : hbar/2
 output         energy unit                     : eV
 output          force unit                     : eV/A
 output       velocity unit                     : A/ps
 output       pressure unit                     : GPa
 output     inv_length unit                     : 1/A
 output      frequency unit                     : cm-1
 output force constant unit                     : eV/A**2
 output         volume unit                     : A**3
 output   IR intensity unit                     : (D/A)**2/amu
 output         dipole unit                     : D
 output         efield unit                     : eV/A/e
 output        entropy unit                     : J/mol/K
 output    efield chi2 unit                     : pm/V
  
 wavefunctions paging                           : none
 random number generator seed                   :  230353982
 data distribution                              : optimal for this architecture
 optimization strategy                          : balance speed and memory

 *********************** Exchange-Correlation Parameters ***********************
  
 using functional                               : RSCAN
 relativistic treatment                         : Koelling-Harmon
 DFT+D: Semi-empirical dispersion correction    : off

 ************************* Pseudopotential Parameters **************************
  
 pseudopotential representation                 : reciprocal space
 <beta|phi> representation                      : reciprocal space
 spin-orbit coupling                            : off

 **************************** Basis Set Parameters *****************************
  
 plane wave basis set cut-off                   :   900.0000   eV
 size of standard grid                          :     2.0000
 size of   fine   gmax                          :    30.7390   1/A
 finite basis set correction                    : none

 **************************** Electronic Parameters ****************************
  
 number of  electrons                           :  589.0    
 net charge of system                           :  0.000    
 net spin   of system                           :  1.000    
 number of  up  spins                           :  295.0    
 number of down spins                           :  294.0    
 treating system as spin-polarized
 number of bands                                :        354

 ********************* Electronic Minimization Parameters **********************
  
 Method: Treating system as metallic with density mixing treatment of electrons,
         and number of  SD  steps               :          1
         and number of  CG  steps               :          4
  
 total energy / atom convergence tol.           : 0.1000E-07   eV
 eigen-energy convergence tolerance             : 0.2203E-08   eV
 max force / atom convergence tol.              : ignored
 convergence tolerance window                   :          3   cycles
 max. number of SCF cycles                      :        100
 number of fixed-spin iterations                :         10
 smearing scheme                                : Gaussian
 smearing width                                 : 0.2000       eV
 Fermi energy convergence tolerance             : 0.2721E-13   eV
 periodic dipole correction                     : NONE

 ************************** Density Mixing Parameters **************************
  
 density-mixing scheme                          : Pulay
 max. length of mixing history                  :         20
 charge density mixing amplitude                : 0.5000    
   spin density mixing amplitude                :  2.000    
 cut-off energy for mixing                      :  900.0       eV

 *********************** Population Analysis Parameters ************************
  
 Population analysis with cutoff                :  3.000       A
 Population analysis output                     : summary and pdos components

 *******************************************************************************
  

                           -------------------------------
                                      Unit Cell
                           -------------------------------
        Real Lattice(A)                      Reciprocal Lattice(1/A)
    11.8025500     0.0000000     0.0000000        0.532358288   0.000000000   0.000000000
     0.0000000    11.8025500     0.0000000        0.000000000   0.532358288   0.000000000
     0.0000000     0.0000000    11.8025500        0.000000000   0.000000000   0.532358288

                       Lattice parameters(A)       Cell Angles
                    a =     11.802550          alpha =   90.000000
                    b =     11.802550          beta  =   90.000000
                    c =     11.802550          gamma =   90.000000

                       Current cell volume =          1644.097416       A**3
                                   density =             2.907464   AMU/A**3
                                           =             4.827958     g/cm^3

                           -------------------------------
                                     Cell Contents
                           -------------------------------
                         Total number of ions in cell =   65
                      Total number of species in cell =    2
                        Max number of any one species =   33

            xxxxxxxxxxxxxxxxxxxxxxxxxxxxxxxxxxxxxxxxxxxxxxxxxxxxxxxxxxxx
            x  Element    Atom        Fractional coordinates of atoms  x
            x            Number           u          v          w      x
            x----------------------------------------------------------x
            x  P            1         0.128684   0.121316   0.379890   x 
            x  P            2         0.387843   0.130398   0.131268   x 
            x  P            3         0.128684   0.379020   0.122187   x 
            x  P            4         0.375379   0.377871   0.378741   x 
            x  P            5         0.119602   0.130398   0.863028   x 
            x  P            6         0.377190   0.123525   0.623271   x 
            x  P            7         0.125740   0.375466   0.623751   x 
            x  P            8         0.388192   0.383452   0.862679   x 
            x  P            9         0.125740   0.622881   0.376336   x 
            x  P           10         0.377190   0.622401   0.124395   x 
            x  P           11         0.119602   0.862157   0.131268   x 
            x  P           12         0.388192   0.861809   0.384322   x 
            x  P           13         0.126475   0.622401   0.873680   x 
            x  P           14         0.377972   0.626157   0.627028   x 
            x  P           15         0.126475   0.872810   0.623271   x 
            x  P           16         0.369839   0.880161   0.881032   x 
            x  P           17         0.627119   0.124260   0.376336   x 
            x  P           18         0.870980   0.121316   0.122187   x 
            x  P           19         0.627119   0.375466   0.125130   x 
            x  P           20         0.883252   0.366748   0.367619   x 
            x  P           21         0.627599   0.123525   0.873680   x 
            x  P           22         0.874534   0.124260   0.623751   x 
            x  P           23         0.629450   0.373646   0.621420   x 
            x  P           24         0.872129   0.377871   0.875491   x 
            x  P           25         0.629450   0.620550   0.374516   x 
            x  P           26         0.874534   0.622881   0.125130   x 
            x  P           27         0.627599   0.872810   0.124395   x 
            x  P           28         0.872129   0.874621   0.378741   x 
            x  P           29         0.623843   0.626157   0.872899   x 
            x  P           30         0.876354   0.620550   0.621420   x 
            x  P           31         0.623843   0.872028   0.627028   x 
            x  P           32         0.866548   0.861809   0.862679   x 
            x  In           1        -0.024606  -0.012361  -0.011491   x 
            x  In           2         0.262361  -0.012361   0.275476   x 
            x  In           3         0.010837   0.239163   0.240033   x 
            x  In           4         0.262361   0.274606  -0.011491   x 
            x  In           5        -0.000088  -0.001486   0.501646   x 
            x  In           6         0.248411   0.001589   0.747172   x 
            x  In           7        -0.007034   0.257034   0.744738   x 
            x  In           8         0.251487   0.250088   0.501646   x 
            x  In           9        -0.000088   0.500776  -0.000616   x 
            x  In          10         0.251487   0.500776   0.250958   x 
            x  In          11        -0.007034   0.743867   0.257904   x 
            x  In          12         0.248411   0.746302   0.002459   x 
            x  In          13        -0.000019   0.495051   0.495921   x 
            x  In          14         0.250654   0.501765   0.745536   x 
            x  In          15         0.003390   0.743614   0.744484   x 
            x  In          16         0.250654   0.744666   0.502635   x 
            x  In          17         0.503698   0.001589   0.002459   x 
            x  In          18         0.749225  -0.001486   0.250958   x 
            x  In          19         0.506132   0.257034   0.257904   x 
            x  In          20         0.749225   0.250088  -0.000616   x 
            x  In          21         0.505334  -0.000654   0.502635   x 
            x  In          22         0.748235  -0.000654   0.745536   x 
            x  In          23         0.506386   0.246610   0.744484   x 
            x  In          24         0.754949   0.250019   0.495921   x 
            x  In          25         0.505334   0.501765   0.000216   x 
            x  In          26         0.754949   0.495051   0.250889   x 
            x  In          27         0.506386   0.743614   0.247480   x 
            x  In          28         0.748235   0.744666   0.000216   x 
            x  In          29         0.502465   0.501256   0.502126   x 
            x  In          30         0.748744   0.501256   0.748405   x 
            x  In          31         0.495705   0.754295   0.755165   x 
            x  In          32         0.748744   0.747535   0.502126   x 
            x  In          33         0.181282   0.068718   0.069588   x 
            xxxxxxxxxxxxxxxxxxxxxxxxxxxxxxxxxxxxxxxxxxxxxxxxxxxxxxxxxxxx


                         No user defined ionic velocities

                           -------------------------------
                                   Details of Species
                           -------------------------------

                               Mass of species in AMU
                                    P   30.9737600
                                    In  114.8180000

                          Electric Quadrupole Moment (Barn)
                                    P    1.0000000 No Isotope Defined
                                    In    0.7700000 Isotope115

                          Files used for pseudopotentials:
                                    P 3|1.8|4|4|5|30:31:32
                                    In 3|2.5|2.5|1.5|7|8|9|50:51:42U2.2U2.2

                           -------------------------------
                              k-Points For BZ Sampling
                           -------------------------------
                       MP grid size for SCF calculation is  4  4  4
                            with an offset of   0.125  0.125  0.125
                       Number of kpoints used =            36

                           -------------------------------
                               Symmetry and Constraints
                           -------------------------------

                      Maximum deviation from symmetry =  0.00000         ANG

                      Number of symmetry operations   =           1
                      Number of ionic constraints     =           3
                      Point group of crystal =     1: C1, 1, 1
                      Space group of crystal =   160: R3m, R 3 -2"

             Set iprint > 1 for details on symmetry rotations/translations

                         Centre of mass is constrained
             Set iprint > 1 for details of linear ionic constraints

                         Number of cell constraints= 0
                         Cell constraints are:  1 2 3 4 5 6

                         External pressure/stress (GPa)
                          0.00000   0.00000   0.00000
                                    0.00000   0.00000
                                              0.00000
 
+---------------- MEMORY AND SCRATCH DISK ESTIMATES PER PROCESS --------------+
|                                                     Memory          Disk    |
| Baseline code, static data and system overhead      368.0 MB         0.0 MB |
| BLAS internal memory storage                          0.0 MB         0.0 MB |
| Model and support data                             4331.9 MB         0.0 MB |
| Electronic energy minimisation requirements        1349.7 MB         0.0 MB |
| Force calculation requirements                      127.4 MB         0.0 MB |
|                                               ----------------------------- |
| Approx. total storage required per process         6049.6 MB         0.0 MB |
|                                                                             |
| Requirements will fluctuate during execution and may exceed these estimates |
+-----------------------------------------------------------------------------+
Calculating approximate eigenstates for fixed initial Hamiltonian
Cut-off for approx. calculation is   89.988 eV
Improving approx. states at cut-off of  450.000 eV
Resetting cut-off to  900.000 eV
Calculating total energy with cut-off of  900.000 eV.
------------------------------------------------------------------------ <-- SCF
SCF loop      Energy           Fermi           Energy gain       Timer   <-- SCF
                               energy          per atom          (sec)   <-- SCF
------------------------------------------------------------------------ <-- SCF
Initial  -6.48026593E+004  0.00000000E+000                       442.12  <-- SCF
      1  -6.45469693E+004  3.84881014E+000  -3.93369274E+000     902.42  <-- SCF
      2  -6.45472835E+004  3.84159715E+000   4.83327457E-003    1223.81  <-- SCF
      3  -6.46170896E+004  4.02274945E+000   1.07394053E+000    1585.73  <-- SCF
      4  -6.46295022E+004  4.08787093E+000   1.90963572E-001    2081.16  <-- SCF
      5  -6.46368080E+004  4.22972426E+000   1.12395886E-001    2443.90  <-- SCF
      6  -6.46250587E+004  4.48199851E+000  -1.80758652E-001    2812.54  <-- SCF
      7  -6.46237765E+004  4.53569857E+000  -1.97257134E-002    3167.07  <-- SCF
      8  -6.46237685E+004  4.56082109E+000  -1.23083668E-004    3539.99  <-- SCF
      9  -6.46245783E+004  4.58210277E+000   1.24586545E-002    3918.23  <-- SCF
     10  -6.46249822E+004  4.72802321E+000   6.21387690E-003    4283.12  <-- SCF
     11  -6.46250134E+004  4.72485318E+000   4.80073693E-004    4644.94  <-- SCF
     12  -6.46250231E+004  4.72168122E+000   1.48829913E-004    5012.83  <-- SCF
     13  -6.46250283E+004  4.71845158E+000   8.07534257E-005    5386.45  <-- SCF
     14  -6.46250299E+004  4.71642622E+000   2.34785610E-005    5772.27  <-- SCF
     15  -6.46250303E+004  4.71570174E+000   7.51391131E-006    6150.60  <-- SCF
     16  -6.46250307E+004  4.71464688E+000   4.89793147E-006    6522.39  <-- SCF
     17  -6.46250307E+004  4.71439168E+000   1.15378960E-006    6871.50  <-- SCF
     18  -6.46250308E+004  4.71445214E+000   5.51765726E-007    7191.37  <-- SCF
     19  -6.46250308E+004  4.71455350E+000   1.63857131E-007    7506.09  <-- SCF
     20  -6.46250308E+004  4.71457063E+000   1.88009491E-008    7766.64  <-- SCF
     21  -6.46250308E+004  4.71457226E+000   6.77064901E-009    8022.29  <-- SCF
     22  -6.46250308E+004  4.71457426E+000   3.04598297E-011    8286.98  <-- SCF
------------------------------------------------------------------------ <-- SCF
 
Integrated Spin Density     =   -0.100502E-03 hbar/2
Integrated |Spin Density|   =    0.698453E-03 hbar/2
 
Final energy, E             =  -64624.89905912     eV
Final free energy (E-TS)    =  -64625.03078979     eV
(energies not corrected for finite basis set)
 
NB est. 0K energy (E-0.5TS)      =  -64624.96492446     eV
 

 ************************** Forces **************************
 *                                                          *
 *               Cartesian components (eV/A)                *
 * -------------------------------------------------------- *
 *                         x            y            z      *
 *                                                          *
 * P               1     -0.00805      0.00805     -0.05897 *
 * P               2      0.13666     -0.08300     -0.08449 *
 * P               3     -0.00819     -0.05473      0.00477 *
 * P               4     -0.02631     -0.02362     -0.02652 *
 * P               5      0.08340     -0.08340     -0.14055 *
 * P               6      0.01321     -0.00619      0.04977 *
 * P               7     -0.00447      0.04496     -0.01591 *
 * P               8      0.04528     -0.00084     -0.04924 *
 * P               9     -0.00388     -0.01701      0.04748 *
 * P              10      0.01356      0.04985     -0.00384 *
 * P              11      0.08299     -0.13667     -0.08449 *
 * P              12      0.04531     -0.04532      0.00297 *
 * P              13      0.00631      0.05010     -0.01257 *
 * P              14      0.04484     -0.01583     -0.01427 *
 * P              15      0.00620     -0.01320      0.04976 *
 * P              16      0.04193     -0.04193     -0.04363 *
 * P              17      0.01702      0.00389      0.04748 *
 * P              18      0.05474      0.00820      0.00477 *
 * P              19      0.01648      0.04489      0.00705 *
 * P              20      0.01527     -0.01528     -0.01307 *
 * P              21     -0.05010     -0.00630     -0.01257 *
 * P              22     -0.04497      0.00448     -0.01591 *
 * P              23      0.00235      0.03004     -0.00607 *
 * P              24      0.02421     -0.02422      0.03019 *
 * P              25      0.00221     -0.00221      0.03327 *
 * P              26     -0.04490     -0.01647      0.00705 *
 * P              27     -0.04985     -0.01355     -0.00385 *
 * P              28      0.02362      0.02631     -0.02652 *
 * P              29      0.01646     -0.01646     -0.04476 *
 * P              30     -0.03003     -0.00235     -0.00607 *
 * P              31      0.01583     -0.04484     -0.01428 *
 * P              32      0.00084     -0.04528     -0.04924 *
 * In              1     -0.01206      0.06488      0.06499 *
 * In              2     -0.06492      0.06491      0.01229 *
 * In              3      0.09961     -0.09962     -0.09943 *
 * In              4     -0.06488      0.01206      0.06499 *
 * In              5      0.00119     -0.00500      0.05423 *
 * In              6     -0.01647      0.01646     -0.04830 *
 * In              7      0.03506     -0.03506     -0.10775 *
 * In              8      0.00499     -0.00118      0.05423 *
 * In              9      0.00120      0.05401     -0.00481 *
 * In             10      0.00499      0.05404     -0.00097 *
 * In             11      0.03500     -0.10785     -0.03486 *
 * In             12     -0.01647     -0.04839      0.01659 *
 * In             13      0.05293      0.01116      0.01122 *
 * In             14     -0.06104     -0.00200      0.00804 *
 * In             15      0.04308     -0.02831     -0.02824 *
 * In             16     -0.06105      0.00798     -0.00189 *
 * In             17      0.04840      0.01646      0.01659 *
 * In             18     -0.05405     -0.00500     -0.00097 *
 * In             19      0.10786     -0.03500     -0.03485 *
 * In             20     -0.05401     -0.00120     -0.00481 *
 * In             21     -0.00797      0.06104     -0.00189 *
 * In             22      0.00200      0.06104      0.00804 *
 * In             23      0.02831     -0.04309     -0.02824 *
 * In             24     -0.01116     -0.05293      0.01121 *
 * In             25     -0.00798     -0.00199      0.06123 *
 * In             26     -0.01115      0.01115     -0.05279 *
 * In             27      0.02832     -0.02833     -0.04303 *
 * In             28      0.00199      0.00798      0.06123 *
 * In             29      0.00808     -0.00955     -0.00941 *
 * In             30      0.00956     -0.00957     -0.00795 *
 * In             31     -0.04107      0.04107      0.04109 *
 * In             32      0.00955     -0.00807     -0.00941 *
 * In             33     -0.47579      0.47579      0.47584 *
 *                                                          *
 ************************************************************

 Pseudo atomic calculation performed for P 3s2 3p3

 Converged in 23 iterations to a total energy of -208.0292 eV

 Pseudo atomic calculation performed for In 4d10 5s2 5p1

 Converged in 42 iterations to a total energy of -1747.4501 eV
Charge spilling parameter for spin component 1 = 0.25%
Charge spilling parameter for spin component 2 = 0.25%

                   Orbital Populations                  
  ---------------------------------------------------------------
     Ion    Atom   Orbital              Up        Down      Spin
  ---------------------------------------------------------------
      P     1      S                    0.871     0.871     0.000
      P     1      Px                   0.650     0.650    -0.000
      P     1      Py                   0.650     0.650    -0.000
      P     1      Pz                   0.650     0.650    -0.000
      P     2      S                    0.885     0.885    -0.000
      P     2      Px                   0.629     0.629    -0.000
      P     2      Py                   0.650     0.651    -0.000
      P     2      Pz                   0.650     0.651    -0.000
      P     3      S                    0.871     0.871     0.000
      P     3      Px                   0.650     0.650    -0.000
      P     3      Py                   0.650     0.650    -0.000
      P     3      Pz                   0.650     0.650    -0.000
      P     4      S                    0.867     0.867     0.000
      P     4      Px                   0.655     0.655    -0.000
      P     4      Py                   0.657     0.657    -0.000
      P     4      Pz                   0.657     0.657    -0.000
      P     5      S                    0.885     0.885     0.000
      P     5      Px                   0.651     0.651    -0.000
      P     5      Py                   0.650     0.651    -0.000
      P     5      Pz                   0.629     0.629    -0.000
      P     6      S                    0.868     0.868    -0.000
      P     6      Px                   0.653     0.653    -0.000
      P     6      Py                   0.657     0.657    -0.000
      P     6      Pz                   0.658     0.658    -0.000
      P     7      S                    0.867     0.867     0.000
      P     7      Px                   0.653     0.653    -0.000
      P     7      Py                   0.658     0.658    -0.000
      P     7      Pz                   0.657     0.657    -0.000
      P     8      S                    0.869     0.869     0.000
      P     8      Px                   0.654     0.654    -0.000
      P     8      Py                   0.658     0.658    -0.000
      P     8      Pz                   0.654     0.654    -0.000
      P     9      S                    0.867     0.867     0.000
      P     9      Px                   0.653     0.653    -0.000
      P     9      Py                   0.657     0.657    -0.000
      P     9      Pz                   0.658     0.658    -0.000
      P    10      S                    0.868     0.868     0.000
      P    10      Px                   0.653     0.653    -0.000
      P    10      Py                   0.658     0.658    -0.000
      P    10      Pz                   0.657     0.657    -0.000
      P    11      S                    0.885     0.885     0.000
      P    11      Px                   0.651     0.651    -0.000
      P    11      Py                   0.629     0.629    -0.000
      P    11      Pz                   0.650     0.650     0.000
      P    12      S                    0.869     0.869     0.000
      P    12      Px                   0.654     0.654    -0.000
      P    12      Py                   0.654     0.654    -0.000
      P    12      Pz                   0.658     0.658    -0.000
      P    13      S                    0.868     0.868     0.000
      P    13      Px                   0.657     0.657    -0.000
      P    13      Py                   0.658     0.658    -0.000
      P    13      Pz                   0.653     0.653    -0.000
      P    14      S                    0.866     0.866     0.000
      P    14      Px                   0.656     0.656    -0.000
      P    14      Py                   0.658     0.658    -0.000
      P    14      Pz                   0.658     0.658    -0.000
      P    15      S                    0.868     0.868     0.000
      P    15      Px                   0.657     0.657    -0.000
      P    15      Py                   0.653     0.653    -0.000
      P    15      Pz                   0.658     0.658    -0.000
      P    16      S                    0.871     0.871    -0.000
      P    16      Px                   0.655     0.655    -0.000
      P    16      Py                   0.655     0.655    -0.000
      P    16      Pz                   0.655     0.655    -0.000
      P    17      S                    0.867     0.867     0.000
      P    17      Px                   0.657     0.657    -0.000
      P    17      Py                   0.653     0.653    -0.000
      P    17      Pz                   0.658     0.658    -0.000
      P    18      S                    0.871     0.871    -0.000
      P    18      Px                   0.650     0.650    -0.000
      P    18      Py                   0.650     0.650    -0.000
      P    18      Pz                   0.650     0.650    -0.000
      P    19      S                    0.867     0.867     0.000
      P    19      Px                   0.657     0.657    -0.000
      P    19      Py                   0.658     0.658    -0.000
      P    19      Pz                   0.653     0.653    -0.000
      P    20      S                    0.871     0.871     0.000
      P    20      Px                   0.654     0.654    -0.000
      P    20      Py                   0.654     0.654    -0.000
      P    20      Pz                   0.654     0.654    -0.000
      P    21      S                    0.868     0.868     0.000
      P    21      Px                   0.658     0.658    -0.000
      P    21      Py                   0.657     0.657    -0.000
      P    21      Pz                   0.653     0.653    -0.000
      P    22      S                    0.867     0.867     0.000
      P    22      Px                   0.658     0.658    -0.000
      P    22      Py                   0.653     0.653    -0.000
      P    22      Pz                   0.657     0.657    -0.000
      P    23      S                    0.868     0.868     0.000
      P    23      Px                   0.657     0.657    -0.000
      P    23      Py                   0.654     0.654     0.000
      P    23      Pz                   0.657     0.657    -0.000
      P    24      S                    0.867     0.867     0.000
      P    24      Px                   0.657     0.657     0.000
      P    24      Py                   0.657     0.657    -0.000
      P    24      Pz                   0.655     0.655    -0.000
      P    25      S                    0.868     0.868     0.000
      P    25      Px                   0.657     0.657     0.000
      P    25      Py                   0.657     0.657    -0.000
      P    25      Pz                   0.654     0.654     0.000
      P    26      S                    0.867     0.867     0.000
      P    26      Px                   0.658     0.658    -0.000
      P    26      Py                   0.657     0.657    -0.000
      P    26      Pz                   0.653     0.653    -0.000
      P    27      S                    0.868     0.868     0.000
      P    27      Px                   0.658     0.658    -0.000
      P    27      Py                   0.653     0.653     0.000
      P    27      Pz                   0.657     0.657    -0.000
      P    28      S                    0.867     0.867     0.000
      P    28      Px                   0.657     0.657     0.000
      P    28      Py                   0.655     0.655    -0.000
      P    28      Pz                   0.657     0.657    -0.000
      P    29      S                    0.866     0.866     0.000
      P    29      Px                   0.658     0.658    -0.000
      P    29      Py                   0.658     0.658    -0.000
      P    29      Pz                   0.656     0.656    -0.000
      P    30      S                    0.868     0.868     0.000
      P    30      Px                   0.654     0.654    -0.000
      P    30      Py                   0.657     0.657     0.000
      P    30      Pz                   0.657     0.657     0.000
      P    31      S                    0.866     0.866     0.000
      P    31      Px                   0.658     0.658     0.000
      P    31      Py                   0.656     0.656    -0.000
      P    31      Pz                   0.658     0.658    -0.000
      P    32      S                    0.869     0.869     0.000
      P    32      Px                   0.658     0.658     0.000
      P    32      Py                   0.654     0.654    -0.000
      P    32      Pz                   0.654     0.654    -0.000
     In     1      Dzz                  1.000     1.000    -0.000
     In     1      Dzy                  0.998     0.998    -0.000
     In     1      Dzx                  0.999     0.999    -0.000
     In     1      Dxx-yy               0.999     0.999     0.000
     In     1      Dxy                  0.999     0.999    -0.000
     In     1      S                    0.705     0.705     0.000
     In     1      Px                   0.222     0.222     0.000
     In     1      Py                   0.246     0.246     0.000
     In     1      Pz                   0.246     0.246     0.000
     In     1      S                   -0.224    -0.224     0.000
     In     2      Dzz                  0.999     0.999     0.000
     In     2      Dzy                  0.999     0.999    -0.000
     In     2      Dzx                  0.999     0.999    -0.000
     In     2      Dxx-yy               1.000     1.000    -0.000
     In     2      Dxy                  0.998     0.998    -0.000
     In     2      S                    0.705     0.705     0.000
     In     2      Px                   0.246     0.246    -0.000
     In     2      Py                   0.246     0.246     0.000
     In     2      Pz                   0.222     0.222     0.000
     In     2      S                   -0.224    -0.224     0.000
     In     3      Dzz                  1.000     1.000     0.000
     In     3      Dzy                  0.999     0.999    -0.000
     In     3      Dzx                  0.999     0.999     0.000
     In     3      Dxx-yy               1.000     1.000    -0.000
     In     3      Dxy                  0.999     0.999     0.000
     In     3      S                    0.700     0.700     0.000
     In     3      Px                   0.244     0.244     0.000
     In     3      Py                   0.244     0.244     0.000
     In     3      Pz                   0.244     0.244     0.000
     In     3      S                   -0.271    -0.271     0.000
     In     4      Dzz                  1.000     1.000    -0.000
     In     4      Dzy                  0.999     0.999    -0.000
     In     4      Dzx                  0.998     0.998    -0.000
     In     4      Dxx-yy               0.999     0.999     0.000
     In     4      Dxy                  0.999     0.999     0.000
     In     4      S                    0.705     0.705     0.000
     In     4      Px                   0.246     0.246    -0.000
     In     4      Py                   0.222     0.222     0.000
     In     4      Pz                   0.246     0.246     0.000
     In     4      S                   -0.224    -0.224     0.000
     In     5      Dzz                  1.000     1.000     0.000
     In     5      Dzy                  0.998     0.998     0.000
     In     5      Dzx                  0.998     0.998     0.000
     In     5      Dxx-yy               1.000     1.000     0.000
     In     5      Dxy                  0.998     0.998    -0.000
     In     5      S                    0.712     0.713    -0.000
     In     5      Px                   0.244     0.244    -0.000
     In     5      Py                   0.243     0.243    -0.000
     In     5      Pz                   0.237     0.237    -0.000
     In     5      S                   -0.266    -0.266     0.000
     In     6      Dzz                  1.000     1.000    -0.000
     In     6      Dzy                  0.999     0.999     0.000
     In     6      Dzx                  0.999     0.999    -0.000
     In     6      Dxx-yy               1.000     1.000    -0.000
     In     6      Dxy                  0.998     0.998     0.000
     In     6      S                    0.712     0.712     0.000
     In     6      Px                   0.245     0.245    -0.000
     In     6      Py                   0.245     0.245     0.000
     In     6      Pz                   0.236     0.236     0.000
     In     6      S                   -0.266    -0.266    -0.000
     In     7      Dzz                  0.999     0.999    -0.000
     In     7      Dzy                  0.998     0.998    -0.000
     In     7      Dzx                  0.998     0.998     0.000
     In     7      Dxx-yy               0.999     0.999     0.000
     In     7      Dxy                  0.998     0.998     0.000
     In     7      S                    0.729     0.729    -0.000
     In     7      Px                   0.247     0.247     0.000
     In     7      Py                   0.247     0.247    -0.000
     In     7      Pz                   0.237     0.237    -0.000
     In     7      S                   -0.283    -0.283    -0.000
     In     8      Dzz                  1.000     1.000     0.000
     In     8      Dzy                  0.998     0.998     0.000
     In     8      Dzx                  0.998     0.998     0.000
     In     8      Dxx-yy               1.000     1.000     0.000
     In     8      Dxy                  0.998     0.998    -0.000
     In     8      S                    0.712     0.712     0.000
     In     8      Px                   0.243     0.243    -0.000
     In     8      Py                   0.244     0.244     0.000
     In     8      Pz                   0.237     0.237    -0.000
     In     8      S                   -0.265    -0.266     0.000
     In     9      Dzz                  1.000     1.000    -0.000
     In     9      Dzy                  0.998     0.998     0.000
     In     9      Dzx                  0.998     0.998     0.000
     In     9      Dxx-yy               1.000     1.000     0.000
     In     9      Dxy                  0.998     0.998     0.000
     In     9      S                    0.712     0.713    -0.000
     In     9      Px                   0.244     0.244    -0.000
     In     9      Py                   0.237     0.237    -0.000
     In     9      Pz                   0.243     0.243    -0.000
     In     9      S                   -0.266    -0.266     0.000
     In    10      Dzz                  1.000     1.000     0.000
     In    10      Dzy                  0.998     0.998     0.000
     In    10      Dzx                  0.998     0.998    -0.000
     In    10      Dxx-yy               1.000     1.000    -0.000
     In    10      Dxy                  0.998     0.998     0.000
     In    10      S                    0.712     0.712    -0.000
     In    10      Px                   0.243     0.243    -0.000
     In    10      Py                   0.237     0.237     0.000
     In    10      Pz                   0.244     0.244     0.000
     In    10      S                   -0.266    -0.266     0.000
     In    11      Dzz                  0.999     0.999     0.000
     In    11      Dzy                  0.998     0.998    -0.000
     In    11      Dzx                  0.998     0.998    -0.000
     In    11      Dxx-yy               0.999     0.999     0.000
     In    11      Dxy                  0.998     0.998     0.000
     In    11      S                    0.729     0.729    -0.000
     In    11      Px                   0.247     0.247    -0.000
     In    11      Py                   0.237     0.237     0.000
     In    11      Pz                   0.247     0.247    -0.000
     In    11      S                   -0.283    -0.283    -0.000
     In    12      Dzz                  1.000     1.000    -0.000
     In    12      Dzy                  0.999     0.999    -0.000
     In    12      Dzx                  0.998     0.998    -0.000
     In    12      Dxx-yy               1.000     1.000    -0.000
     In    12      Dxy                  0.999     0.999    -0.000
     In    12      S                    0.712     0.712     0.000
     In    12      Px                   0.245     0.245    -0.000
     In    12      Py                   0.236     0.236    -0.000
     In    12      Pz                   0.245     0.245    -0.000
     In    12      S                   -0.266    -0.266     0.000
     In    13      Dzz                  1.000     1.000     0.000
     In    13      Dzy                  0.998     0.998    -0.000
     In    13      Dzx                  0.998     0.998    -0.000
     In    13      Dxx-yy               1.000     1.000     0.000
     In    13      Dxy                  0.998     0.998    -0.000
     In    13      S                    0.709     0.709     0.000
     In    13      Px                   0.245     0.245    -0.000
     In    13      Py                   0.242     0.242    -0.000
     In    13      Pz                   0.242     0.242     0.000
     In    13      S                   -0.262    -0.262    -0.000
     In    14      Dzz                  1.000     1.000     0.000
     In    14      Dzy                  0.998     0.998    -0.000
     In    14      Dzx                  0.998     0.998    -0.000
     In    14      Dxx-yy               1.000     1.000     0.000
     In    14      Dxy                  0.998     0.998    -0.000
     In    14      S                    0.715     0.715     0.000
     In    14      Px                   0.248     0.248     0.000
     In    14      Py                   0.239     0.239    -0.000
     In    14      Pz                   0.239     0.239    -0.000
     In    14      S                   -0.261    -0.261     0.000
     In    15      Dzz                  1.000     1.000    -0.000
     In    15      Dzy                  0.998     0.998    -0.000
     In    15      Dzx                  0.998     0.998    -0.000
     In    15      Dxx-yy               1.000     1.000     0.000
     In    15      Dxy                  0.998     0.998    -0.000
     In    15      S                    0.713     0.713     0.000
     In    15      Px                   0.243     0.243    -0.000
     In    15      Py                   0.240     0.240    -0.000
     In    15      Pz                   0.240     0.240    -0.000
     In    15      S                   -0.269    -0.269    -0.000
     In    16      Dzz                  1.000     1.000     0.000
     In    16      Dzy                  0.998     0.998    -0.000
     In    16      Dzx                  0.998     0.998    -0.000
     In    16      Dxx-yy               1.000     1.000    -0.000
     In    16      Dxy                  0.998     0.998    -0.000
     In    16      S                    0.715     0.715     0.000
     In    16      Px                   0.248     0.248    -0.000
     In    16      Py                   0.239     0.239    -0.000
     In    16      Pz                   0.239     0.239     0.000
     In    16      S                   -0.261    -0.261    -0.000
     In    17      Dzz                  1.000     1.000    -0.000
     In    17      Dzy                  0.998     0.998    -0.000
     In    17      Dzx                  0.999     0.999    -0.000
     In    17      Dxx-yy               1.000     1.000    -0.000
     In    17      Dxy                  0.999     0.999    -0.000
     In    17      S                    0.712     0.712     0.000
     In    17      Px                   0.236     0.236    -0.000
     In    17      Py                   0.245     0.245    -0.000
     In    17      Pz                   0.245     0.245    -0.000
     In    17      S                   -0.266    -0.266     0.000
     In    18      Dzz                  1.000     1.000     0.000
     In    18      Dzy                  0.998     0.998    -0.000
     In    18      Dzx                  0.998     0.998     0.000
     In    18      Dxx-yy               1.000     1.000    -0.000
     In    18      Dxy                  0.998     0.998     0.000
     In    18      S                    0.712     0.712    -0.000
     In    18      Px                   0.237     0.237     0.000
     In    18      Py                   0.243     0.243     0.000
     In    18      Pz                   0.244     0.244     0.000
     In    18      S                   -0.266    -0.266    -0.000
     In    19      Dzz                  0.999     0.999    -0.000
     In    19      Dzy                  0.998     0.998     0.000
     In    19      Dzx                  0.998     0.998    -0.000
     In    19      Dxx-yy               0.999     0.999     0.000
     In    19      Dxy                  0.998     0.998     0.000
     In    19      S                    0.729     0.729     0.000
     In    19      Px                   0.237     0.237    -0.000
     In    19      Py                   0.247     0.247    -0.000
     In    19      Pz                   0.247     0.247    -0.000
     In    19      S                   -0.283    -0.283    -0.000
     In    20      Dzz                  1.000     1.000    -0.000
     In    20      Dzy                  0.998     0.998     0.000
     In    20      Dzx                  0.998     0.998     0.000
     In    20      Dxx-yy               1.000     1.000     0.000
     In    20      Dxy                  0.998     0.998     0.000
     In    20      S                    0.713     0.712     0.000
     In    20      Px                   0.237     0.237    -0.000
     In    20      Py                   0.244     0.244    -0.000
     In    20      Pz                   0.243     0.243     0.000
     In    20      S                   -0.266    -0.266     0.000
     In    21      Dzz                  1.000     1.000    -0.000
     In    21      Dzy                  0.998     0.998    -0.000
     In    21      Dzx                  0.998     0.998    -0.000
     In    21      Dxx-yy               1.000     1.000     0.000
     In    21      Dxy                  0.998     0.998    -0.000
     In    21      S                    0.715     0.715     0.000
     In    21      Px                   0.239     0.239    -0.000
     In    21      Py                   0.248     0.248     0.000
     In    21      Pz                   0.239     0.239    -0.000
     In    21      S                   -0.261    -0.261     0.000
     In    22      Dzz                  1.000     1.000    -0.000
     In    22      Dzy                  0.998     0.998     0.000
     In    22      Dzx                  0.998     0.998     0.000
     In    22      Dxx-yy               1.000     1.000    -0.000
     In    22      Dxy                  0.998     0.998    -0.000
     In    22      S                    0.715     0.715     0.000
     In    22      Px                   0.239     0.239    -0.000
     In    22      Py                   0.248     0.248    -0.000
     In    22      Pz                   0.239     0.239    -0.000
     In    22      S                   -0.261    -0.261     0.000
     In    23      Dzz                  1.000     1.000    -0.000
     In    23      Dzy                  0.998     0.998     0.000
     In    23      Dzx                  0.998     0.998    -0.000
     In    23      Dxx-yy               1.000     1.000    -0.000
     In    23      Dxy                  0.998     0.998    -0.000
     In    23      S                    0.713     0.713     0.000
     In    23      Px                   0.240     0.240     0.000
     In    23      Py                   0.243     0.243    -0.000
     In    23      Pz                   0.240     0.240    -0.000
     In    23      S                   -0.269    -0.269    -0.000
     In    24      Dzz                  1.000     1.000     0.000
     In    24      Dzy                  0.998     0.998     0.000
     In    24      Dzx                  0.998     0.998    -0.000
     In    24      Dxx-yy               1.000     1.000     0.000
     In    24      Dxy                  0.998     0.998     0.000
     In    24      S                    0.709     0.709     0.000
     In    24      Px                   0.242     0.242    -0.000
     In    24      Py                   0.245     0.245    -0.000
     In    24      Pz                   0.242     0.242    -0.000
     In    24      S                   -0.262    -0.262    -0.000
     In    25      Dzz                  1.000     1.000     0.000
     In    25      Dzy                  0.998     0.998    -0.000
     In    25      Dzx                  0.998     0.998     0.000
     In    25      Dxx-yy               1.000     1.000    -0.000
     In    25      Dxy                  0.998     0.998    -0.000
     In    25      S                    0.715     0.715     0.000
     In    25      Px                   0.239     0.239    -0.000
     In    25      Py                   0.239     0.239    -0.000
     In    25      Pz                   0.248     0.248    -0.000
     In    25      S                   -0.261    -0.261     0.000
     In    26      Dzz                  1.000     1.000     0.000
     In    26      Dzy                  0.998     0.998    -0.000
     In    26      Dzx                  0.998     0.998    -0.000
     In    26      Dxx-yy               1.000     1.000     0.000
     In    26      Dxy                  0.998     0.998    -0.000
     In    26      S                    0.709     0.709     0.000
     In    26      Px                   0.242     0.242     0.000
     In    26      Py                   0.242     0.242     0.000
     In    26      Pz                   0.245     0.245    -0.000
     In    26      S                   -0.262    -0.262    -0.000
     In    27      Dzz                  1.000     1.000     0.000
     In    27      Dzy                  0.998     0.998    -0.000
     In    27      Dzx                  0.998     0.998    -0.000
     In    27      Dxx-yy               1.000     1.000     0.000
     In    27      Dxy                  0.998     0.998    -0.000
     In    27      S                    0.713     0.713     0.000
     In    27      Px                   0.240     0.240    -0.000
     In    27      Py                   0.240     0.240    -0.000
     In    27      Pz                   0.243     0.243     0.000
     In    27      S                   -0.269    -0.269    -0.000
     In    28      Dzz                  1.000     1.000    -0.000
     In    28      Dzy                  0.998     0.998    -0.000
     In    28      Dzx                  0.998     0.998    -0.000
     In    28      Dxx-yy               1.000     1.000    -0.000
     In    28      Dxy                  0.998     0.998    -0.000
     In    28      S                    0.715     0.715     0.000
     In    28      Px                   0.239     0.239    -0.000
     In    28      Py                   0.239     0.239    -0.000
     In    28      Pz                   0.248     0.248    -0.000
     In    28      S                   -0.261    -0.261    -0.000
     In    29      Dzz                  1.000     1.000    -0.000
     In    29      Dzy                  0.998     0.998    -0.000
     In    29      Dzx                  0.998     0.998     0.000
     In    29      Dxx-yy               1.000     1.000     0.000
     In    29      Dxy                  0.998     0.998    -0.000
     In    29      S                    0.712     0.712    -0.000
     In    29      Px                   0.244     0.244    -0.000
     In    29      Py                   0.241     0.241    -0.000
     In    29      Pz                   0.241     0.241    -0.000
     In    29      S                   -0.264    -0.264    -0.000
     In    30      Dzz                  1.000     1.000     0.000
     In    30      Dzy                  0.998     0.998     0.000
     In    30      Dzx                  0.998     0.998    -0.000
     In    30      Dxx-yy               1.000     1.000     0.000
     In    30      Dxy                  0.998     0.998    -0.000
     In    30      S                    0.712     0.712    -0.000
     In    30      Px                   0.241     0.241    -0.000
     In    30      Py                   0.241     0.241    -0.000
     In    30      Pz                   0.244     0.244    -0.000
     In    30      S                   -0.264    -0.264    -0.000
     In    31      Dzz                  1.000     1.000     0.000
     In    31      Dzy                  0.998     0.998     0.000
     In    31      Dzx                  0.998     0.998    -0.000
     In    31      Dxx-yy               1.000     1.000     0.000
     In    31      Dxy                  0.998     0.998     0.000
     In    31      S                    0.723     0.723     0.000
     In    31      Px                   0.240     0.240    -0.000
     In    31      Py                   0.240     0.240    -0.000
     In    31      Pz                   0.240     0.240    -0.000
     In    31      S                   -0.271    -0.271     0.000
     In    32      Dzz                  1.000     1.000     0.000
     In    32      Dzy                  0.998     0.998     0.000
     In    32      Dzx                  0.998     0.998    -0.000
     In    32      Dxx-yy               1.000     1.000    -0.000
     In    32      Dxy                  0.998     0.998    -0.000
     In    32      S                    0.712     0.712    -0.000
     In    32      Px                   0.241     0.241    -0.000
     In    32      Py                   0.244     0.244     0.000
     In    32      Pz                   0.241     0.241    -0.000
     In    32      S                   -0.264    -0.264    -0.000
     In    33      Dzz                  0.997     0.997    -0.000
     In    33      Dzy                  0.999     0.999     0.000
     In    33      Dzx                  0.999     0.999     0.000
     In    33      Dxx-yy               0.997     0.997    -0.000
     In    33      Dxy                  0.999     0.999     0.000
     In    33      S                    0.747     0.747     0.000
     In    33      Px                   0.242     0.242     0.000
     In    33      Py                   0.242     0.242     0.000
     In    33      Pz                   0.242     0.242     0.000
     In    33      S                   -0.048    -0.048    -0.000
  ---------------------------------------------------------------
                           Total:     294.500   294.500    -0.000
  ---------------------------------------------------------------

     Atomic Populations (Mulliken)
     -----------------------------
Species          Ion Spin      s       p       d       f      Total   Charge(e)   Spin(hbar/2)
==============================================================================================
  P               1   up:     0.871   1.951   0.000   0.000   2.822    -0.644       -0.000
                  1   dn:     0.871   1.951   0.000   0.000   2.822
  P               2   up:     0.885   1.930   0.000   0.000   2.815    -0.630       -0.000
                  2   dn:     0.885   1.930   0.000   0.000   2.815
  P               3   up:     0.871   1.951   0.000   0.000   2.822    -0.644       -0.000
                  3   dn:     0.871   1.951   0.000   0.000   2.822
  P               4   up:     0.867   1.969   0.000   0.000   2.837    -0.673       -0.000
                  4   dn:     0.867   1.969   0.000   0.000   2.837
  P               5   up:     0.885   1.930   0.000   0.000   2.815    -0.630       -0.000
                  5   dn:     0.885   1.930   0.000   0.000   2.815
  P               6   up:     0.868   1.968   0.000   0.000   2.836    -0.672       -0.000
                  6   dn:     0.868   1.968   0.000   0.000   2.836
  P               7   up:     0.867   1.968   0.000   0.000   2.835    -0.671       -0.000
                  7   dn:     0.867   1.968   0.000   0.000   2.835
  P               8   up:     0.869   1.966   0.000   0.000   2.836    -0.671        0.000
                  8   dn:     0.869   1.966   0.000   0.000   2.836
  P               9   up:     0.867   1.968   0.000   0.000   2.835    -0.671       -0.000
                  9   dn:     0.867   1.968   0.000   0.000   2.835
  P              10   up:     0.868   1.968   0.000   0.000   2.836    -0.672       -0.000
                 10   dn:     0.868   1.968   0.000   0.000   2.836
  P              11   up:     0.885   1.930   0.000   0.000   2.815    -0.630       -0.000
                 11   dn:     0.885   1.930   0.000   0.000   2.815
  P              12   up:     0.869   1.966   0.000   0.000   2.836    -0.671       -0.000
                 12   dn:     0.869   1.966   0.000   0.000   2.836
  P              13   up:     0.868   1.968   0.000   0.000   2.836    -0.672       -0.000
                 13   dn:     0.868   1.968   0.000   0.000   2.836
  P              14   up:     0.866   1.971   0.000   0.000   2.837    -0.674       -0.000
                 14   dn:     0.866   1.971   0.000   0.000   2.837
  P              15   up:     0.868   1.968   0.000   0.000   2.836    -0.672       -0.000
                 15   dn:     0.868   1.968   0.000   0.000   2.836
  P              16   up:     0.871   1.965   0.000   0.000   2.836    -0.671       -0.000
                 16   dn:     0.871   1.965   0.000   0.000   2.836
  P              17   up:     0.867   1.968   0.000   0.000   2.835    -0.671       -0.000
                 17   dn:     0.867   1.968   0.000   0.000   2.835
  P              18   up:     0.871   1.951   0.000   0.000   2.822    -0.644       -0.000
                 18   dn:     0.871   1.951   0.000   0.000   2.822
  P              19   up:     0.867   1.968   0.000   0.000   2.835    -0.671       -0.000
                 19   dn:     0.867   1.968   0.000   0.000   2.835
  P              20   up:     0.871   1.962   0.000   0.000   2.833    -0.666       -0.000
                 20   dn:     0.871   1.962   0.000   0.000   2.833
  P              21   up:     0.868   1.968   0.000   0.000   2.836    -0.672       -0.000
                 21   dn:     0.868   1.968   0.000   0.000   2.836
  P              22   up:     0.867   1.968   0.000   0.000   2.835    -0.671       -0.000
                 22   dn:     0.867   1.968   0.000   0.000   2.835
  P              23   up:     0.868   1.969   0.000   0.000   2.836    -0.673        0.000
                 23   dn:     0.868   1.969   0.000   0.000   2.836
  P              24   up:     0.867   1.969   0.000   0.000   2.837    -0.673        0.000
                 24   dn:     0.867   1.969   0.000   0.000   2.837
  P              25   up:     0.868   1.969   0.000   0.000   2.836    -0.673        0.000
                 25   dn:     0.868   1.969   0.000   0.000   2.836
  P              26   up:     0.867   1.968   0.000   0.000   2.835    -0.671       -0.000
                 26   dn:     0.867   1.968   0.000   0.000   2.835
  P              27   up:     0.868   1.968   0.000   0.000   2.836    -0.672       -0.000
                 27   dn:     0.868   1.968   0.000   0.000   2.836
  P              28   up:     0.867   1.969   0.000   0.000   2.837    -0.673       -0.000
                 28   dn:     0.867   1.969   0.000   0.000   2.837
  P              29   up:     0.866   1.971   0.000   0.000   2.837    -0.674       -0.000
                 29   dn:     0.866   1.971   0.000   0.000   2.837
  P              30   up:     0.868   1.969   0.000   0.000   2.836    -0.673        0.000
                 30   dn:     0.868   1.969   0.000   0.000   2.836
  P              31   up:     0.866   1.971   0.000   0.000   2.837    -0.674       -0.000
                 31   dn:     0.866   1.971   0.000   0.000   2.837
  P              32   up:     0.869   1.966   0.000   0.000   2.836    -0.671       -0.000
                 32   dn:     0.869   1.966   0.000   0.000   2.836
  In              1   up:     0.481   0.714   4.994   0.000   6.189     0.621        0.000
                  1   dn:     0.481   0.714   4.994   0.000   6.189
  In              2   up:     0.481   0.714   4.994   0.000   6.189     0.622        0.000
                  2   dn:     0.481   0.714   4.994   0.000   6.189
  In              3   up:     0.429   0.732   4.995   0.000   6.155     0.689        0.000
                  3   dn:     0.429   0.732   4.995   0.000   6.155
  In              4   up:     0.481   0.714   4.994   0.000   6.189     0.621        0.000
                  4   dn:     0.481   0.714   4.994   0.000   6.189
  In              5   up:     0.447   0.724   4.994   0.000   6.166     0.669       -0.000
                  5   dn:     0.447   0.724   4.994   0.000   6.166
  In              6   up:     0.446   0.726   4.995   0.000   6.167     0.665        0.000
                  6   dn:     0.446   0.726   4.995   0.000   6.167
  In              7   up:     0.446   0.730   4.994   0.000   6.171     0.658       -0.000
                  7   dn:     0.446   0.731   4.994   0.000   6.171
  In              8   up:     0.447   0.724   4.994   0.000   6.166     0.669        0.000
                  8   dn:     0.447   0.724   4.994   0.000   6.166
  In              9   up:     0.447   0.724   4.994   0.000   6.166     0.669       -0.000
                  9   dn:     0.447   0.724   4.994   0.000   6.166
  In             10   up:     0.447   0.724   4.994   0.000   6.166     0.669       -0.000
                 10   dn:     0.447   0.724   4.994   0.000   6.166
  In             11   up:     0.446   0.730   4.994   0.000   6.171     0.658       -0.000
                 11   dn:     0.446   0.731   4.994   0.000   6.171
  In             12   up:     0.446   0.726   4.995   0.000   6.167     0.665        0.000
                 12   dn:     0.446   0.726   4.995   0.000   6.167
  In             13   up:     0.447   0.728   4.994   0.000   6.169     0.661        0.000
                 13   dn:     0.447   0.728   4.994   0.000   6.169
  In             14   up:     0.454   0.726   4.994   0.000   6.174     0.652       -0.000
                 14   dn:     0.454   0.726   4.994   0.000   6.174
  In             15   up:     0.444   0.723   4.994   0.000   6.161     0.678        0.000
                 15   dn:     0.444   0.723   4.994   0.000   6.161
  In             16   up:     0.454   0.726   4.994   0.000   6.174     0.652        0.000
                 16   dn:     0.454   0.726   4.994   0.000   6.174
  In             17   up:     0.446   0.726   4.995   0.000   6.167     0.665       -0.000
                 17   dn:     0.446   0.726   4.995   0.000   6.167
  In             18   up:     0.447   0.724   4.994   0.000   6.166     0.669       -0.000
                 18   dn:     0.447   0.724   4.994   0.000   6.166
  In             19   up:     0.446   0.730   4.994   0.000   6.171     0.658       -0.000
                 19   dn:     0.446   0.731   4.994   0.000   6.171
  In             20   up:     0.447   0.724   4.994   0.000   6.166     0.669        0.000
                 20   dn:     0.447   0.724   4.994   0.000   6.166
  In             21   up:     0.454   0.726   4.994   0.000   6.174     0.652        0.000
                 21   dn:     0.454   0.726   4.994   0.000   6.174
  In             22   up:     0.454   0.726   4.994   0.000   6.174     0.652       -0.000
                 22   dn:     0.454   0.726   4.994   0.000   6.174
  In             23   up:     0.444   0.723   4.994   0.000   6.161     0.678        0.000
                 23   dn:     0.444   0.723   4.994   0.000   6.161
  In             24   up:     0.447   0.728   4.994   0.000   6.169     0.661       -0.000
                 24   dn:     0.447   0.728   4.994   0.000   6.169
  In             25   up:     0.454   0.726   4.994   0.000   6.174     0.652       -0.000
                 25   dn:     0.454   0.726   4.994   0.000   6.174
  In             26   up:     0.447   0.728   4.994   0.000   6.169     0.661       -0.000
                 26   dn:     0.447   0.728   4.994   0.000   6.169
  In             27   up:     0.444   0.723   4.994   0.000   6.161     0.678        0.000
                 27   dn:     0.444   0.723   4.994   0.000   6.161
  In             28   up:     0.454   0.726   4.994   0.000   6.174     0.652       -0.000
                 28   dn:     0.454   0.726   4.994   0.000   6.174
  In             29   up:     0.447   0.726   4.994   0.000   6.168     0.664       -0.000
                 29   dn:     0.447   0.726   4.994   0.000   6.168
  In             30   up:     0.447   0.726   4.994   0.000   6.168     0.664       -0.000
                 30   dn:     0.447   0.726   4.994   0.000   6.168
  In             31   up:     0.452   0.720   4.995   0.000   6.167     0.667        0.000
                 31   dn:     0.452   0.720   4.995   0.000   6.167
  In             32   up:     0.447   0.726   4.994   0.000   6.168     0.664       -0.000
                 32   dn:     0.447   0.726   4.994   0.000   6.168
  In             33   up:     0.699   0.727   4.991   0.000   6.417     0.166        0.000
                 33   dn:     0.699   0.727   4.991   0.000   6.417
==============================================================================================

                 Bond                   Population        Spin       Length (A)
================================================================================
              P 32 -- In 1                   0.82         0.00          2.46201
              P 12 -- In 2                   0.82         0.00          2.46201
              P 8  -- In 4                   0.82        -0.00          2.46201
              P 31 -- In 21                  0.67        -0.00          2.52385
              P 14 -- In 16                  0.67        -0.00          2.52385
              P 14 -- In 14                  0.67        -0.00          2.52385
              P 31 -- In 22                  0.67         0.00          2.52385
              P 29 -- In 25                  0.67        -0.00          2.52385
              P 29 -- In 28                  0.67         0.00          2.52385
              P 5  -- In 7                   0.57        -0.00          2.53318
              P 2  -- In 19                  0.57        -0.00          2.53318
              P 11 -- In 11                  0.57         0.00          2.53318
              P 9  -- In 11                  0.62         0.00          2.53941
              P 7  -- In 7                   0.62         0.00          2.53941
              P 17 -- In 19                  0.62         0.00          2.53941
              P 26 -- In 11                  0.62         0.00          2.53941
              P 19 -- In 19                  0.62         0.00          2.53941
              P 22 -- In 7                   0.62         0.00          2.53941
              P 4  -- In 19                  0.64         0.00          2.53960
              P 24 -- In 7                   0.64         0.00          2.53960
              P 28 -- In 11                  0.64        -0.00          2.53960
              P 19 -- In 25                  0.66         0.00          2.54198
              P 7  -- In 14                  0.66         0.00          2.54198
              P 26 -- In 28                  0.66        -0.00          2.54198
              P 17 -- In 21                  0.66        -0.00          2.54198
              P 22 -- In 22                  0.66        -0.00          2.54198
              P 9  -- In 16                  0.66        -0.00          2.54198
              P 27 -- In 28                  0.65        -0.00          2.54219
              P 21 -- In 22                  0.65        -0.00          2.54219
              P 10 -- In 25                  0.65        -0.00          2.54219
              P 6  -- In 21                  0.65        -0.00          2.54219
              P 13 -- In 14                  0.65        -0.00          2.54219
              P 15 -- In 16                  0.65        -0.00          2.54219
              P 25 -- In 27                  0.67         0.00          2.54311
              P 23 -- In 23                  0.67        -0.00          2.54311
              P 30 -- In 15                  0.67        -0.00          2.54311
              P 22 -- In 5                   0.67        -0.00          2.54349
              P 26 -- In 9                   0.67        -0.00          2.54349
              P 17 -- In 18                  0.67        -0.00          2.54349
              P 9  -- In 10                  0.67        -0.00          2.54349
              P 19 -- In 20                  0.67        -0.00          2.54349
              P 7  -- In 8                   0.67        -0.00          2.54349
              P 7  -- In 13                  0.64         0.00          2.54389
              P 9  -- In 13                  0.64        -0.00          2.54389
              P 19 -- In 26                  0.64         0.00          2.54389
              P 22 -- In 24                  0.64         0.00          2.54389
              P 17 -- In 24                  0.64        -0.00          2.54389
              P 26 -- In 26                  0.64        -0.00          2.54389
              P 18 -- In 18                  0.65         0.00          2.54473
              P 18 -- In 20                  0.65         0.00          2.54473
              P 3  -- In 9                   0.65         0.00          2.54473
              P 1  -- In 5                   0.65        -0.00          2.54473
              P 3  -- In 10                  0.65         0.00          2.54473
              P 1  -- In 8                   0.65         0.00          2.54473
              P 13 -- In 15                  0.66         0.00          2.54602
              P 15 -- In 15                  0.66         0.00          2.54602
              P 21 -- In 23                  0.66         0.00          2.54602
              P 27 -- In 27                  0.66        -0.00          2.54602
              P 10 -- In 27                  0.66         0.00          2.54602
              P 6  -- In 23                  0.66         0.00          2.54602
              P 20 -- In 26                  0.68         0.00          2.54643
              P 20 -- In 13                  0.68         0.00          2.54643
              P 20 -- In 24                  0.68        -0.00          2.54643
              P 4  -- In 29                  0.66        -0.00          2.54778
              P 24 -- In 30                  0.66         0.00          2.54778
              P 28 -- In 32                  0.66         0.00          2.54778
              P 5  -- In 6                   0.64         0.00          2.54799
              P 2  -- In 17                  0.64        -0.00          2.54799
              P 11 -- In 12                  0.64        -0.00          2.54799
              P 10 -- In 10                  0.65        -0.00          2.54816
              P 6  -- In 8                   0.65        -0.00          2.54816
              P 15 -- In 5                   0.65        -0.00          2.54816
              P 13 -- In 9                   0.65        -0.00          2.54816
              P 27 -- In 18                  0.65         0.00          2.54816
              P 21 -- In 20                  0.65        -0.00          2.54816
              P 8  -- In 25                  0.60        -0.00          2.54883
              P 12 -- In 21                  0.60         0.00          2.54883
              P 32 -- In 28                  0.60        -0.00          2.54883
              P 32 -- In 22                  0.60         0.00          2.54883
              P 12 -- In 16                  0.60        -0.00          2.54883
              P 8  -- In 14                  0.60         0.00          2.54883
              P 30 -- In 30                  0.66         0.00          2.54893
              P 25 -- In 32                  0.66        -0.00          2.54893
              P 30 -- In 32                  0.66         0.00          2.54893
              P 25 -- In 29                  0.66         0.00          2.54893
              P 23 -- In 30                  0.66         0.00          2.54893
              P 23 -- In 29                  0.66         0.00          2.54893
              P 18 -- In 1                   0.65         0.00          2.54896
              P 1  -- In 2                   0.65         0.00          2.54896
              P 3  -- In 4                   0.65        -0.00          2.54896
              P 8  -- In 23                  0.65        -0.00          2.54961
              P 12 -- In 27                  0.65        -0.00          2.54961
              P 32 -- In 15                  0.65        -0.00          2.54961
              P 14 -- In 29                  0.67        -0.00          2.55053
              P 29 -- In 30                  0.67        -0.00          2.55053
              P 31 -- In 32                  0.67        -0.00          2.55054
              P 29 -- In 31                  0.63         0.00          2.55054
              P 31 -- In 31                  0.63        -0.00          2.55054
              P 14 -- In 31                  0.63         0.00          2.55054
              P 28 -- In 18                  0.65         0.00          2.55283
              P 4  -- In 10                  0.65         0.00          2.55283
              P 28 -- In 5                   0.65        -0.00          2.55283
              P 24 -- In 9                   0.65        -0.00          2.55283
              P 4  -- In 8                   0.65        -0.00          2.55283
              P 24 -- In 20                  0.65        -0.00          2.55283
              P 23 -- In 24                  0.66        -0.00          2.55283
              P 25 -- In 26                  0.66        -0.00          2.55283
              P 30 -- In 13                  0.66        -0.00          2.55283
              P 6  -- In 6                   0.63        -0.00          2.55339
              P 21 -- In 17                  0.63        -0.00          2.55339
              P 13 -- In 12                  0.63        -0.00          2.55339
              P 10 -- In 12                  0.64        -0.00          2.55339
              P 15 -- In 6                   0.63        -0.00          2.55339
              P 27 -- In 17                  0.63        -0.00          2.55339
              P 1  -- In 3                   0.65         0.00          2.56785
              P 3  -- In 3                   0.65        -0.00          2.56785
              P 18 -- In 3                   0.65         0.00          2.56785
              P 16 -- In 17                  0.64        -0.00          2.56980
              P 16 -- In 12                  0.64         0.00          2.56980
              P 16 -- In 6                   0.64         0.00          2.56981
              P 16 -- In 31                  0.63         0.00          2.57304
              P 20 -- In 3                   0.56        -0.00          2.60819
              P 11 -- In 33                  0.31         0.00          2.64641
              P 2  -- In 33                  0.31         0.00          2.64641
              P 5  -- In 33                  0.31         0.00          2.64641
             In 2  -- In 33                 -0.52         0.00          2.78144
             In 4  -- In 33                 -0.52         0.00          2.78144
             In 1  -- In 33                 -0.52         0.00          2.78144
              P 11 -- In 2                   0.30         0.00          2.81589
              P 2  -- In 4                   0.30         0.00          2.81589
              P 2  -- In 2                   0.30         0.00          2.81589
              P 5  -- In 4                   0.30         0.00          2.81589
              P 11 -- In 1                   0.30        -0.00          2.81589
              P 5  -- In 1                   0.30        -0.00          2.81589
================================================================================

 Hirshfeld supercell size:           2           2           2
Standard grid dimensions: 240 240 240
Fine grid dimensions:     240 240 240


     Hirshfeld Analysis
     ------------------
Species   Ion     Hirshfeld Charge (e)  Spin (hbar/2)
===================================================
  P        1                -0.23       -0.00
  P        2                -0.24       -0.00
  P        3                -0.23       -0.00
  P        4                -0.24        0.00
  P        5                -0.24       -0.00
  P        6                -0.24        0.00
  P        7                -0.24        0.00
  P        8                -0.23       -0.00
  P        9                -0.24        0.00
  P       10                -0.24        0.00
  P       11                -0.24       -0.00
  P       12                -0.23       -0.00
  P       13                -0.24        0.00
  P       14                -0.24       -0.00
  P       15                -0.24        0.00
  P       16                -0.24       -0.00
  P       17                -0.24        0.00
  P       18                -0.23       -0.00
  P       19                -0.24        0.00
  P       20                -0.24       -0.00
  P       21                -0.24        0.00
  P       22                -0.24        0.00
  P       23                -0.24       -0.00
  P       24                -0.24        0.00
  P       25                -0.24       -0.00
  P       26                -0.24        0.00
  P       27                -0.24        0.00
  P       28                -0.24        0.00
  P       29                -0.24       -0.00
  P       30                -0.24       -0.00
  P       31                -0.24       -0.00
  P       32                -0.23       -0.00
  In       1                 0.24       -0.00
  In       2                 0.24       -0.00
  In       3                 0.23       -0.00
  In       4                 0.24       -0.00
  In       5                 0.24        0.00
  In       6                 0.23        0.00
  In       7                 0.23        0.00
  In       8                 0.24        0.00
  In       9                 0.24        0.00
  In      10                 0.24        0.00
  In      11                 0.23        0.00
  In      12                 0.23        0.00
  In      13                 0.23       -0.00
  In      14                 0.23        0.00
  In      15                 0.24       -0.00
  In      16                 0.23        0.00
  In      17                 0.23        0.00
  In      18                 0.24        0.00
  In      19                 0.23        0.00
  In      20                 0.24        0.00
  In      21                 0.23        0.00
  In      22                 0.23        0.00
  In      23                 0.24       -0.00
  In      24                 0.23       -0.00
  In      25                 0.23        0.00
  In      26                 0.23       -0.00
  In      27                 0.24       -0.00
  In      28                 0.23        0.00
  In      29                 0.24       -0.00
  In      30                 0.24       -0.00
  In      31                 0.24       -0.00
  In      32                 0.24       -0.00
  In      33                 0.07       -0.00
===================================================

 
 A BibTeX formatted list of references used in this run has been written to 
 In_Interstitial_Migration_Tetra_Octa_Singlepoints_3.bib
 
Initialisation time =     30.56 s
Calculation time    =   8532.19 s
Finalisation time   =    165.73 s
Total time          =   8728.48 s
Peak Memory Use     = 9738012 kB
 
Overall parallel efficiency rating: Terrible (34%)
 
Data was distributed by:-
G-vector (3-way); efficiency rating: Poor (37%)
k-point (36-way); efficiency rating: Very good (81%)
