 +-------------------------------------------------+
 |                                                 |
 |      CCC   AA    SSS  TTTTT  EEEEE  PPPP        |
 |     C     A  A  S       T    E      P   P       |
 |     C     AAAA   SS     T    EEE    PPPP        |
 |     C     A  A     S    T    E      P           |
 |      CCC  A  A  SSS     T    EEEEE  P           |
 |                                                 |
 +-------------------------------------------------+
 |                                                 |
 | Welcome to Academic Release CASTEP version 24.1 |
 | Ab Initio Total Energy Program                  |
 |                                                 |
 | Authors:                                        |
 | M. Segall, M. Probert, C. Pickard, P. Hasnip,   |
 | S. Clark, K. Refson, J. R. Yates,               |
 | A. Bartok-Partay, M. Payne                      |
 |                                                 |
 | Contributors:                                   |
 | P. Lindan, P. Haynes, J. White, V. Milman,      |
 | N. Govind, M. Gibson, P. Tulip, V. Cocula,      |
 | B. Montanari, D. Quigley, M. Glover,            |
 | L. Bernasconi, A. Perlov, M. Plummer,           |
 | E. McNellis, J. Meyer, J. Gale, D. Jochym       |
 | J. Aarons, B. Walker, R. Gillen, D. Jones       |
 | T. Green, I. J. Bush, C. J. Armstrong,          |
 | E. J. Higgins, E. L. Brown, M. S. McFly,        |
 | J. Wilkins, B-C. Shih, P. J. P. Byrne,          |
 | R. J. Maurer, J. C. Womack, J. Dziedzic,        |
 | L. LeBlanc, T. K. Stenczel, J. Kermode,         |
 | S. Sturniolo, B. Shi, B. Durham, M. Evans,      |
 | M. J. Smith, A. Tamerus, Z. Hawkhead,           |
 | V. Ravindran, T. Hollins, S. A. Joyce,          |
 | R. T. Strong, A. M. Reilly, S. J. Donaldson     |
 |                                                 |
 | Copyright (c) 2000 - 2023                       |
 |                                                 |
 |     Distributed under license from Cambridge    |
 |     Enterprise for academic use only.           |
 |                                                 |
 | Please cite                                     |
 |                                                 |
 |     "First principles methods using CASTEP"     |
 |                                                 |
 |         Zeitschrift fuer Kristallographie       |
 |           220(5-6) pp. 567-570 (2005)           |
 |                                                 |
 | S. J. Clark, M. D. Segall, C. J. Pickard,       |
 | P. J. Hasnip, M. J. Probert, K. Refson,         |
 | M. C. Payne                                     |
 |                                                 |
 |       in all publications arising from          |
 |              your use of CASTEP                 |
 |                                                 |
 +-------------------------------------------------+
 |                                                 |
 |              http://www.castep.org              |
 |                                                 |
 +-------------------------------------------------+



 Compiled for  GNU 11.2.0 on 04-04-2024 18:39:17
 from code version 6355fd106 Castep241_branch Thu Mar 7 17:56:19 2024 +0000
 Compiler: GNU Fortran 11.2.0; Optimisation: FAST
 Comms   : MPI VERSION : CRAY MPICH version 8.1.23.14 (ANL base 3.4a2)
 MATHLIBS: default (LAPACK version 3.10.1)
 FFT Lib : fftw3 version commercial-fftw-3.3.10-sse2-avx-avx2-avx2_128
 Fundamental constants values: CODATA 2018

 Run started: Sun, 27 Apr 2025 05:24:53 +0100

 Atomic calculation performed for P: 1s2 2s2 2p6 3s2 3p3

 Converged in 47 iterations to an ae energy of -9309.074 eV

   ============================================================                
   | Pseudopotential Report - Date of generation 27-04-2025   |                
   ------------------------------------------------------------                
   | Element: P Ionic charge:  5.00 Level of theory: RSCAN    |                
   | Atomic Solver: Koelling-Harmon                           |                
   |                                                          |                
   |               Reference Electronic Structure             |                
   |         Orbital         Occupation         Energy        |                
   |            3s              2.000           -0.535        |                
   |            3p              3.000           -0.209        |                
   |                                                          |                
   |                 Pseudopotential Definition               |                
   |        Beta     l      e      Rc     scheme   norm       |                
   |          1      0   -0.535   1.807     qc      0         |                
   |          2      0    0.250   1.807     qc      0         |                
   |          3      1   -0.209   1.807     qc      0         |                
   |          4      1    0.250   1.807     qc      0         |                
   |          5      2    0.000   1.807     qc      0         |                
   |          6      2    0.250   1.807     qc      0         |                
   |         loc     3    0.000   1.807     pn      0         |                
   |                                                          |                
   | Augmentation charge Rinner = 1.263                       |                
   | Partial core correction Rc = 1.263                       |                
   ------------------------------------------------------------                
   | "3|1.8|4|4|5|30:31:32"                                   |                
   ------------------------------------------------------------                
   |      Author: Chris J. Pickard, Cambridge University      |                
   ============================================================                
 Warning: otfg_output_psp cannot write out meta-GGA pseudopotentials presently.

 Atomic calculation performed for In:
 1s2 2s2 2p6 3s2 3p6 3d10 4s2 4p6 4d10 5s2 5p1

 Converged in 84 iterations to an ae energy of -160093.328 eV

   ============================================================                
   | Pseudopotential Report - Date of generation 27-04-2025   |                
   ------------------------------------------------------------                
   | Element: In Ionic charge: 13.00 Level of theory: RSCAN   |                
   | Atomic Solver: Koelling-Harmon                           |                
   |                                                          |                
   |               Reference Electronic Structure             |                
   |         Orbital         Occupation         Energy        |                
   |            4d             10.000           -0.711        |                
   |            5s              2.000           -0.313        |                
   |            5p              1.000           -0.095        |                
   |                                                          |                
   |                 Pseudopotential Definition               |                
   |        Beta     l      e      Rc     scheme   norm       |                
   |          1      0   -0.313   2.501     qc      0         |                
   |          2      0    0.250   2.501     qc      0         |                
   |          3      1   -0.095   2.501     qc      0         |                
   |          4      1    0.250   2.501     qc      0         |                
   |          5      2   -0.711   2.207     qc      0         |                
   |          6      2    0.250   2.207     qc      0         |                
   |         loc     3    0.000   2.501     pn      0         |                
   |                                                          |                
   | Augmentation charge Rinner = 1.504                       |                
   | Partial core correction Rc = 1.504                       |                
   ------------------------------------------------------------                
   | "3|2.5|2.5|1.5|7|8|9|50:51:42U2.2U2.2"                   |                
   ------------------------------------------------------------                
   |      Author: Chris J. Pickard, Cambridge University      |                
   ============================================================                
 Warning: otfg_output_psp cannot write out meta-GGA pseudopotentials presently.

 Pseudo atomic calculation performed for P 3s2 3p3

 Converged in 23 iterations to a total energy of -208.0292 eV

 Pseudo atomic calculation performed for In 4d10 5s2 5p1

 Converged in 42 iterations to a total energy of -1747.4501 eV
 Calculation parallelised over 108 processes.
 Data is distributed by G-vector(3-way) and k-point(36-way)
 Each process may use up to 16 threads.

 ************************************ Title ************************************
 

 ***************************** General Parameters ******************************
  
 output verbosity                               : normal  (1)
 write checkpoint data to                       : In_Interstitial_Migration_Tetra_Octa_Singlepoints_3.check
 type of calculation                            : single point energy
 stress calculation                             : off
 density difference calculation                 : off
 electron localisation func (ELF) calculation   : off
 Hirshfeld analysis                             : on
 polarisation (Berry phase) analysis            : off
 molecular orbital projected DOS                : off
 deltaSCF calculation                           : off
 unlimited duration calculation
 timing information                             : on
 memory usage estimate                          : on
 write extra output files                       : on
 write final potential to formatted file        : off
 write final density to formatted file          : off
 write BibTeX reference list                    : on
 write OTFG pseudopotential files               : on
 write electrostatic potential file             : on
 write bands file                               : on
 checkpoint writing                             : off
  
 output         length unit                     : A
 output           mass unit                     : amu
 output           time unit                     : ps
 output         charge unit                     : e
 output           spin unit                     : hbar/2
 output         energy unit                     : eV
 output          force unit                     : eV/A
 output       velocity unit                     : A/ps
 output       pressure unit                     : GPa
 output     inv_length unit                     : 1/A
 output      frequency unit                     : cm-1
 output force constant unit                     : eV/A**2
 output         volume unit                     : A**3
 output   IR intensity unit                     : (D/A)**2/amu
 output         dipole unit                     : D
 output         efield unit                     : eV/A/e
 output        entropy unit                     : J/mol/K
 output    efield chi2 unit                     : pm/V
  
 wavefunctions paging                           : none
 random number generator seed                   :   52453528
 data distribution                              : optimal for this architecture
 optimization strategy                          : balance speed and memory

 *********************** Exchange-Correlation Parameters ***********************
  
 using functional                               : RSCAN
 relativistic treatment                         : Koelling-Harmon
 DFT+D: Semi-empirical dispersion correction    : off

 ************************* Pseudopotential Parameters **************************
  
 pseudopotential representation                 : reciprocal space
 <beta|phi> representation                      : reciprocal space
 spin-orbit coupling                            : off

 **************************** Basis Set Parameters *****************************
  
 plane wave basis set cut-off                   :   900.0000   eV
 size of standard grid                          :     2.0000
 size of   fine   gmax                          :    30.7390   1/A
 finite basis set correction                    : none

 **************************** Electronic Parameters ****************************
  
 number of  electrons                           :  589.0    
 net charge of system                           :  0.000    
 net spin   of system                           :  1.000    
 number of  up  spins                           :  295.0    
 number of down spins                           :  294.0    
 treating system as spin-polarized
 number of bands                                :        354

 ********************* Electronic Minimization Parameters **********************
  
 Method: Treating system as metallic with density mixing treatment of electrons,
         and number of  SD  steps               :          1
         and number of  CG  steps               :          4
  
 total energy / atom convergence tol.           : 0.1000E-07   eV
 eigen-energy convergence tolerance             : 0.2203E-08   eV
 max force / atom convergence tol.              : ignored
 convergence tolerance window                   :          3   cycles
 max. number of SCF cycles                      :        100
 number of fixed-spin iterations                :         10
 smearing scheme                                : Gaussian
 smearing width                                 : 0.2000       eV
 Fermi energy convergence tolerance             : 0.2721E-13   eV
 periodic dipole correction                     : NONE

 ************************** Density Mixing Parameters **************************
  
 density-mixing scheme                          : Pulay
 max. length of mixing history                  :         20
 charge density mixing amplitude                : 0.5000    
   spin density mixing amplitude                :  2.000    
 cut-off energy for mixing                      :  900.0       eV

 *********************** Population Analysis Parameters ************************
  
 Population analysis with cutoff                :  3.000       A
 Population analysis output                     : summary and pdos components

 *******************************************************************************
  

                           -------------------------------
                                      Unit Cell
                           -------------------------------
        Real Lattice(A)                      Reciprocal Lattice(1/A)
    11.8025500     0.0000000     0.0000000        0.532358288   0.000000000   0.000000000
     0.0000000    11.8025500     0.0000000        0.000000000   0.532358288   0.000000000
     0.0000000     0.0000000    11.8025500        0.000000000   0.000000000   0.532358288

                       Lattice parameters(A)       Cell Angles
                    a =     11.802550          alpha =   90.000000
                    b =     11.802550          beta  =   90.000000
                    c =     11.802550          gamma =   90.000000

                       Current cell volume =          1644.097416       A**3
                                   density =             2.907464   AMU/A**3
                                           =             4.827958     g/cm^3

                           -------------------------------
                                     Cell Contents
                           -------------------------------
                         Total number of ions in cell =   65
                      Total number of species in cell =    2
                        Max number of any one species =   33

            xxxxxxxxxxxxxxxxxxxxxxxxxxxxxxxxxxxxxxxxxxxxxxxxxxxxxxxxxxxx
            x  Element    Atom        Fractional coordinates of atoms  x
            x            Number           u          v          w      x
            x----------------------------------------------------------x
            x  P            1         0.128799   0.121201   0.379631   x 
            x  P            2         0.387170   0.130365   0.131235   x 
            x  P            3         0.128799   0.378761   0.122071   x 
            x  P            4         0.375395   0.377890   0.378760   x 
            x  P            5         0.119636   0.130365   0.863700   x 
            x  P            6         0.377119   0.123453   0.623176   x 
            x  P            7         0.125748   0.375460   0.623809   x 
            x  P            8         0.388328   0.383563   0.862542   x 
            x  P            9         0.125748   0.622939   0.376330   x 
            x  P           10         0.377119   0.622306   0.124324   x 
            x  P           11         0.119636   0.862830   0.131235   x 
            x  P           12         0.388328   0.861672   0.384434   x 
            x  P           13         0.126546   0.622306   0.873752   x 
            x  P           14         0.378038   0.626138   0.627008   x 
            x  P           15         0.126546   0.872881   0.623176   x 
            x  P           16         0.369953   0.880047   0.880917   x 
            x  P           17         0.627061   0.124252   0.376330   x 
            x  P           18         0.871239   0.121201   0.122071   x 
            x  P           19         0.627061   0.375460   0.125122   x 
            x  P           20         0.883161   0.366839   0.367709   x 
            x  P           21         0.627694   0.123453   0.873752   x 
            x  P           22         0.874540   0.124252   0.623809   x 
            x  P           23         0.629374   0.373625   0.621496   x 
            x  P           24         0.872110   0.377890   0.875475   x 
            x  P           25         0.629374   0.620626   0.374495   x 
            x  P           26         0.874540   0.622939   0.125122   x 
            x  P           27         0.627694   0.872881   0.124324   x 
            x  P           28         0.872110   0.874605   0.378760   x 
            x  P           29         0.623862   0.626138   0.872833   x 
            x  P           30         0.876375   0.620626   0.621496   x 
            x  P           31         0.623862   0.871962   0.627008   x 
            x  P           32         0.866437   0.861672   0.862542   x 
            x  In           1        -0.024821  -0.012611  -0.011741   x 
            x  In           2         0.262611  -0.012611   0.275691   x 
            x  In           3         0.010812   0.239188   0.240058   x 
            x  In           4         0.262611   0.274821  -0.011741   x 
            x  In           5        -0.000109  -0.001412   0.501631   x 
            x  In           6         0.248287   0.001713   0.747354   x 
            x  In           7        -0.006922   0.256922   0.744850   x 
            x  In           8         0.251412   0.250109   0.501631   x 
            x  In           9        -0.000109   0.500761  -0.000542   x 
            x  In          10         0.251412   0.500761   0.250979   x 
            x  In          11        -0.006922   0.743980   0.257793   x 
            x  In          12         0.248287   0.746484   0.002583   x 
            x  In          13        -0.000034   0.495141   0.496011   x 
            x  In          14         0.250721   0.501812   0.745472   x 
            x  In          15         0.003578   0.743639   0.744510   x 
            x  In          16         0.250721   0.744601   0.502682   x 
            x  In          17         0.503516   0.001713   0.002583   x 
            x  In          18         0.749239  -0.001412   0.250979   x 
            x  In          19         0.506020   0.256922   0.257793   x 
            x  In          20         0.749239   0.250109  -0.000542   x 
            x  In          21         0.505399  -0.000721   0.502682   x 
            x  In          22         0.748188  -0.000721   0.745472   x 
            x  In          23         0.506361   0.246422   0.744510   x 
            x  In          24         0.754859   0.250034   0.496011   x 
            x  In          25         0.505399   0.501812   0.000149   x 
            x  In          26         0.754859   0.495141   0.250904   x 
            x  In          27         0.506361   0.743639   0.247293   x 
            x  In          28         0.748188   0.744601   0.000149   x 
            x  In          29         0.502494   0.501224   0.502094   x 
            x  In          30         0.748776   0.501224   0.748376   x 
            x  In          31         0.495745   0.754255   0.755125   x 
            x  In          32         0.748776   0.747506   0.502094   x 
            x  In          33         0.181132   0.068868   0.069739   x 
            xxxxxxxxxxxxxxxxxxxxxxxxxxxxxxxxxxxxxxxxxxxxxxxxxxxxxxxxxxxx


                         No user defined ionic velocities

                           -------------------------------
                                   Details of Species
                           -------------------------------

                               Mass of species in AMU
                                    P   30.9737600
                                    In  114.8180000

                          Electric Quadrupole Moment (Barn)
                                    P    1.0000000 No Isotope Defined
                                    In    0.7700000 Isotope115

                          Files used for pseudopotentials:
                                    P 3|1.8|4|4|5|30:31:32
                                    In 3|2.5|2.5|1.5|7|8|9|50:51:42U2.2U2.2

                           -------------------------------
                              k-Points For BZ Sampling
                           -------------------------------
                       MP grid size for SCF calculation is  4  4  4
                            with an offset of   0.125  0.125  0.125
                       Number of kpoints used =            36

                           -------------------------------
                               Symmetry and Constraints
                           -------------------------------

                      Maximum deviation from symmetry =  0.00000         ANG

                      Number of symmetry operations   =           1
                      Number of ionic constraints     =           3
                      Point group of crystal =     1: C1, 1, 1
                      Space group of crystal =   160: R3m, R 3 -2"

             Set iprint > 1 for details on symmetry rotations/translations

                         Centre of mass is constrained
             Set iprint > 1 for details of linear ionic constraints

                         Number of cell constraints= 0
                         Cell constraints are:  1 2 3 4 5 6

                         External pressure/stress (GPa)
                          0.00000   0.00000   0.00000
                                    0.00000   0.00000
                                              0.00000
 
+---------------- MEMORY AND SCRATCH DISK ESTIMATES PER PROCESS --------------+
|                                                     Memory          Disk    |
| Baseline code, static data and system overhead      368.0 MB         0.0 MB |
| BLAS internal memory storage                          0.0 MB         0.0 MB |
| Model and support data                             4331.9 MB         0.0 MB |
| Electronic energy minimisation requirements        1349.7 MB         0.0 MB |
| Force calculation requirements                      127.4 MB         0.0 MB |
|                                               ----------------------------- |
| Approx. total storage required per process         6049.6 MB         0.0 MB |
|                                                                             |
| Requirements will fluctuate during execution and may exceed these estimates |
+-----------------------------------------------------------------------------+
Calculating approximate eigenstates for fixed initial Hamiltonian
Cut-off for approx. calculation is   89.988 eV
Improving approx. states at cut-off of  450.000 eV
Resetting cut-off to  900.000 eV
Calculating total energy with cut-off of  900.000 eV.
------------------------------------------------------------------------ <-- SCF
SCF loop      Energy           Fermi           Energy gain       Timer   <-- SCF
                               energy          per atom          (sec)   <-- SCF
------------------------------------------------------------------------ <-- SCF
Initial  -6.48029181E+004  0.00000000E+000                       437.32  <-- SCF
      1  -6.45469735E+004  3.85646633E+000  -3.93760899E+000     892.80  <-- SCF
      2  -6.45472873E+004  3.84810464E+000   4.82691271E-003    1210.02  <-- SCF
      3  -6.46170911E+004  4.02775924E+000   1.07390545E+000    1563.79  <-- SCF
      4  -6.46295080E+004  4.09298832E+000   1.91029142E-001    2068.63  <-- SCF
      5  -6.46367246E+004  4.23874492E+000   1.11023901E-001    2428.00  <-- SCF
      6  -6.46250547E+004  4.48816683E+000  -1.79537082E-001    2781.37  <-- SCF
      7  -6.46237694E+004  4.54137666E+000  -1.97730589E-002    3130.33  <-- SCF
      8  -6.46237775E+004  4.56674377E+000   1.24149204E-004    3507.85  <-- SCF
      9  -6.46245789E+004  4.58775193E+000   1.23288209E-002    3886.81  <-- SCF
     10  -6.46249797E+004  4.72825913E+000   6.16694218E-003    4250.61  <-- SCF
     11  -6.46250110E+004  4.72501901E+000   4.80876714E-004    4623.65  <-- SCF
     12  -6.46250206E+004  4.72186300E+000   1.48253004E-004    5003.23  <-- SCF
     13  -6.46250259E+004  4.71864221E+000   8.06572556E-005    5368.50  <-- SCF
     14  -6.46250274E+004  4.71662634E+000   2.33863298E-005    5735.91  <-- SCF
     15  -6.46250279E+004  4.71591187E+000   7.38084887E-006    6109.07  <-- SCF
     16  -6.46250282E+004  4.71487705E+000   4.76956328E-006    6476.34  <-- SCF
     17  -6.46250283E+004  4.71462293E+000   1.12211861E-006    6820.72  <-- SCF
     18  -6.46250283E+004  4.71468040E+000   5.32055551E-007    7153.46  <-- SCF
     19  -6.46250283E+004  4.71477939E+000   1.58311538E-007    7487.45  <-- SCF
     20  -6.46250283E+004  4.71479763E+000   1.79461701E-008    7754.68  <-- SCF
     21  -6.46250283E+004  4.71480025E+000   6.40627330E-009    8020.38  <-- SCF
     22  -6.46250283E+004  4.71480218E+000   3.50288041E-011    8278.79  <-- SCF
------------------------------------------------------------------------ <-- SCF
 
Integrated Spin Density     =   -0.102195E-03 hbar/2
Integrated |Spin Density|   =    0.678739E-03 hbar/2
 
Final energy, E             =  -64624.89684821     eV
Final free energy (E-TS)    =  -64625.02829647     eV
(energies not corrected for finite basis set)
 
NB est. 0K energy (E-0.5TS)      =  -64624.96257234     eV
 

 ************************** Forces **************************
 *                                                          *
 *               Cartesian components (eV/A)                *
 * -------------------------------------------------------- *
 *                         x            y            z      *
 *                                                          *
 * P               1     -0.01536      0.01537     -0.03654 *
 * P               2      0.18749     -0.07603     -0.07770 *
 * P               3     -0.01551     -0.03223      0.01186 *
 * P               4     -0.02914     -0.02812     -0.03102 *
 * P               5      0.07629     -0.07629     -0.19109 *
 * P               6      0.01234     -0.00441      0.05982 *
 * P               7     -0.00674      0.04456     -0.01632 *
 * P               8      0.05593      0.00388     -0.05982 *
 * P               9     -0.00615     -0.01755      0.04707 *
 * P              10      0.01269      0.06014     -0.00217 *
 * P              11      0.07602     -0.18749     -0.07770 *
 * P              12      0.05605     -0.05605      0.00761 *
 * P              13      0.00458      0.06034     -0.01150 *
 * P              14      0.04491     -0.01643     -0.01479 *
 * P              15      0.00441     -0.01235      0.05982 *
 * P              16      0.03286     -0.03287     -0.03486 *
 * P              17      0.01755      0.00615      0.04707 *
 * P              18      0.03222      0.01551      0.01186 *
 * P              19      0.01701      0.04449      0.00931 *
 * P              20      0.01976     -0.01975     -0.01765 *
 * P              21     -0.06035     -0.00457     -0.01150 *
 * P              22     -0.04455      0.00674     -0.01632 *
 * P              23      0.00368      0.02882     -0.00733 *
 * P              24      0.02870     -0.02871      0.03306 *
 * P              25      0.00353     -0.00352      0.03203 *
 * P              26     -0.04448     -0.01700      0.00931 *
 * P              27     -0.06015     -0.01270     -0.00216 *
 * P              28      0.02811      0.02915     -0.03102 *
 * P              29      0.01705     -0.01704     -0.04495 *
 * P              30     -0.02882     -0.00368     -0.00733 *
 * P              31      0.01643     -0.04491     -0.01479 *
 * P              32     -0.00388     -0.05594     -0.05983 *
 * In              1      0.00051      0.07793      0.07805 *
 * In              2     -0.07796      0.07796     -0.00027 *
 * In              3      0.10154     -0.10155     -0.10133 *
 * In              4     -0.07792     -0.00052      0.07805 *
 * In              5      0.00652     -0.00489      0.04624 *
 * In              6     -0.01133      0.01133     -0.05193 *
 * In              7      0.03634     -0.03634     -0.10011 *
 * In              8      0.00490     -0.00653      0.04624 *
 * In              9      0.00653      0.04600     -0.00468 *
 * In             10      0.00490      0.04603     -0.00628 *
 * In             11      0.03628     -0.10023     -0.03613 *
 * In             12     -0.01133     -0.05205      0.01147 *
 * In             13      0.05143      0.00783      0.00791 *
 * In             14     -0.06349     -0.00306      0.01046 *
 * In             15      0.04143     -0.03084     -0.03074 *
 * In             16     -0.06349      0.01037     -0.00293 *
 * In             17      0.05205      0.01134      0.01147 *
 * In             18     -0.04602     -0.00489     -0.00628 *
 * In             19      0.10022     -0.03628     -0.03612 *
 * In             20     -0.04599     -0.00654     -0.00468 *
 * In             21     -0.01037      0.06350     -0.00293 *
 * In             22      0.00307      0.06349      0.01046 *
 * In             23      0.03084     -0.04143     -0.03073 *
 * In             24     -0.00783     -0.05142      0.00791 *
 * In             25     -0.01037     -0.00306      0.06371 *
 * In             26     -0.00782      0.00783     -0.05126 *
 * In             27      0.03085     -0.03085     -0.04136 *
 * In             28      0.00306      0.01036      0.06371 *
 * In             29      0.00941     -0.00938     -0.00922 *
 * In             30      0.00939     -0.00940     -0.00927 *
 * In             31     -0.04069      0.04069      0.04073 *
 * In             32      0.00937     -0.00942     -0.00922 *
 * In             33     -0.49650      0.49651      0.49662 *
 *                                                          *
 ************************************************************

 Pseudo atomic calculation performed for P 3s2 3p3

 Converged in 23 iterations to a total energy of -208.0292 eV

 Pseudo atomic calculation performed for In 4d10 5s2 5p1

 Converged in 42 iterations to a total energy of -1747.4501 eV
Charge spilling parameter for spin component 1 = 0.25%
Charge spilling parameter for spin component 2 = 0.25%

                   Orbital Populations                  
  ---------------------------------------------------------------
     Ion    Atom   Orbital              Up        Down      Spin
  ---------------------------------------------------------------
      P     1      S                    0.871     0.871     0.000
      P     1      Px                   0.650     0.650    -0.000
      P     1      Py                   0.650     0.650    -0.000
      P     1      Pz                   0.650     0.650     0.000
      P     2      S                    0.885     0.885     0.000
      P     2      Px                   0.629     0.629    -0.000
      P     2      Py                   0.651     0.651    -0.000
      P     2      Pz                   0.651     0.651    -0.000
      P     3      S                    0.871     0.871     0.000
      P     3      Px                   0.650     0.650    -0.000
      P     3      Py                   0.650     0.650     0.000
      P     3      Pz                   0.650     0.650    -0.000
      P     4      S                    0.867     0.867    -0.000
      P     4      Px                   0.655     0.655    -0.000
      P     4      Py                   0.657     0.657     0.000
      P     4      Pz                   0.657     0.657    -0.000
      P     5      S                    0.885     0.885     0.000
      P     5      Px                   0.651     0.651    -0.000
      P     5      Py                   0.651     0.651    -0.000
      P     5      Pz                   0.629     0.629    -0.000
      P     6      S                    0.868     0.868     0.000
      P     6      Px                   0.653     0.653     0.000
      P     6      Py                   0.657     0.657    -0.000
      P     6      Pz                   0.658     0.658    -0.000
      P     7      S                    0.867     0.867     0.000
      P     7      Px                   0.654     0.654    -0.000
      P     7      Py                   0.658     0.658     0.000
      P     7      Pz                   0.657     0.657    -0.000
      P     8      S                    0.869     0.869     0.000
      P     8      Px                   0.654     0.654    -0.000
      P     8      Py                   0.658     0.658    -0.000
      P     8      Pz                   0.654     0.654    -0.000
      P     9      S                    0.867     0.867     0.000
      P     9      Px                   0.654     0.654    -0.000
      P     9      Py                   0.657     0.657    -0.000
      P     9      Pz                   0.658     0.658     0.000
      P    10      S                    0.868     0.868     0.000
      P    10      Px                   0.653     0.653    -0.000
      P    10      Py                   0.658     0.658    -0.000
      P    10      Pz                   0.657     0.657    -0.000
      P    11      S                    0.885     0.885     0.000
      P    11      Px                   0.651     0.651    -0.000
      P    11      Py                   0.629     0.629    -0.000
      P    11      Pz                   0.651     0.651    -0.000
      P    12      S                    0.869     0.869     0.000
      P    12      Px                   0.654     0.654    -0.000
      P    12      Py                   0.654     0.654    -0.000
      P    12      Pz                   0.658     0.658    -0.000
      P    13      S                    0.868     0.868     0.000
      P    13      Px                   0.657     0.657    -0.000
      P    13      Py                   0.658     0.658    -0.000
      P    13      Pz                   0.653     0.653    -0.000
      P    14      S                    0.866     0.866     0.000
      P    14      Px                   0.656     0.656    -0.000
      P    14      Py                   0.658     0.658    -0.000
      P    14      Pz                   0.658     0.658    -0.000
      P    15      S                    0.868     0.868     0.000
      P    15      Px                   0.657     0.657    -0.000
      P    15      Py                   0.653     0.653    -0.000
      P    15      Pz                   0.658     0.658    -0.000
      P    16      S                    0.871     0.871    -0.000
      P    16      Px                   0.655     0.655    -0.000
      P    16      Py                   0.655     0.655    -0.000
      P    16      Pz                   0.655     0.655    -0.000
      P    17      S                    0.867     0.867     0.000
      P    17      Px                   0.657     0.657    -0.000
      P    17      Py                   0.654     0.654    -0.000
      P    17      Pz                   0.658     0.658     0.000
      P    18      S                    0.871     0.871     0.000
      P    18      Px                   0.650     0.650     0.000
      P    18      Py                   0.650     0.650    -0.000
      P    18      Pz                   0.650     0.650    -0.000
      P    19      S                    0.867     0.867     0.000
      P    19      Px                   0.657     0.657    -0.000
      P    19      Py                   0.658     0.658    -0.000
      P    19      Pz                   0.654     0.654    -0.000
      P    20      S                    0.871     0.871    -0.000
      P    20      Px                   0.654     0.654    -0.000
      P    20      Py                   0.654     0.654    -0.000
      P    20      Pz                   0.654     0.654    -0.000
      P    21      S                    0.868     0.868     0.000
      P    21      Px                   0.658     0.658    -0.000
      P    21      Py                   0.657     0.657    -0.000
      P    21      Pz                   0.653     0.653    -0.000
      P    22      S                    0.867     0.867     0.000
      P    22      Px                   0.658     0.658     0.000
      P    22      Py                   0.654     0.654    -0.000
      P    22      Pz                   0.657     0.657    -0.000
      P    23      S                    0.868     0.868     0.000
      P    23      Px                   0.657     0.657    -0.000
      P    23      Py                   0.654     0.654     0.000
      P    23      Pz                   0.657     0.657    -0.000
      P    24      S                    0.867     0.867     0.000
      P    24      Px                   0.657     0.657    -0.000
      P    24      Py                   0.657     0.657     0.000
      P    24      Pz                   0.655     0.655    -0.000
      P    25      S                    0.868     0.868     0.000
      P    25      Px                   0.657     0.657    -0.000
      P    25      Py                   0.657     0.657    -0.000
      P    25      Pz                   0.654     0.654     0.000
      P    26      S                    0.867     0.867     0.000
      P    26      Px                   0.658     0.658    -0.000
      P    26      Py                   0.657     0.657    -0.000
      P    26      Pz                   0.654     0.654    -0.000
      P    27      S                    0.868     0.868     0.000
      P    27      Px                   0.658     0.658    -0.000
      P    27      Py                   0.653     0.653    -0.000
      P    27      Pz                   0.657     0.657    -0.000
      P    28      S                    0.867     0.867     0.000
      P    28      Px                   0.657     0.657    -0.000
      P    28      Py                   0.655     0.655    -0.000
      P    28      Pz                   0.657     0.657    -0.000
      P    29      S                    0.866     0.866     0.000
      P    29      Px                   0.658     0.658    -0.000
      P    29      Py                   0.658     0.658    -0.000
      P    29      Pz                   0.656     0.656    -0.000
      P    30      S                    0.868     0.868     0.000
      P    30      Px                   0.654     0.654     0.000
      P    30      Py                   0.657     0.657    -0.000
      P    30      Pz                   0.657     0.657    -0.000
      P    31      S                    0.866     0.866     0.000
      P    31      Px                   0.658     0.658    -0.000
      P    31      Py                   0.656     0.656    -0.000
      P    31      Pz                   0.658     0.658    -0.000
      P    32      S                    0.869     0.869     0.000
      P    32      Px                   0.658     0.658    -0.000
      P    32      Py                   0.654     0.654    -0.000
      P    32      Pz                   0.654     0.654     0.000
     In     1      Dzz                  1.000     1.000    -0.000
     In     1      Dzy                  0.998     0.998    -0.000
     In     1      Dzx                  0.999     0.999    -0.000
     In     1      Dxx-yy               0.999     0.999    -0.000
     In     1      Dxy                  0.999     0.999    -0.000
     In     1      S                    0.706     0.706     0.000
     In     1      Px                   0.221     0.221     0.000
     In     1      Py                   0.246     0.246    -0.000
     In     1      Pz                   0.246     0.246    -0.000
     In     1      S                   -0.224    -0.224     0.000
     In     2      Dzz                  0.999     0.999    -0.000
     In     2      Dzy                  0.999     0.999    -0.000
     In     2      Dzx                  0.999     0.999    -0.000
     In     2      Dxx-yy               1.000     1.000    -0.000
     In     2      Dxy                  0.998     0.998    -0.000
     In     2      S                    0.706     0.706     0.000
     In     2      Px                   0.246     0.246     0.000
     In     2      Py                   0.246     0.246    -0.000
     In     2      Pz                   0.221     0.221     0.000
     In     2      S                   -0.224    -0.224     0.000
     In     3      Dzz                  1.000     1.000    -0.000
     In     3      Dzy                  0.999     0.999     0.000
     In     3      Dzx                  0.999     0.999    -0.000
     In     3      Dxx-yy               1.000     1.000    -0.000
     In     3      Dxy                  0.999     0.999    -0.000
     In     3      S                    0.700     0.700     0.000
     In     3      Px                   0.244     0.244     0.000
     In     3      Py                   0.244     0.244     0.000
     In     3      Pz                   0.244     0.244     0.000
     In     3      S                   -0.271    -0.271     0.000
     In     4      Dzz                  1.000     1.000     0.000
     In     4      Dzy                  0.999     0.999    -0.000
     In     4      Dzx                  0.998     0.998    -0.000
     In     4      Dxx-yy               0.999     0.999    -0.000
     In     4      Dxy                  0.999     0.999    -0.000
     In     4      S                    0.706     0.706     0.000
     In     4      Px                   0.246     0.246    -0.000
     In     4      Py                   0.221     0.221     0.000
     In     4      Pz                   0.246     0.246    -0.000
     In     4      S                   -0.224    -0.224    -0.000
     In     5      Dzz                  1.000     1.000     0.000
     In     5      Dzy                  0.998     0.998     0.000
     In     5      Dzx                  0.998     0.998    -0.000
     In     5      Dxx-yy               1.000     1.000    -0.000
     In     5      Dxy                  0.998     0.998    -0.000
     In     5      S                    0.712     0.712     0.000
     In     5      Px                   0.244     0.244     0.000
     In     5      Py                   0.243     0.243    -0.000
     In     5      Pz                   0.237     0.237    -0.000
     In     5      S                   -0.265    -0.265    -0.000
     In     6      Dzz                  1.000     1.000    -0.000
     In     6      Dzy                  0.999     0.999    -0.000
     In     6      Dzx                  0.999     0.999    -0.000
     In     6      Dxx-yy               1.000     1.000    -0.000
     In     6      Dxy                  0.998     0.998     0.000
     In     6      S                    0.712     0.712     0.000
     In     6      Px                   0.245     0.245    -0.000
     In     6      Py                   0.245     0.245    -0.000
     In     6      Pz                   0.236     0.236    -0.000
     In     6      S                   -0.265    -0.265     0.000
     In     7      Dzz                  0.999     0.999     0.000
     In     7      Dzy                  0.998     0.998    -0.000
     In     7      Dzx                  0.998     0.998    -0.000
     In     7      Dxx-yy               0.999     0.999    -0.000
     In     7      Dxy                  0.998     0.998     0.000
     In     7      S                    0.729     0.729     0.000
     In     7      Px                   0.247     0.247     0.000
     In     7      Py                   0.247     0.247    -0.000
     In     7      Pz                   0.237     0.237    -0.000
     In     7      S                   -0.283    -0.283    -0.000
     In     8      Dzz                  1.000     1.000    -0.000
     In     8      Dzy                  0.998     0.998    -0.000
     In     8      Dzx                  0.998     0.998     0.000
     In     8      Dxx-yy               1.000     1.000    -0.000
     In     8      Dxy                  0.998     0.998     0.000
     In     8      S                    0.712     0.712     0.000
     In     8      Px                   0.243     0.243    -0.000
     In     8      Py                   0.244     0.244     0.000
     In     8      Pz                   0.237     0.237    -0.000
     In     8      S                   -0.265    -0.265    -0.000
     In     9      Dzz                  1.000     1.000     0.000
     In     9      Dzy                  0.998     0.998     0.000
     In     9      Dzx                  0.998     0.998    -0.000
     In     9      Dxx-yy               1.000     1.000    -0.000
     In     9      Dxy                  0.998     0.998    -0.000
     In     9      S                    0.712     0.712    -0.000
     In     9      Px                   0.244     0.244     0.000
     In     9      Py                   0.237     0.237    -0.000
     In     9      Pz                   0.243     0.243    -0.000
     In     9      S                   -0.265    -0.265    -0.000
     In    10      Dzz                  1.000     1.000     0.000
     In    10      Dzy                  0.998     0.998     0.000
     In    10      Dzx                  0.998     0.998    -0.000
     In    10      Dxx-yy               1.000     1.000    -0.000
     In    10      Dxy                  0.998     0.998     0.000
     In    10      S                    0.712     0.712    -0.000
     In    10      Px                   0.243     0.243    -0.000
     In    10      Py                   0.237     0.237    -0.000
     In    10      Pz                   0.244     0.244     0.000
     In    10      S                   -0.265    -0.265     0.000
     In    11      Dzz                  0.999     0.999    -0.000
     In    11      Dzy                  0.998     0.998    -0.000
     In    11      Dzx                  0.998     0.998     0.000
     In    11      Dxx-yy               0.999     0.999    -0.000
     In    11      Dxy                  0.998     0.998     0.000
     In    11      S                    0.729     0.729     0.000
     In    11      Px                   0.247     0.247    -0.000
     In    11      Py                   0.237     0.237    -0.000
     In    11      Pz                   0.247     0.247    -0.000
     In    11      S                   -0.283    -0.283    -0.000
     In    12      Dzz                  1.000     1.000    -0.000
     In    12      Dzy                  0.999     0.999    -0.000
     In    12      Dzx                  0.998     0.998    -0.000
     In    12      Dxx-yy               1.000     1.000    -0.000
     In    12      Dxy                  0.999     0.999    -0.000
     In    12      S                    0.712     0.712    -0.000
     In    12      Px                   0.245     0.245    -0.000
     In    12      Py                   0.236     0.236    -0.000
     In    12      Pz                   0.245     0.245    -0.000
     In    12      S                   -0.265    -0.265     0.000
     In    13      Dzz                  1.000     1.000     0.000
     In    13      Dzy                  0.998     0.998    -0.000
     In    13      Dzx                  0.998     0.998    -0.000
     In    13      Dxx-yy               1.000     1.000    -0.000
     In    13      Dxy                  0.998     0.998    -0.000
     In    13      S                    0.709     0.709     0.000
     In    13      Px                   0.245     0.245    -0.000
     In    13      Py                   0.242     0.242    -0.000
     In    13      Pz                   0.242     0.242     0.000
     In    13      S                   -0.262    -0.262    -0.000
     In    14      Dzz                  1.000     1.000    -0.000
     In    14      Dzy                  0.998     0.998    -0.000
     In    14      Dzx                  0.998     0.998    -0.000
     In    14      Dxx-yy               1.000     1.000    -0.000
     In    14      Dxy                  0.998     0.998    -0.000
     In    14      S                    0.715     0.715     0.000
     In    14      Px                   0.248     0.248     0.000
     In    14      Py                   0.240     0.240    -0.000
     In    14      Pz                   0.239     0.239    -0.000
     In    14      S                   -0.261    -0.261     0.000
     In    15      Dzz                  1.000     1.000     0.000
     In    15      Dzy                  0.998     0.998     0.000
     In    15      Dzx                  0.998     0.998    -0.000
     In    15      Dxx-yy               1.000     1.000     0.000
     In    15      Dxy                  0.998     0.998    -0.000
     In    15      S                    0.712     0.712     0.000
     In    15      Px                   0.243     0.243    -0.000
     In    15      Py                   0.240     0.240    -0.000
     In    15      Pz                   0.240     0.240    -0.000
     In    15      S                   -0.268    -0.268    -0.000
     In    16      Dzz                  1.000     1.000    -0.000
     In    16      Dzy                  0.998     0.998    -0.000
     In    16      Dzx                  0.998     0.998    -0.000
     In    16      Dxx-yy               1.000     1.000     0.000
     In    16      Dxy                  0.998     0.998    -0.000
     In    16      S                    0.715     0.715     0.000
     In    16      Px                   0.248     0.248     0.000
     In    16      Py                   0.239     0.239    -0.000
     In    16      Pz                   0.240     0.240    -0.000
     In    16      S                   -0.261    -0.261     0.000
     In    17      Dzz                  1.000     1.000    -0.000
     In    17      Dzy                  0.998     0.998    -0.000
     In    17      Dzx                  0.999     0.999    -0.000
     In    17      Dxx-yy               1.000     1.000    -0.000
     In    17      Dxy                  0.999     0.999    -0.000
     In    17      S                    0.712     0.712     0.000
     In    17      Px                   0.236     0.236    -0.000
     In    17      Py                   0.245     0.245    -0.000
     In    17      Pz                   0.245     0.245    -0.000
     In    17      S                   -0.265    -0.265     0.000
     In    18      Dzz                  1.000     1.000     0.000
     In    18      Dzy                  0.998     0.998    -0.000
     In    18      Dzx                  0.998     0.998     0.000
     In    18      Dxx-yy               1.000     1.000    -0.000
     In    18      Dxy                  0.998     0.998     0.000
     In    18      S                    0.712     0.712     0.000
     In    18      Px                   0.237     0.237     0.000
     In    18      Py                   0.243     0.243    -0.000
     In    18      Pz                   0.244     0.244     0.000
     In    18      S                   -0.265    -0.265    -0.000
     In    19      Dzz                  0.999     0.999     0.000
     In    19      Dzy                  0.998     0.998     0.000
     In    19      Dzx                  0.998     0.998    -0.000
     In    19      Dxx-yy               0.999     0.999    -0.000
     In    19      Dxy                  0.998     0.998    -0.000
     In    19      S                    0.729     0.729     0.000
     In    19      Px                   0.237     0.237    -0.000
     In    19      Py                   0.247     0.247    -0.000
     In    19      Pz                   0.247     0.247    -0.000
     In    19      S                   -0.283    -0.283    -0.000
     In    20      Dzz                  1.000     1.000     0.000
     In    20      Dzy                  0.998     0.998    -0.000
     In    20      Dzx                  0.998     0.998     0.000
     In    20      Dxx-yy               1.000     1.000     0.000
     In    20      Dxy                  0.998     0.998    -0.000
     In    20      S                    0.712     0.712    -0.000
     In    20      Px                   0.237     0.237     0.000
     In    20      Py                   0.244     0.244     0.000
     In    20      Pz                   0.243     0.243    -0.000
     In    20      S                   -0.265    -0.265    -0.000
     In    21      Dzz                  1.000     1.000    -0.000
     In    21      Dzy                  0.998     0.998    -0.000
     In    21      Dzx                  0.998     0.998     0.000
     In    21      Dxx-yy               1.000     1.000     0.000
     In    21      Dxy                  0.998     0.998    -0.000
     In    21      S                    0.715     0.715     0.000
     In    21      Px                   0.239     0.239    -0.000
     In    21      Py                   0.248     0.248     0.000
     In    21      Pz                   0.240     0.240    -0.000
     In    21      S                   -0.261    -0.261     0.000
     In    22      Dzz                  1.000     1.000    -0.000
     In    22      Dzy                  0.998     0.998     0.000
     In    22      Dzx                  0.998     0.998    -0.000
     In    22      Dxx-yy               1.000     1.000     0.000
     In    22      Dxy                  0.998     0.998    -0.000
     In    22      S                    0.715     0.715     0.000
     In    22      Px                   0.240     0.240     0.000
     In    22      Py                   0.248     0.248     0.000
     In    22      Pz                   0.239     0.239    -0.000
     In    22      S                   -0.261    -0.261    -0.000
     In    23      Dzz                  1.000     1.000     0.000
     In    23      Dzy                  0.998     0.998    -0.000
     In    23      Dzx                  0.998     0.999    -0.000
     In    23      Dxx-yy               1.000     1.000     0.000
     In    23      Dxy                  0.998     0.998    -0.000
     In    23      S                    0.712     0.712     0.000
     In    23      Px                   0.240     0.240     0.000
     In    23      Py                   0.243     0.243    -0.000
     In    23      Pz                   0.240     0.240    -0.000
     In    23      S                   -0.268    -0.268    -0.000
     In    24      Dzz                  1.000     1.000    -0.000
     In    24      Dzy                  0.998     0.998    -0.000
     In    24      Dzx                  0.998     0.998     0.000
     In    24      Dxx-yy               1.000     1.000    -0.000
     In    24      Dxy                  0.998     0.998     0.000
     In    24      S                    0.709     0.709     0.000
     In    24      Px                   0.242     0.242     0.000
     In    24      Py                   0.245     0.245    -0.000
     In    24      Pz                   0.242     0.242    -0.000
     In    24      S                   -0.262    -0.262     0.000
     In    25      Dzz                  1.000     1.000     0.000
     In    25      Dzy                  0.998     0.998    -0.000
     In    25      Dzx                  0.998     0.998    -0.000
     In    25      Dxx-yy               1.000     1.000    -0.000
     In    25      Dxy                  0.998     0.998    -0.000
     In    25      S                    0.715     0.715     0.000
     In    25      Px                   0.239     0.239     0.000
     In    25      Py                   0.240     0.239     0.000
     In    25      Pz                   0.248     0.248    -0.000
     In    25      S                   -0.261    -0.261     0.000
     In    26      Dzz                  1.000     1.000    -0.000
     In    26      Dzy                  0.998     0.998    -0.000
     In    26      Dzx                  0.998     0.998     0.000
     In    26      Dxx-yy               1.000     1.000    -0.000
     In    26      Dxy                  0.998     0.998    -0.000
     In    26      S                    0.709     0.709     0.000
     In    26      Px                   0.242     0.242     0.000
     In    26      Py                   0.242     0.242    -0.000
     In    26      Pz                   0.245     0.245    -0.000
     In    26      S                   -0.262    -0.262     0.000
     In    27      Dzz                  1.000     1.000     0.000
     In    27      Dzy                  0.998     0.998    -0.000
     In    27      Dzx                  0.998     0.998    -0.000
     In    27      Dxx-yy               1.000     1.000     0.000
     In    27      Dxy                  0.998     0.999    -0.000
     In    27      S                    0.712     0.712     0.000
     In    27      Px                   0.240     0.240    -0.000
     In    27      Py                   0.240     0.240    -0.000
     In    27      Pz                   0.243     0.243    -0.000
     In    27      S                   -0.268    -0.268    -0.000
     In    28      Dzz                  1.000     1.000     0.000
     In    28      Dzy                  0.998     0.998    -0.000
     In    28      Dzx                  0.998     0.998    -0.000
     In    28      Dxx-yy               1.000     1.000    -0.000
     In    28      Dxy                  0.998     0.998    -0.000
     In    28      S                    0.715     0.715     0.000
     In    28      Px                   0.240     0.239     0.000
     In    28      Py                   0.239     0.239    -0.000
     In    28      Pz                   0.248     0.248     0.000
     In    28      S                   -0.261    -0.261    -0.000
     In    29      Dzz                  1.000     1.000    -0.000
     In    29      Dzy                  0.998     0.998    -0.000
     In    29      Dzx                  0.998     0.998    -0.000
     In    29      Dxx-yy               1.000     1.000    -0.000
     In    29      Dxy                  0.998     0.998     0.000
     In    29      S                    0.712     0.712     0.000
     In    29      Px                   0.244     0.244    -0.000
     In    29      Py                   0.241     0.241    -0.000
     In    29      Pz                   0.241     0.241    -0.000
     In    29      S                   -0.265    -0.264    -0.000
     In    30      Dzz                  1.000     1.000    -0.000
     In    30      Dzy                  0.998     0.998     0.000
     In    30      Dzx                  0.998     0.998     0.000
     In    30      Dxx-yy               1.000     1.000    -0.000
     In    30      Dxy                  0.998     0.998    -0.000
     In    30      S                    0.712     0.712     0.000
     In    30      Px                   0.241     0.241    -0.000
     In    30      Py                   0.241     0.241    -0.000
     In    30      Pz                   0.244     0.244    -0.000
     In    30      S                   -0.265    -0.265    -0.000
     In    31      Dzz                  1.000     1.000     0.000
     In    31      Dzy                  0.998     0.998     0.000
     In    31      Dzx                  0.998     0.998    -0.000
     In    31      Dxx-yy               1.000     1.000     0.000
     In    31      Dxy                  0.998     0.998     0.000
     In    31      S                    0.723     0.723     0.000
     In    31      Px                   0.240     0.240    -0.000
     In    31      Py                   0.240     0.240    -0.000
     In    31      Pz                   0.240     0.240    -0.000
     In    31      S                   -0.272    -0.272     0.000
     In    32      Dzz                  1.000     1.000    -0.000
     In    32      Dzy                  0.998     0.998    -0.000
     In    32      Dzx                  0.998     0.998    -0.000
     In    32      Dxx-yy               1.000     1.000    -0.000
     In    32      Dxy                  0.998     0.998    -0.000
     In    32      S                    0.712     0.712     0.000
     In    32      Px                   0.241     0.241    -0.000
     In    32      Py                   0.244     0.244    -0.000
     In    32      Pz                   0.241     0.241    -0.000
     In    32      S                   -0.265    -0.264    -0.000
     In    33      Dzz                  0.997     0.997    -0.000
     In    33      Dzy                  0.999     0.999     0.000
     In    33      Dzx                  0.999     0.999     0.000
     In    33      Dxx-yy               0.997     0.997    -0.000
     In    33      Dxy                  0.999     0.999     0.000
     In    33      S                    0.748     0.748     0.000
     In    33      Px                   0.242     0.242     0.000
     In    33      Py                   0.242     0.242     0.000
     In    33      Pz                   0.242     0.242     0.000
     In    33      S                   -0.048    -0.048    -0.000
  ---------------------------------------------------------------
                           Total:     294.500   294.500    -0.000
  ---------------------------------------------------------------

     Atomic Populations (Mulliken)
     -----------------------------
Species          Ion Spin      s       p       d       f      Total   Charge(e)   Spin(hbar/2)
==============================================================================================
  P               1   up:     0.871   1.951   0.000   0.000   2.822    -0.644       -0.000
                  1   dn:     0.871   1.951   0.000   0.000   2.822
  P               2   up:     0.885   1.930   0.000   0.000   2.815    -0.630       -0.000
                  2   dn:     0.885   1.930   0.000   0.000   2.815
  P               3   up:     0.871   1.951   0.000   0.000   2.822    -0.644       -0.000
                  3   dn:     0.871   1.951   0.000   0.000   2.822
  P               4   up:     0.867   1.969   0.000   0.000   2.837    -0.673       -0.000
                  4   dn:     0.867   1.969   0.000   0.000   2.837
  P               5   up:     0.885   1.930   0.000   0.000   2.815    -0.630       -0.000
                  5   dn:     0.885   1.930   0.000   0.000   2.815
  P               6   up:     0.868   1.968   0.000   0.000   2.836    -0.672       -0.000
                  6   dn:     0.868   1.968   0.000   0.000   2.836
  P               7   up:     0.867   1.968   0.000   0.000   2.835    -0.671       -0.000
                  7   dn:     0.867   1.968   0.000   0.000   2.835
  P               8   up:     0.869   1.967   0.000   0.000   2.836    -0.671       -0.000
                  8   dn:     0.869   1.967   0.000   0.000   2.836
  P               9   up:     0.867   1.968   0.000   0.000   2.835    -0.671       -0.000
                  9   dn:     0.867   1.968   0.000   0.000   2.835
  P              10   up:     0.868   1.968   0.000   0.000   2.836    -0.672        0.000
                 10   dn:     0.868   1.968   0.000   0.000   2.836
  P              11   up:     0.885   1.930   0.000   0.000   2.815    -0.630       -0.000
                 11   dn:     0.885   1.930   0.000   0.000   2.815
  P              12   up:     0.869   1.967   0.000   0.000   2.836    -0.671       -0.000
                 12   dn:     0.869   1.967   0.000   0.000   2.836
  P              13   up:     0.868   1.968   0.000   0.000   2.836    -0.672       -0.000
                 13   dn:     0.868   1.968   0.000   0.000   2.836
  P              14   up:     0.866   1.971   0.000   0.000   2.837    -0.675       -0.000
                 14   dn:     0.866   1.971   0.000   0.000   2.837
  P              15   up:     0.868   1.968   0.000   0.000   2.836    -0.672       -0.000
                 15   dn:     0.868   1.968   0.000   0.000   2.836
  P              16   up:     0.871   1.965   0.000   0.000   2.836    -0.671       -0.000
                 16   dn:     0.871   1.965   0.000   0.000   2.836
  P              17   up:     0.867   1.968   0.000   0.000   2.835    -0.671       -0.000
                 17   dn:     0.867   1.968   0.000   0.000   2.835
  P              18   up:     0.871   1.951   0.000   0.000   2.822    -0.644       -0.000
                 18   dn:     0.871   1.951   0.000   0.000   2.822
  P              19   up:     0.867   1.968   0.000   0.000   2.835    -0.671       -0.000
                 19   dn:     0.867   1.968   0.000   0.000   2.835
  P              20   up:     0.871   1.961   0.000   0.000   2.833    -0.666       -0.000
                 20   dn:     0.871   1.961   0.000   0.000   2.833
  P              21   up:     0.868   1.968   0.000   0.000   2.836    -0.672       -0.000
                 21   dn:     0.868   1.968   0.000   0.000   2.836
  P              22   up:     0.867   1.968   0.000   0.000   2.835    -0.671       -0.000
                 22   dn:     0.867   1.968   0.000   0.000   2.835
  P              23   up:     0.868   1.969   0.000   0.000   2.836    -0.673        0.000
                 23   dn:     0.868   1.969   0.000   0.000   2.836
  P              24   up:     0.867   1.969   0.000   0.000   2.837    -0.673       -0.000
                 24   dn:     0.867   1.969   0.000   0.000   2.837
  P              25   up:     0.868   1.969   0.000   0.000   2.836    -0.673        0.000
                 25   dn:     0.868   1.969   0.000   0.000   2.836
  P              26   up:     0.867   1.968   0.000   0.000   2.835    -0.671       -0.000
                 26   dn:     0.867   1.968   0.000   0.000   2.835
  P              27   up:     0.868   1.968   0.000   0.000   2.836    -0.672       -0.000
                 27   dn:     0.868   1.968   0.000   0.000   2.836
  P              28   up:     0.867   1.969   0.000   0.000   2.837    -0.673       -0.000
                 28   dn:     0.867   1.969   0.000   0.000   2.837
  P              29   up:     0.866   1.971   0.000   0.000   2.837    -0.675       -0.000
                 29   dn:     0.866   1.971   0.000   0.000   2.837
  P              30   up:     0.868   1.969   0.000   0.000   2.836    -0.673        0.000
                 30   dn:     0.868   1.969   0.000   0.000   2.836
  P              31   up:     0.866   1.971   0.000   0.000   2.837    -0.675       -0.000
                 31   dn:     0.866   1.971   0.000   0.000   2.837
  P              32   up:     0.869   1.967   0.000   0.000   2.836    -0.671        0.000
                 32   dn:     0.869   1.967   0.000   0.000   2.836
  In              1   up:     0.482   0.713   4.994   0.000   6.189     0.623        0.000
                  1   dn:     0.481   0.713   4.994   0.000   6.188
  In              2   up:     0.482   0.713   4.994   0.000   6.189     0.623        0.000
                  2   dn:     0.481   0.713   4.994   0.000   6.188
  In              3   up:     0.428   0.732   4.995   0.000   6.156     0.689        0.000
                  3   dn:     0.428   0.732   4.995   0.000   6.155
  In              4   up:     0.482   0.713   4.994   0.000   6.189     0.623        0.000
                  4   dn:     0.481   0.713   4.994   0.000   6.188
  In              5   up:     0.447   0.724   4.994   0.000   6.166     0.669       -0.000
                  5   dn:     0.447   0.724   4.994   0.000   6.166
  In              6   up:     0.447   0.726   4.995   0.000   6.167     0.665        0.000
                  6   dn:     0.447   0.726   4.995   0.000   6.167
  In              7   up:     0.447   0.730   4.994   0.000   6.171     0.659       -0.000
                  7   dn:     0.447   0.730   4.994   0.000   6.171
  In              8   up:     0.447   0.724   4.994   0.000   6.166     0.669       -0.000
                  8   dn:     0.447   0.724   4.994   0.000   6.166
  In              9   up:     0.447   0.724   4.994   0.000   6.166     0.669       -0.000
                  9   dn:     0.447   0.724   4.994   0.000   6.166
  In             10   up:     0.447   0.724   4.994   0.000   6.166     0.669       -0.000
                 10   dn:     0.447   0.724   4.994   0.000   6.166
  In             11   up:     0.447   0.730   4.994   0.000   6.171     0.659       -0.000
                 11   dn:     0.447   0.730   4.994   0.000   6.171
  In             12   up:     0.447   0.726   4.995   0.000   6.167     0.665       -0.000
                 12   dn:     0.447   0.726   4.995   0.000   6.167
  In             13   up:     0.447   0.728   4.994   0.000   6.170     0.661       -0.000
                 13   dn:     0.447   0.728   4.994   0.000   6.170
  In             14   up:     0.454   0.726   4.994   0.000   6.174     0.651        0.000
                 14   dn:     0.454   0.726   4.994   0.000   6.174
  In             15   up:     0.444   0.723   4.994   0.000   6.161     0.678        0.000
                 15   dn:     0.444   0.723   4.994   0.000   6.161
  In             16   up:     0.454   0.726   4.994   0.000   6.174     0.651        0.000
                 16   dn:     0.454   0.726   4.994   0.000   6.174
  In             17   up:     0.447   0.726   4.995   0.000   6.167     0.665        0.000
                 17   dn:     0.446   0.726   4.995   0.000   6.167
  In             18   up:     0.447   0.724   4.994   0.000   6.166     0.669       -0.000
                 18   dn:     0.447   0.724   4.994   0.000   6.166
  In             19   up:     0.447   0.730   4.994   0.000   6.171     0.659       -0.000
                 19   dn:     0.447   0.730   4.994   0.000   6.171
  In             20   up:     0.447   0.724   4.994   0.000   6.166     0.669       -0.000
                 20   dn:     0.447   0.724   4.994   0.000   6.166
  In             21   up:     0.454   0.726   4.994   0.000   6.174     0.651        0.000
                 21   dn:     0.454   0.726   4.994   0.000   6.174
  In             22   up:     0.454   0.726   4.994   0.000   6.174     0.651        0.000
                 22   dn:     0.454   0.726   4.994   0.000   6.174
  In             23   up:     0.444   0.723   4.994   0.000   6.161     0.678       -0.000
                 23   dn:     0.444   0.723   4.994   0.000   6.161
  In             24   up:     0.447   0.728   4.994   0.000   6.170     0.661        0.000
                 24   dn:     0.447   0.728   4.994   0.000   6.170
  In             25   up:     0.454   0.726   4.994   0.000   6.174     0.651        0.000
                 25   dn:     0.454   0.726   4.994   0.000   6.174
  In             26   up:     0.447   0.728   4.994   0.000   6.170     0.661        0.000
                 26   dn:     0.447   0.728   4.994   0.000   6.170
  In             27   up:     0.444   0.723   4.994   0.000   6.161     0.678       -0.000
                 27   dn:     0.444   0.723   4.994   0.000   6.161
  In             28   up:     0.454   0.726   4.994   0.000   6.174     0.651        0.000
                 28   dn:     0.454   0.726   4.994   0.000   6.174
  In             29   up:     0.447   0.726   4.994   0.000   6.168     0.664       -0.000
                 29   dn:     0.447   0.726   4.994   0.000   6.168
  In             30   up:     0.447   0.726   4.994   0.000   6.168     0.664       -0.000
                 30   dn:     0.447   0.726   4.994   0.000   6.168
  In             31   up:     0.451   0.720   4.995   0.000   6.166     0.667        0.000
                 31   dn:     0.451   0.720   4.995   0.000   6.166
  In             32   up:     0.447   0.726   4.994   0.000   6.168     0.664       -0.000
                 32   dn:     0.447   0.726   4.994   0.000   6.168
  In             33   up:     0.700   0.726   4.991   0.000   6.416     0.168        0.000
                 33   dn:     0.700   0.726   4.991   0.000   6.416
==============================================================================================

                 Bond                   Population        Spin       Length (A)
================================================================================
              P 32 -- In 1                   0.83        -0.00          2.45976
              P 12 -- In 2                   0.83         0.00          2.45976
              P 8  -- In 4                   0.83         0.00          2.45976
              P 31 -- In 21                  0.67        -0.00          2.52310
              P 31 -- In 22                  0.67        -0.00          2.52310
              P 29 -- In 25                  0.67        -0.00          2.52310
              P 14 -- In 14                  0.67        -0.00          2.52310
              P 29 -- In 28                  0.67        -0.00          2.52310
              P 14 -- In 16                  0.67         0.00          2.52310
              P 5  -- In 7                   0.57        -0.00          2.53574
              P 11 -- In 11                  0.57        -0.00          2.53574
              P 2  -- In 19                  0.57        -0.00          2.53574
              P 17 -- In 19                  0.62         0.00          2.53970
              P 9  -- In 11                  0.62         0.00          2.53970
              P 7  -- In 7                   0.62         0.00          2.53970
              P 19 -- In 19                  0.62         0.00          2.53970
              P 22 -- In 7                   0.62         0.00          2.53970
              P 26 -- In 11                  0.62         0.00          2.53971
              P 28 -- In 11                  0.64         0.00          2.54040
              P 24 -- In 7                   0.64        -0.00          2.54041
              P 4  -- In 19                  0.64        -0.00          2.54041
              P 19 -- In 25                  0.66         0.00          2.54193
              P 7  -- In 14                  0.66         0.00          2.54193
              P 9  -- In 16                  0.66        -0.00          2.54193
              P 26 -- In 28                  0.66         0.00          2.54193
              P 17 -- In 21                  0.66        -0.00          2.54193
              P 22 -- In 22                  0.66         0.00          2.54193
              P 27 -- In 28                  0.65        -0.00          2.54218
              P 15 -- In 16                  0.65        -0.00          2.54218
              P 10 -- In 25                  0.65        -0.00          2.54218
              P 6  -- In 21                  0.65        -0.00          2.54218
              P 21 -- In 22                  0.65        -0.00          2.54218
              P 13 -- In 14                  0.65        -0.00          2.54218
              P 7  -- In 8                   0.67        -0.00          2.54322
              P 19 -- In 20                  0.67        -0.00          2.54322
              P 9  -- In 10                  0.67        -0.00          2.54322
              P 26 -- In 9                   0.67        -0.00          2.54322
              P 17 -- In 18                  0.67        -0.00          2.54322
              P 22 -- In 5                   0.67        -0.00          2.54322
              P 25 -- In 27                  0.67        -0.00          2.54358
              P 30 -- In 15                  0.67        -0.00          2.54358
              P 23 -- In 23                  0.67        -0.00          2.54358
              P 22 -- In 24                  0.64        -0.00          2.54445
              P 17 -- In 24                  0.64        -0.00          2.54445
              P 7  -- In 13                  0.64        -0.00          2.54445
              P 26 -- In 26                  0.64         0.00          2.54445
              P 19 -- In 26                  0.64        -0.00          2.54445
              P 9  -- In 13                  0.64        -0.00          2.54445
              P 1  -- In 5                   0.65        -0.00          2.54605
              P 3  -- In 9                   0.65        -0.00          2.54605
              P 1  -- In 8                   0.65        -0.00          2.54605
              P 3  -- In 10                  0.65        -0.00          2.54605
              P 18 -- In 20                  0.65        -0.00          2.54605
              P 18 -- In 18                  0.65         0.00          2.54605
              P 10 -- In 27                  0.66         0.00          2.54636
              P 6  -- In 23                  0.66         0.00          2.54636
              P 13 -- In 15                  0.66         0.00          2.54636
              P 15 -- In 15                  0.66         0.00          2.54636
              P 27 -- In 27                  0.66         0.00          2.54636
              P 21 -- In 23                  0.66         0.00          2.54636
              P 20 -- In 26                  0.68        -0.00          2.54690
              P 20 -- In 24                  0.68         0.00          2.54690
              P 20 -- In 13                  0.68         0.00          2.54690
              P 24 -- In 30                  0.66         0.00          2.54718
              P 28 -- In 32                  0.66         0.00          2.54718
              P 4  -- In 29                  0.66         0.00          2.54718
              P 3  -- In 4                   0.65        -0.00          2.54823
              P 18 -- In 1                   0.65         0.00          2.54823
              P 1  -- In 2                   0.65        -0.00          2.54823
              P 15 -- In 5                   0.65        -0.00          2.54828
              P 13 -- In 9                   0.65        -0.00          2.54828
              P 21 -- In 20                  0.65        -0.00          2.54828
              P 27 -- In 18                  0.65        -0.00          2.54828
              P 6  -- In 8                   0.65        -0.00          2.54828
              P 10 -- In 10                  0.65        -0.00          2.54828
              P 8  -- In 25                  0.60         0.00          2.54847
              P 32 -- In 28                  0.60         0.00          2.54847
              P 12 -- In 21                  0.60         0.00          2.54847
              P 32 -- In 22                  0.60         0.00          2.54847
              P 8  -- In 14                  0.60         0.00          2.54847
              P 12 -- In 16                  0.60         0.00          2.54847
              P 30 -- In 32                  0.66        -0.00          2.54883
              P 30 -- In 30                  0.66         0.00          2.54883
              P 23 -- In 29                  0.66         0.00          2.54883
              P 25 -- In 29                  0.66        -0.00          2.54883
              P 25 -- In 32                  0.66        -0.00          2.54883
              P 23 -- In 30                  0.66        -0.00          2.54883
              P 5  -- In 6                   0.64        -0.00          2.54888
              P 11 -- In 12                  0.64        -0.00          2.54888
              P 2  -- In 17                  0.64        -0.00          2.54888
              P 12 -- In 27                  0.65        -0.00          2.54976
              P 32 -- In 15                  0.65        -0.00          2.54976
              P 8  -- In 23                  0.65        -0.00          2.54976
              P 29 -- In 31                  0.64         0.00          2.55009
              P 14 -- In 31                  0.64        -0.00          2.55009
              P 31 -- In 31                  0.64         0.00          2.55009
              P 14 -- In 29                  0.67        -0.00          2.55046
              P 31 -- In 32                  0.67        -0.00          2.55046
              P 29 -- In 30                  0.67        -0.00          2.55046
              P 30 -- In 13                  0.66        -0.00          2.55240
              P 23 -- In 24                  0.66        -0.00          2.55240
              P 25 -- In 26                  0.66        -0.00          2.55240
              P 4  -- In 10                  0.65        -0.00          2.55320
              P 28 -- In 18                  0.65        -0.00          2.55320
              P 24 -- In 9                   0.65         0.00          2.55320
              P 24 -- In 20                  0.65        -0.00          2.55320
              P 28 -- In 5                   0.65         0.00          2.55320
              P 4  -- In 8                   0.65         0.00          2.55320
              P 21 -- In 17                  0.63        -0.00          2.55434
              P 13 -- In 12                  0.63        -0.00          2.55434
              P 27 -- In 17                  0.63        -0.00          2.55434
              P 15 -- In 6                   0.63        -0.00          2.55434
              P 10 -- In 12                  0.63        -0.00          2.55434
              P 6  -- In 6                   0.63        -0.00          2.55434
              P 3  -- In 3                   0.65         0.00          2.56749
              P 1  -- In 3                   0.65         0.00          2.56749
              P 18 -- In 3                   0.65        -0.00          2.56749
              P 16 -- In 17                  0.64         0.00          2.57079
              P 16 -- In 12                  0.64         0.00          2.57080
              P 16 -- In 6                   0.64         0.00          2.57080
              P 16 -- In 31                  0.63        -0.00          2.57153
              P 20 -- In 3                   0.56         0.00          2.60952
              P 11 -- In 33                  0.32         0.00          2.63953
              P 5  -- In 33                  0.32         0.00          2.63954
              P 2  -- In 33                  0.32         0.00          2.63954
             In 1  -- In 33                 -0.54         0.00          2.78535
             In 2  -- In 33                 -0.54         0.00          2.78536
             In 4  -- In 33                 -0.54         0.00          2.78536
              P 11 -- In 2                   0.31        -0.00          2.81348
              P 5  -- In 4                   0.31        -0.00          2.81348
              P 11 -- In 1                   0.30         0.00          2.81348
              P 5  -- In 1                   0.30         0.00          2.81348
              P 2  -- In 4                   0.30         0.00          2.81348
              P 2  -- In 2                   0.30         0.00          2.81348
================================================================================

 Hirshfeld supercell size:           2           2           2
Standard grid dimensions: 240 240 240
Fine grid dimensions:     240 240 240


     Hirshfeld Analysis
     ------------------
Species   Ion     Hirshfeld Charge (e)  Spin (hbar/2)
===================================================
  P        1                -0.23       -0.00
  P        2                -0.24       -0.00
  P        3                -0.23       -0.00
  P        4                -0.24        0.00
  P        5                -0.24       -0.00
  P        6                -0.24        0.00
  P        7                -0.24        0.00
  P        8                -0.23       -0.00
  P        9                -0.24        0.00
  P       10                -0.24        0.00
  P       11                -0.24       -0.00
  P       12                -0.23       -0.00
  P       13                -0.24        0.00
  P       14                -0.24       -0.00
  P       15                -0.24        0.00
  P       16                -0.24       -0.00
  P       17                -0.24        0.00
  P       18                -0.23       -0.00
  P       19                -0.24        0.00
  P       20                -0.24       -0.00
  P       21                -0.24        0.00
  P       22                -0.24        0.00
  P       23                -0.24       -0.00
  P       24                -0.24        0.00
  P       25                -0.24       -0.00
  P       26                -0.24        0.00
  P       27                -0.24        0.00
  P       28                -0.24        0.00
  P       29                -0.24       -0.00
  P       30                -0.24       -0.00
  P       31                -0.24       -0.00
  P       32                -0.23       -0.00
  In       1                 0.24       -0.00
  In       2                 0.24       -0.00
  In       3                 0.23       -0.00
  In       4                 0.24       -0.00
  In       5                 0.24        0.00
  In       6                 0.23        0.00
  In       7                 0.23        0.00
  In       8                 0.24        0.00
  In       9                 0.24        0.00
  In      10                 0.24        0.00
  In      11                 0.23        0.00
  In      12                 0.23        0.00
  In      13                 0.23       -0.00
  In      14                 0.23        0.00
  In      15                 0.24       -0.00
  In      16                 0.23        0.00
  In      17                 0.23        0.00
  In      18                 0.24        0.00
  In      19                 0.23        0.00
  In      20                 0.24        0.00
  In      21                 0.23        0.00
  In      22                 0.23        0.00
  In      23                 0.24       -0.00
  In      24                 0.23       -0.00
  In      25                 0.23        0.00
  In      26                 0.23       -0.00
  In      27                 0.24       -0.00
  In      28                 0.23        0.00
  In      29                 0.24       -0.00
  In      30                 0.24       -0.00
  In      31                 0.24       -0.00
  In      32                 0.24       -0.00
  In      33                 0.07       -0.00
===================================================

 
 A BibTeX formatted list of references used in this run has been written to 
 In_Interstitial_Migration_Tetra_Octa_Singlepoints_3.bib
 
Initialisation time =     30.37 s
Calculation time    =   8543.92 s
Finalisation time   =    151.72 s
Total time          =   8726.01 s
Peak Memory Use     = 9690004 kB
 
Overall parallel efficiency rating: Poor (35%)
 
Data was distributed by:-
G-vector (3-way); efficiency rating: Poor (38%)
k-point (36-way); efficiency rating: Very good (81%)
