96
Lattice="14.45404925834546 20.441112492360922 0.0 14.45404925834546 -20.441112492360922 0.0 -2.220446049250313e-16 0.0 4.1725246150929305" Properties=species:S:1:pos:R:3 core_positions="_JSON [[7.227024629172732, 0.0, 2.0862623075464652], [21.68107388751819, 0.0, 2.0862623075464652]]" burgers_vectors="_JSON [[-0.9834734833333334, 1.9669469666666668, -0.9834734833333334], [0.9834734833333334, -1.9669469666666668, 0.9834734833333334]]" dislocation_types="_JSON [\"1/6<112> 30 degree partial\", \"1/6<112> 30 degree partial\"]" dislocation_classes="_JSON [\"<class 'matscipy.dislocation.DiamondGlide30degreePartial'>\", \"<class 'matscipy.dislocation.DiamondGlide30degreePartial'>\"]" energy=-332.0385123789526 pbc="T T T"
In       9.70367363      -2.94806421       4.11043068
P        9.65359805      -0.35134775       4.14089781
In       6.04922555      -2.99736108       2.02933530
P        5.96926330      -0.45028869       2.03819918
In       8.31863353       0.41056895       2.06871588
P        8.47103131       2.94993446       2.04335584
In      11.41888188       0.81542865       1.48655166
P       12.00462318       2.90876538      -0.01601878
In       7.24529318       3.81189787      -0.04639182
P        7.25346246       6.36353116      -0.05135964
In      10.82694793       3.91964804       2.07996773
P       10.85731158       6.43159047       2.04130154
In       9.64673788       7.25754316      -0.04611243
P        9.66416162       9.79633481      -0.05482893
In       6.04128763       7.20489079       2.03412878
P       20.50558242     -10.68698720       2.02878830
In       8.45712044      10.61481884       2.03088374
P       22.93500771      -7.28699931       2.02590842
In      12.06647674      10.66507404      -0.05733938
P       12.08106750      13.21256992      -0.05912570
In      21.73057159      -6.46729729       4.11165669
P       21.77545689      -3.93622362       4.10787192
In      10.87368820      14.04953391       2.02696206
P       25.34467249      -3.83968586       2.02553204
In      16.97853563      -3.00615739       4.09993314
P       17.10997252      -0.43872657       4.08722981
In      13.35120978      -2.97101137       2.01020738
P       13.54317730      -0.40276047       1.97372939
In      14.76685466       0.47090799       4.05997884
P       15.58890213       2.97810156       2.01473731
In      18.36137314       0.46085086       2.00228557
P       19.15116268       3.02924891      -0.06870721
In      14.42029318       3.88170242      -0.06396549
P       14.44545431       6.42373399      -0.05759165
In      17.98497249       3.90326534       2.01800225
P       18.04094697       6.44072897       2.02428478
In      16.85113693       7.29071739      -0.06146123
P       16.88329050       9.83660575      -0.05970491
In      13.25870625       7.28905411       2.02967185
P       13.27587564       9.83186886       2.02882020
In      15.68233724      10.67982452       2.02676575
P       15.69321947      13.22534142       2.02711224
In      19.30274850      10.65938035      -0.06016678
P       19.32053310      13.21495640      -0.05942813
In      14.48641991      14.06703266      -0.05910245
P       14.48579235      16.61629198      -0.05871537
In      18.10656240      14.05439018       2.02700198
P        3.64281849      -3.83846702       2.02882608
In      24.14474604      -2.99188259       4.11150654
P       24.16294938      -0.43317150       4.11153472
In      20.57019578      -3.06890705       2.02083041
P       20.62859329      -0.57881368       2.01591422
In      22.91705225       0.41159052       2.02507420
P       22.87092053       2.97975128       2.02320790
In      26.54226468       0.43656099       4.11402045
P       26.50147659       2.98935291      -0.05940151
In      21.61453663       3.78731387      -0.06348218
P       21.66136048       6.36222036      -0.06157850
In      25.28202898       3.83317863       2.02648938
P       10.83463644     -14.05451783       2.02596706
In       9.62083920     -13.21408831       4.11206274
P        9.64839475     -10.65210307       4.11185933
In      20.47033721       7.23952361       2.02475260
P       20.50183645       9.79911299       2.02596390
In       8.45631778      -9.78540740       2.02562217
P        8.47982336      -7.22522345       2.02569840
In      12.05889288      -9.79483925       4.11153172
P       12.08385818      -7.23394606       4.10916456
In       7.27771531      -6.37112445       4.11227273
P        7.28579764      -3.81224372       4.11478517
In      10.88940267      -6.36315060       2.02285674
P       10.91169575      -3.79813534       2.01976335
In       2.43811382      -2.98379740       4.11521678
P        2.39710946      -0.43129907      -0.05474185
In      13.28736603      17.46801339       2.02744946
P       27.72931931      -0.41995015       2.02800864
In       1.21549332       0.42776747       2.03118142
P       15.66607954     -17.46055855       2.03023578
In       4.78869451       0.41136456      -0.04872554
P        4.83390342       2.96380850      -0.05158121
In      14.45837183     -16.60804432       4.11604122
P       14.45716996     -14.05682856       4.11411561
In       3.62565693       3.81703177       2.03404413
P       18.08232587     -14.07378521       2.03087397
In      16.87342163     -13.22736826       4.11654271
P       16.88121747     -10.67730783       4.11260168
In      13.24716308     -13.20797843       2.02747377
P       13.25979111     -10.65363948       2.02548177
In      15.67652317      -9.82728211       2.02582918
P       15.69681388      -7.27686901       2.02084717
In      19.29661477      -9.84957734       4.11440171
P       19.31708642      -7.30373955       4.10887056
In      14.50544672      -6.40862982       4.10655367
P       14.54612835      -3.85628143       4.09807789
In      18.11447071      -6.45623083       2.02189390
P       18.15270296      -3.91462550       2.01501881
96
Lattice="14.45404925834546 20.441112492360922 0.0 14.45404925834546 -20.441112492360922 0.0 -2.220446049250313e-16 0.0 4.1725246150929305" Properties=species:S:1:pos:R:3 core_positions="_JSON [[7.227024629172732, 0.0, 2.0862623075464652], [21.68107388751819, 0.0, 2.0862623075464652]]" burgers_vectors="_JSON [[-0.9834734833333334, 1.9669469666666668, -0.9834734833333334], [0.9834734833333334, -1.9669469666666668, 0.9834734833333334]]" dislocation_types="_JSON [\"1/6<112> 30 degree partial\", \"1/6<112> 30 degree partial\"]" dislocation_classes="_JSON [\"<class 'matscipy.dislocation.DiamondGlide30degreePartial'>\", \"<class 'matscipy.dislocation.DiamondGlide30degreePartial'>\"]" energy=-331.79388033059683 pbc="T T T"
In       9.73376049      -2.92590579       3.94541366
P        9.67810271      -0.32842953       3.96723634
In       6.07915394      -2.97633033       1.98429088
P        5.98478338      -0.42871295       2.00276312
In       8.32831214       0.45173819       1.92241098
P        8.38383786       2.99136941       2.07654398
In      11.49730328       0.75381371       1.24609811
P       11.89966548       3.05749139       0.23064748
In       7.17779477       3.84676375      -0.01133390
P        7.20240455       6.39543559       0.00065689
In      10.72299694       3.97989680       2.30094035
P       10.79723899       6.49204433       2.20190450
In       9.59038998       7.30055529       0.10144525
P        9.64515135       9.83044044       0.00663887
In       5.99221603       7.22822798       2.07953512
P       20.48503943     -10.66938368       2.01276475
In       8.43693932      10.63318166       2.08047987
P       22.94960556      -7.27748962       1.98230651
In      12.05158871      10.69061542       0.07286635
P       12.09674668      13.23296910      -0.00466597
In      21.74326694      -6.47293754       4.05473671
P       21.81882303      -3.95161507       3.95783712
In      10.88747978      14.06222949       2.07276680
P       25.37840651      -3.83066377       2.05274805
In      17.04536707      -2.99451305       3.74338405
P       17.28164549      -0.45349363       3.33464654
In      13.42746676      -2.94188350       1.65239937
P       13.71233749      -0.38370754       1.25377666
In      14.96756606       0.52607892       3.28628731
P       15.46453927       3.01790888       2.51380746
In      18.55992375       0.47201252       1.18264583
P       19.07539637       2.99749771       0.44372062
In      14.30699348       3.93770389       0.40139803
P       14.39743290       6.47138976       0.21803641
In      17.89415781       3.88507197       2.52001121
P       17.99707532       6.43004771       2.31942681
In      16.81476344       7.30130810       0.22370021
P       16.87586624       9.84738013       0.10501681
In      13.20698355       7.32752314       2.28841280
P       13.26164631       9.86431646       2.17047146
In      15.67549444      10.69497782       2.18443417
P       15.71193714      13.23997667       2.11124090
In      19.29575764      10.67100654       0.06094433
P       19.33842256      13.22758541      -0.00339486
In      14.50486948      14.08062950       0.02086983
P       14.51735933      16.62851737      -0.00287530
In      18.12596215      14.06980330       2.08290438
P        3.67416792      -3.82257577       2.05268171
In      24.17709581      -2.98488982       4.13502411
P       24.21718062      -0.43028702       4.23153909
In      20.61989521      -3.09171792       1.85189757
P       20.75321181      -0.61592450       1.64975879
In      22.97037248       0.41165037       2.16052101
P       22.83412447       2.97956189       2.27292960
In      26.57950525       0.44931461       4.20932307
P       26.47137821       2.99999101       0.07554526
In      21.55896165       3.77708109       0.20994113
P       21.61779723       6.35731355       0.14026715
In      25.24338466       3.84087613       2.17045859
P       10.79276268     -14.04681023       2.14205795
In       9.57733122     -13.20732965       4.23088455
P        9.63030411     -10.64210035       4.17040249
In      20.42814775       7.23858085       2.22778545
P       20.48922532       9.80307653       2.14878801
In       8.44388272      -9.76981341       2.08410037
P        8.49893958      -7.20518374       2.01858941
In      12.04034513      -9.77612454       4.10647217
P       12.09720210      -7.21217985       4.02214177
In       7.29495356      -6.35353826       4.10649311
P        7.31840798      -3.79390700       4.06234966
In      10.90989446      -6.33017755       1.93499736
P       10.96614569      -3.75584328       1.84490000
In       2.46773816      -2.96927909       4.14248643
P        2.41401506      -0.41762372      -0.01777038
In      13.31869473      17.47896871       2.08356534
P       27.75798334      -0.40995398       2.11739280
In       1.23478736       0.44279739       2.07417628
P       15.63004721     -17.44662813       2.09650095
In       4.79917609       0.43139304      -0.07491799
P        4.78261742       2.98305108      -0.02484775
In      14.42306820     -16.59326776       4.18722897
P       14.41482125     -14.04334090       4.16765607
In       3.58146282       3.83552015       2.06406754
P       18.03754563     -14.05714036       2.05630866
In      16.82977708     -13.21456892       4.13954920
P       16.85908004     -10.66796920       4.07411181
In      13.20396678     -13.19557710       2.08191904
P       13.23694714     -10.64094341       2.02215837
In      15.65609928      -9.81963010       1.98115810
P       15.70792662      -7.27325729       1.86556583
In      19.27495654      -9.84136553       4.08804636
P       19.32833675      -7.30272711       3.97169726
In      14.52459768      -6.39579742       3.94196300
P       14.61105707      -3.84709302       3.75202593
In      18.12708485      -6.45676159       1.86967508
P       18.20565161      -3.92386918       1.68636888
96
Lattice="14.45404925834546 20.441112492360922 0.0 14.45404925834546 -20.441112492360922 0.0 -2.220446049250313e-16 0.0 4.1725246150929305" Properties=species:S:1:pos:R:3 core_positions="_JSON [[7.227024629172732, 0.0, 2.0862623075464652], [21.68107388751819, 0.0, 2.0862623075464652]]" burgers_vectors="_JSON [[-0.9834734833333334, 1.9669469666666668, -0.9834734833333334], [0.9834734833333334, -1.9669469666666668, 0.9834734833333334]]" dislocation_types="_JSON [\"1/6<112> 30 degree partial\", \"1/6<112> 30 degree partial\"]" dislocation_classes="_JSON [\"<class 'matscipy.dislocation.DiamondGlide30degreePartial'>\", \"<class 'matscipy.dislocation.DiamondGlide30degreePartial'>\"]" energy=-331.61613668468794 pbc="T T T"
In       9.75010348      -2.92293574       3.93099658
P        9.69445528      -0.32584290       3.95520578
In       6.09459324      -2.96978522       1.98027164
P        5.99795515      -0.42189436       2.00156128
In       8.34228436       0.45950847       1.91302675
P        8.37352135       2.99912832       2.08257737
In      11.52808852       0.74150629       1.22218486
P       11.89034074       3.06517737       0.25422126
In       7.16807204       3.85389964      -0.00511671
P        7.19315577       6.40201600       0.00271561
In      10.71277362       3.98237431       2.32189524
P       10.78978702       6.49466304       2.20972092
In       9.58228278       7.30306533       0.10773245
P        9.64315486       9.83209870      -0.00349975
In       5.98208824       7.23431313       2.08089830
P       20.48078025     -10.66344805       2.00271594
In       8.43369698      10.63647029       2.06850099
P       22.95415720      -7.27502406       1.94339670
In      12.05394286      10.68056923       0.07141257
P       12.10890633      13.22004132      -0.01676548
In      21.74807577      -6.46206931       4.01201325
P       21.83183970      -3.94238619       3.85431922
In      10.89886042      14.04515018       2.05954954
P       25.40095145      -3.85130895       2.05414165
In      17.06671654      -2.98431623       3.68935544
P       17.33164864      -0.44299156       3.25002725
In      13.44953252      -2.94273882       1.62035730
P       13.74996130      -0.38644556       1.20500679
In      15.00736905       0.52122162       3.23607008
P       15.44971838       3.02374582       2.54601580
In      18.58113404       0.48005496       1.11094755
P       19.04695301       3.00938555       0.49957243
In      14.29484010       3.94099398       0.43140269
P       14.39223876       6.47264685       0.23470011
In      17.87267368       3.90037390       2.57069696
P       17.98811059       6.44295124       2.35181287
In      16.80620381       7.31115353       0.25355929
P       16.87781733       9.85529187       0.11575394
In      13.20117623       7.32462375       2.30343060
P       13.26482287       9.85909134       2.17049710
In      15.67646914      10.69830779       2.19346113
P       15.72222522      13.24216964       2.10944931
In      19.29604489      10.68587813       0.07941672
P       19.34751470      13.23997888       0.00062667
In      14.51401874      14.07855509       0.01809645
P       14.53403077      16.62635085      -0.00314453
In      18.13470763      14.07869973       2.08607750
P        3.68886379      -3.81449456       2.05227343
In      24.19616016      -2.99597343       4.13948808
P       24.20756018      -0.45556076       4.41121326
In      20.63537290      -3.05275690       1.74092171
P       20.82091138      -0.60607881       1.19201926
In      22.76990811       0.38976314       2.46978167
P       22.76143151       2.97667112       2.42173796
In      26.55941985       0.43537550       4.25034251
P       26.44542938       2.98825999       0.12046931
In      21.51770354       3.80728000       0.34585948
P       21.60175562       6.37953178       0.19977673
In      25.19523250       3.80920269       2.22170520
P       10.77406248     -14.06823122       2.16938305
In       9.56898755     -13.20978220       4.25861111
P        9.63417808     -10.64311445       4.18185162
In      20.41578147       7.26164817       2.28252249
P       20.48939370       9.82177032       2.16923848
In       8.44916910      -9.76500889       2.09513332
P        8.51154649      -7.20007934       2.01918057
In      12.04417609      -9.77711052       4.10885530
P       12.11031955      -7.21182928       4.01494898
In       7.30666446      -6.34768858       4.10692555
P        7.33429332      -3.78811907       4.05777570
In      10.92362359      -6.32715425       1.92775119
P       10.98573253      -3.75168524       1.82945092
In       2.48173251      -2.96422090       4.14230406
P        2.42353062      -0.41298981      -0.00997461
In      13.33419608      17.47336857       2.08442812
P       27.76325974      -0.41591669       2.15176756
In       1.23831052       0.44393017       2.08385421
P       15.61771765     -17.44598722       2.11125502
In       4.80878037       0.43695214      -0.07502225
P        4.77448130       2.98838839      -0.01903122
In      14.40025794     -16.60013873       4.20380325
P       14.40201960     -14.04932274       4.17864603
In       3.56991797       3.83860450       2.07041495
P       18.02772020     -14.05403383       2.06007784
In      16.81726457     -13.21440226       4.14335210
P       16.85649668     -10.66704349       4.07003586
In      13.18703950     -13.20761798       2.09332485
P       13.23557157     -10.64880503       2.02470983
In      15.65463239      -9.81906483       1.97704075
P       15.71983517      -7.27085678       1.84868066
In      19.27129134      -9.83360872       4.07721565
P       19.33412280      -7.29457123       3.94144416
In      14.53796117      -6.39324651       3.92511025
P       14.63418695      -3.84480169       3.71893961
In      18.13800277      -6.44234262       1.83882438
P       18.22578443      -3.90801730       1.62961909
96
Lattice="14.45404925834546 20.441112492360922 0.0 14.45404925834546 -20.441112492360922 0.0 -2.220446049250313e-16 0.0 4.1725246150929305" Properties=species:S:1:pos:R:3 core_positions="_JSON [[7.227024629172732, 0.0, 2.0862623075464652], [21.68107388751819, 0.0, 2.0862623075464652]]" burgers_vectors="_JSON [[-0.9834734833333334, 1.9669469666666668, -0.9834734833333334], [0.9834734833333334, -1.9669469666666668, 0.9834734833333334]]" dislocation_types="_JSON [\"1/6<112> 30 degree partial\", \"1/6<112> 30 degree partial\"]" dislocation_classes="_JSON [\"<class 'matscipy.dislocation.DiamondGlide30degreePartial'>\", \"<class 'matscipy.dislocation.DiamondGlide30degreePartial'>\"]" energy=-331.50646087608567 pbc="T T T"
In       9.75377246      -2.92259006       3.92815619
P        9.69914412      -0.32536220       3.95197068
In       6.09856839      -2.96864810       1.97904955
P        6.00297464      -0.42071091       2.00054028
In       8.34664891       0.46113414       1.91044788
P        8.37239883       3.00059164       2.08442018
In      11.53349691       0.73856855       1.22032121
P       11.88912012       3.06539330       0.25948872
In       7.16749986       3.85587106      -0.00317088
P        7.19166888       6.40377357       0.00440490
In      10.71170728       3.98233505       2.32671515
P       10.78857418       6.49469624       2.21213625
In       9.58092576       7.30354800       0.10990314
P        9.64225821       9.83254089      -0.00422092
In       5.98070897       7.23645198       2.08248638
P       20.47953168     -10.66140260       2.00261912
In       8.43217921      10.63810036       2.06745944
P       22.95383302      -7.27315408       1.93706869
In      12.05554969      10.67320583       0.07039843
P       12.11390736      13.20983209      -0.02337690
In      21.74815968      -6.45475712       4.00497307
P       21.83467516      -3.93359310       3.82994410
In      10.90443843      14.02890332       2.05225334
P       25.41699386      -3.87517630       2.03255255
In      17.07230986      -2.98342628       3.68189259
P       17.34200233      -0.44215941       3.24461526
In      13.45397953      -2.94396059       1.61683681
P       13.75649237      -0.38809294       1.20200397
In      15.01391475       0.51790729       3.23337870
P       15.44819704       3.02175981       2.55086291
In      18.57545874       0.48478839       1.10836296
P       19.04359436       3.01065047       0.50695010
In      14.29346410       3.93909802       0.43597841
P       14.39193105       6.47039842       0.23723798
In      17.86807712       3.90302220       2.57725475
P       17.98690909       6.44499965       2.35573269
In      16.80458504       7.31227664       0.25717440
P       16.87833026       9.85591316       0.11650923
In      13.20090454       7.32134696       2.30579921
P       13.26635224       9.85471005       2.16969491
In      15.67675611      10.69763814       2.19396130
P       15.72492931      13.24098495       2.10680552
In      19.29545226      10.68984938       0.08186655
P       19.34901647      13.24282797       0.00054939
In      14.51640124      14.07600199       0.01493925
P       14.54141443      16.62332302      -0.01147889
In      18.13638103      14.08028806       2.08572944
P        3.69315051      -3.81334050       2.04996178
In      24.21470861      -3.01908230       4.11323772
P       24.24966611      -0.50389244       4.36806116
In      20.64459507      -3.03410840       1.71273440
P       20.83800740      -0.57275397       1.14864668
In      22.57151447       0.42052559       2.70861993
P       22.73016608       2.98661125       2.46159835
In      26.57013956       0.42807905       4.23140515
P       26.44378380       2.98465374       0.11980512
In      21.50299297       3.83270959       0.37932081
P       21.59765851       6.39415607       0.20955995
In      25.18312799       3.79505638       2.22409741
P       10.77041648     -14.07645809       2.17167949
In       9.56897162     -13.21042686       4.26125716
P        9.63572415     -10.64351786       4.18341563
In      20.41206078       7.27143689       2.29135113
P       20.48865072       9.82850505       2.17198847
In       8.45029478      -9.76437856       2.09667946
P        8.51381592      -7.19940461       2.01929695
In      12.04524606      -9.77739500       4.10957639
P       12.11283617      -7.21201855       4.01407611
In       7.30876629      -6.34681774       4.10697491
P        7.33796959      -3.78724750       4.05656350
In      10.92599423      -6.32705439       1.92678553
P       10.98964174      -3.75151347       1.82662300
In       2.48682697      -2.96318778       4.13958623
P        2.43200313      -0.41206485      -0.01337224
In      13.34218515      17.46954671       2.07495192
P       27.78237924      -0.41946110       2.13622162
In       1.25004668       0.44603942       2.07992812
P       15.61843793     -17.44443538       2.11149796
In       4.81519312       0.43875346      -0.07601392
P        4.77455399       2.98999513      -0.01778948
In      14.39812091     -16.60043810       4.20419185
P       14.40052026     -14.04964521       4.17996640
In       3.57005780       3.84072622       2.07169377
P       18.02663262     -14.05225857       2.06157972
In      16.81560164     -13.21321751       4.14482283
P       16.85619058     -10.66577432       4.07065831
In      13.18360347     -13.21096362       2.09467837
P       13.23533346     -10.65069772       2.02549350
In      15.65445932      -9.81820611       1.97762817
P       15.72302937      -7.26917872       1.84733174
In      19.27063998      -9.83036856       4.07701211
P       19.33542107      -7.29090430       3.93827916
In      14.54045733      -6.39305323       3.92375942
P       14.63970218      -3.84487547       3.71521525
In      18.14125956      -6.43652020       1.83575846
P       18.23523659      -3.90061984       1.62098052
96
Lattice="14.45404925834546 20.441112492360922 0.0 14.45404925834546 -20.441112492360922 0.0 -2.220446049250313e-16 0.0 4.1725246150929305" Properties=species:S:1:pos:R:3 core_positions="_JSON [[7.227024629172732, 0.0, 2.0862623075464652], [21.68107388751819, 0.0, 2.0862623075464652]]" burgers_vectors="_JSON [[-0.9834734833333334, 1.9669469666666668, -0.9834734833333334], [0.9834734833333334, -1.9669469666666668, 0.9834734833333334]]" dislocation_types="_JSON [\"1/6<112> 30 degree partial\", \"1/6<112> 30 degree partial\"]" dislocation_classes="_JSON [\"<class 'matscipy.dislocation.DiamondGlide30degreePartial'>\", \"<class 'matscipy.dislocation.DiamondGlide30degreePartial'>\"]" energy=-331.45241742960746 pbc="T T T"
In       9.75893678      -2.92199529       3.92193172
P        9.70607197      -0.32439692       3.94389502
In       6.10331673      -2.96654925       1.97750943
P        6.00840958      -0.41850061       1.99969558
In       8.35154208       0.46388948       1.90416360
P        8.36994996       3.00302475       2.08819450
In      11.54019774       0.73341265       1.21688369
P       11.88687916       3.06602392       0.26986855
In       7.16562198       3.85898570       0.00086191
P        7.18918024       6.40661955       0.00821163
In      10.70960783       3.98238632       2.33634964
P       10.78652578       6.49496819       2.21740300
In       9.57879364       7.30467022       0.11478001
P        9.64105179       9.83373260      -0.00386701
In       5.97835141       7.23966152       2.08612553
P       20.47794296     -10.65830954       2.00348162
In       8.43038737      10.64114526       2.06737263
P       22.95337903      -7.26941127       1.93032032
In      12.05678587      10.66703604       0.07013811
P       12.11851596      13.20145423      -0.03093339
In      21.74809494      -6.44448033       3.99740232
P       21.83747395      -3.92019449       3.80440040
In      10.90948881      14.01615318       2.04385651
P       25.43036882      -3.89312476       2.00776424
In      17.07939216      -2.98256577       3.67396299
P       17.35585694      -0.44147568       3.24210891
In      13.46015022      -2.94593012       1.61159616
P       13.76517580      -0.39057797       1.19882605
In      15.02278313       0.51361053       3.23088561
P       15.44543792       3.01961860       2.55891652
In      18.57294554       0.49213149       1.10739575
P       19.03683828       3.01283701       0.51579414
In      14.29106071       3.93710901       0.44384162
P       14.39090646       6.46818084       0.24211735
In      17.86179439       3.90672031       2.58533515
P       17.98465886       6.44767493       2.36141484
In      16.80227398       7.31391300       0.26259849
P       16.87861022       9.85702462       0.11838826
In      13.19986326       7.31835021       2.31045214
P       13.26756388       9.85081746       2.16977201
In      15.67686676      10.69748387       2.19552586
P       15.72782876      13.24043336       2.10438186
In      19.29504215      10.69335826       0.08561533
P       19.35108122      13.24570179       0.00116611
In      14.51892147      14.07414408       0.01190002
P       14.54836500      16.62120154      -0.01993172
In      18.13851721      14.08229284       2.08602613
P        3.69805047      -3.81157617       2.04803532
In      24.22994252      -3.03653177       4.08476401
P       24.27529675      -0.53583717       4.31402526
In      20.65733250      -3.00952003       1.68209301
P       20.86641251      -0.52045709       1.12000329
In      22.39451281       0.42137374       2.92385213
P       22.70178017       2.98132441       2.50004686
In      26.57626748       0.42369699       4.21764447
P       26.44209406       2.98224960       0.12255306
In      21.49015556       3.84419452       0.41291647
P       21.59375553       6.40109018       0.22089248
In      25.16882231       3.77969794       2.23014027
P       10.76497182     -14.08537542       2.17624992
In       9.56739102     -13.21203098       4.26602872
P        9.63642921     -10.64447880       4.18629527
In      20.40867104       7.27770471       2.30170591
P       20.48810181       9.83322529       2.17609764
In       8.45103834      -9.76361308       2.09948491
P        8.51636538      -7.19844160       2.01972365
In      12.04574580      -9.77804726       4.11104740
P       12.11579238      -7.21254749       4.01225540
In       7.31133789      -6.34516670       4.10733908
P        7.34274349      -3.78542878       4.05483456
In      10.92891510      -6.32705259       1.92473875
P       10.99504618      -3.75141256       1.82055824
In       2.49205419      -2.96183850       4.13729066
P        2.43938016      -0.41080775      -0.01553294
In      13.34954029      17.46669826       2.06536083
P       27.79619204      -0.42180689       2.12366951
In       1.25920450       0.44790716       2.07744459
P       15.61828412     -17.44290634       2.11390739
In       4.82100906       0.44123581      -0.07653549
P        4.77358264       2.99229891      -0.01447277
In      14.39552788     -16.60031255       4.20680845
P       14.39821843     -14.04961595       4.18321272
In       3.56913824       3.84327616       2.07510468
P       18.02465062     -14.04996235       2.06499112
In      16.81307566     -13.21148464       4.14814698
P       16.85564150     -10.66403531       4.07207535
In      13.17882031     -13.21459631       2.09795254
P       13.23469284     -10.65271483       2.02711383
In      15.65402432      -9.81700362       1.97889691
P       15.72709836      -7.26706480       1.84531460
In      19.26966176      -9.82601565       4.07768926
P       19.33702764      -7.28607444       3.93499777
In      14.54347434      -6.39318903       3.92166136
P       14.64698855      -3.84542018       3.70987248
In      18.14536004      -6.42896492       1.83250406
P       18.24799609      -3.89069787       1.61162955
96