96
Lattice="14.45404925834546 20.441112492360922 0.0 14.45404925834546 -20.441112492360922 0.0 -2.220446049250313e-16 0.0 4.1725246150929305" Properties=species:S:1:pos:R:3 core_positions="_JSON [[7.227024629172732, 0.0, 2.0862623075464652], [21.68107388751819, 0.0, 2.0862623075464652]]" burgers_vectors="_JSON [[-0.9834734833333334, -0.9834734833333334, 1.9669469666666668], [0.9834734833333334, 0.9834734833333334, -1.9669469666666668]]" dislocation_types="_JSON [\"1/6<112> 90 degree partial\", \"1/6<112> 90 degree partial\"]" dislocation_classes="_JSON [\"<class 'matscipy.dislocation.DiamondGlide90degreePartial'>\", \"<class 'matscipy.dislocation.DiamondGlide90degreePartial'>\"]" energy=-330.57816043585495 pbc="T T T"
In       9.54819636      -3.06679373       0.00000489
P        9.82109174      -0.58164079       0.00000958
In       5.95353296      -3.03867733       2.08626487
P        5.69221462      -0.55410615       2.08626579
In      10.66066158       0.51348212       2.08627207
P        8.53333518       3.14838949       2.08625897
In      14.18593015       0.48801372       0.00000818
P       12.06527683       3.01582915      -0.00000888
In       7.23593998       3.78783659      -0.00000305
P        7.17846167       6.37511472      -0.00000241
In      10.90481501       3.95179902       2.08625381
P       10.83522055       6.47937205       2.08625749
In       9.58315293       7.25886573      -0.00000441
P        9.56995232       9.81014223      -0.00000121
In       5.96388230       7.21675679       2.08626012
P       20.40904752     -10.66230050       2.08626089
In       8.36124129      10.63666232       2.08626081
P       22.82275404      -7.25672631       2.08626306
In      11.97250995      10.68601330      -0.00000156
P       11.97912441      13.23222931       0.00000034
In      21.61700061      -6.42748378       0.00000016
P       21.64119161      -3.88421845       0.00000113
In      10.77155177      14.05749370       2.08626535
P       25.24742895      -3.83631152       2.08625981
In      16.76408262      -2.97333243       0.00000455
P       16.79292564      -0.34056965      -0.00000451
In      13.10745491      -2.98181334       2.08626858
P       13.12067795      -0.40311132       2.08627148
In      17.09826385       0.98968240       2.08627207
P       15.62443232       3.01476059       2.08625567
In      19.42814599       0.30364266      -0.00000287
P       19.06248008       2.84156618      -0.00000122
In      14.42779007       3.95507081      -0.00000672
P       14.41441004       6.48506237      -0.00000581
In      18.03206135       3.98884631       2.08626087
P       18.00874777       6.48352558       2.08625875
In      16.81275969       7.33319037      -0.00000324
P       16.79636080       9.86555805      -0.00000324
In      13.22224027       7.34092156       2.08625646
P       13.19126255       9.87379658       2.08626021
In      15.59645503      10.70615589       2.08625834
P       15.58579289      13.24336054       2.08626250
In      19.21894938      10.64547151      -0.00000130
P       19.20179617      13.18552183      -0.00000169
In      14.38760218      14.08778993       0.00000096
P       14.40188130      16.63734014      -0.00000155
In      18.00302189      14.04135859       2.08625982
P        3.53399082      -3.86078803       2.08626416
In      24.04180174      -3.00726358       0.00000316
P       24.04780077      -0.45631186      -0.00000859
In      20.44061541      -3.06799018       2.08626476
P       20.46708470      -0.51159839       2.08626660
In      22.86258002       0.37451449       2.08627107
P       22.75939309       2.92652963       2.08625993
In      26.44216183       0.41359763       0.00000469
P       11.95030655     -17.47806643      -0.00000262
In      21.54252792       3.76540981      -0.00000200
P       21.57464094       6.32732415      -0.00000215
In      25.17972482       3.79114608       2.08626246
P       10.74960468     -14.09998595       2.08626028
In       9.54149670     -13.26756383      -0.00000050
P        9.56670698     -10.71365022       0.00000028
In      20.42802534       7.25283349       2.08626134
P       20.42002029       9.79158361       2.08626073
In       8.37954492      -9.85125617       2.08626227
P        8.36591483      -7.31181718       2.08626383
In      11.97650083      -9.86066360       0.00000107
P       11.97987397      -7.31272521       0.00000404
In       7.16582497      -6.46144895       0.00000102
P        7.13788290      -3.92644796       0.00000314
In      10.77344462      -6.48273924       2.08626660
P       10.73961487      -3.95260489       2.08626737
In      16.81786494      17.48288838       0.00000234
P        2.31793037      -0.39845900      -0.00000059
In      13.19669699      17.47187727       2.08626719
P       27.64224367      -0.41894213       2.08625810
In       1.13583696       0.44051938       2.08626261
P       15.58263375     -17.44890573       2.08626188
In       4.75350062       0.43848442      -0.00000079
P        4.76202734       3.01117816      -0.00000077
In      14.36421647     -16.61938394       0.00000015
P       14.37573750     -14.07059115      -0.00000162
In       3.54341513       3.84639673       2.08626111
P       17.99577753     -14.04551743       2.08626009
In      16.78462951     -13.20728507      -0.00000246
P       16.78848902     -10.65374751      -0.00000153
In      13.16238158     -13.24124140       2.08626006
P       13.18149665     -10.69091918       2.08626327
In      15.58140390      -9.80891084       2.08626117
P       15.58129268      -7.25078641       2.08626422
In      19.19897640      -9.80934205      -0.00000131
P       19.19764362      -7.24971454       0.00000242
In      14.36950202      -6.40507786       0.00000224
P       14.35031129      -3.84605030       0.00000598
In      17.98791422      -6.39198958       2.08626450
P       17.99661308      -3.82803422       2.08626582
96
Lattice="14.45404925834546 20.441112492360922 0.0 14.45404925834546 -20.441112492360922 0.0 -2.220446049250313e-16 0.0 4.1725246150929305" Properties=species:S:1:pos:R:3 core_positions="_JSON [[7.227024629172732, 0.0, 2.0862623075464652], [21.68107388751819, 0.0, 2.0862623075464652]]" burgers_vectors="_JSON [[-0.9834734833333334, -0.9834734833333334, 1.9669469666666668], [0.9834734833333334, 0.9834734833333334, -1.9669469666666668]]" dislocation_types="_JSON [\"1/6<112> 90 degree partial\", \"1/6<112> 90 degree partial\"]" dislocation_classes="_JSON [\"<class 'matscipy.dislocation.DiamondGlide90degreePartial'>\", \"<class 'matscipy.dislocation.DiamondGlide90degreePartial'>\"]" energy=-331.68020263440496 pbc="T T T"
In       8.95672651      -2.79710040      -0.00026881
P        8.56986304      -0.25212345      -0.00010136
In       5.34321414      -2.79710117       2.08599350
P        4.95635058      -0.25212408       2.08616095
In       9.73759210       0.64098291       2.08617100
P        9.31733615       3.18220577       2.08636901
In      13.35110514       0.64098297      -0.00009135
P       12.93084918       3.18220576       0.00010666
In       8.08851556       4.05673251       0.00012141
P        7.72551882       6.59170082       0.00026673
In      11.70202848       4.05673226       2.08638368
P       11.33903161       6.59170048       2.08652899
In      10.11303108       7.44825352       0.00027164
P        9.75436580       9.98557353       0.00022724
In       6.49951851       7.44825426       2.08653400
P       20.59490262     -10.45553812       2.08648961
In       8.52837905      10.84002355       2.08646858
P       22.61671799      -7.06380236       2.08604061
In      12.14189135      10.84002299       0.00020617
P       11.77618117      13.37730949      -0.00022171
In      21.39051372      -6.20701405      -0.00024276
P       21.02624601      -3.67110232      -0.00027372
In      10.54997676      14.23409760       2.08601954
P       24.63975817      -3.67110314       2.08598859
In      16.18375202      -2.79710036      -0.00026894
P       15.79688885      -0.25212335      -0.00010146
In      12.57023921      -2.79710006       2.08599345
P       12.18337591      -0.25212314       2.08616091
In      16.96461801       0.64098287       2.08617090
P       16.54436203       3.18220573       2.08636891
In      20.57813041       0.64098272      -0.00009144
P       20.15787439       3.18220575       0.00010656
In      15.31554145       4.05673235       0.00012131
P       14.95254445       6.59170056       0.00026660
In      18.92905408       4.05673277       2.08638357
P       18.56605701       6.59170106       2.08652884
In      17.34005641       7.44825397       0.00027149
P       16.98139069       9.98557390       0.00022707
In      13.72654380       7.44825339       2.08653387
P       13.36787827       9.98557333       2.08648945
In      15.75540362      10.84002330       2.08646841
P       15.38969361      13.37730970       2.08604065
In      19.36891587      10.84002435       0.00020610
P       19.00320596      13.37731068      -0.00022157
In      14.16348902      14.23409746      -0.00024272
P       13.79922092      16.77000916      -0.00027366
In      17.77700126      14.23409813       2.08601968
P        2.95868370      -3.67110277       2.08598872
In      23.41077687      -2.79710174      -0.00026900
P       23.02391369      -0.25212444      -0.00010149
In      19.79726462      -2.79710106       2.08599331
P       19.41040151      -0.25212390       2.08616081
In      24.19164227       0.64098263       2.08617087
P       23.77138622       3.18220583       2.08636886
In      27.80515388       0.64098259      -0.00009139
P       12.93084855     -17.25890664       0.00010659
In      22.54256617       4.05673331       0.00012125
P       22.17956914       6.59170174       0.00026652
In      26.15607788       4.05673361       2.08638360
P       11.33903169     -13.84941033       2.08652888
In      10.11303152     -12.99285667       0.00027151
P        9.75436590     -10.45553659       0.00022714
In      20.95356874       7.44825499       2.08653378
P       20.59490299       9.98557497       2.08648937
In       8.52837888      -9.60108693       2.08646847
P        8.16266894      -7.06380058       2.08604081
In      12.14189121      -9.60108635       0.00020626
P       11.77618110      -7.06379989      -0.00022148
In       6.93646426      -6.20701321      -0.00024255
P        6.57219592      -3.67110171      -0.00027352
In      10.54997658      -6.20701227       2.08601977
P       10.18570838      -3.67110078       2.08598878
In      16.18375139      17.64401065      -0.00026887
P        1.34283861      -0.25212458      -0.00010139
In      12.57023955      17.64401044       2.08599336
P       26.63742546      -0.25212470       2.08616086
In       2.51056710       0.64098260       2.08617097
P       16.54436033     -17.25890669       2.08636896
In       6.12407933       0.64098273      -0.00009130
P        5.70382336       3.18220576       0.00010670
In      15.31554029     -16.38437904       0.00012135
P       14.95254350     -13.84941048       0.00026665
In       4.47500304       4.05673298       2.08638371
P       18.56605558     -13.84941105       2.08652903
In      17.34005548     -12.99285724       0.00027167
P       16.98139028     -10.45553707       0.00022731
In      13.72654345     -12.99285657       2.08653391
P       13.36787805     -10.45553641       2.08648954
In      15.75540359      -9.60108674       2.08646864
P       15.38969330      -7.06380017       2.08604077
In      19.36891596      -9.60108783       0.00020634
P       19.00320559      -7.06380121      -0.00022163
In      14.16348896      -6.20701217      -0.00024259
P       13.79922100      -3.67110062      -0.00027359
In      17.77700136      -6.20701293       2.08601962
P       17.41273360      -3.67110128       2.08598864
96
Lattice="14.45404925834546 20.441112492360922 0.0 14.45404925834546 -20.441112492360922 0.0 -2.220446049250313e-16 0.0 4.1725246150929305" Properties=species:S:1:pos:R:3 core_positions="_JSON [[7.227024629172732, 0.0, 2.0862623075464652], [21.68107388751819, 0.0, 2.0862623075464652]]" burgers_vectors="_JSON [[-0.9834734833333334, -0.9834734833333334, 1.9669469666666668], [0.9834734833333334, 0.9834734833333334, -1.9669469666666668]]" dislocation_types="_JSON [\"1/6<112> 90 degree partial\", \"1/6<112> 90 degree partial\"]" dislocation_classes="_JSON [\"<class 'matscipy.dislocation.DiamondGlide90degreePartial'>\", \"<class 'matscipy.dislocation.DiamondGlide90degreePartial'>\"]" energy=-330.8027480453318 pbc="T T T"
In       8.60987573      -2.83060036      -0.02032820
P        8.42288238      -0.28111220      -0.00655177
In       4.99635862      -2.83067740       2.06593379
P        4.80935616      -0.28117288       2.07971146
In       9.61086163       0.59366354       2.08088302
P        9.44143534       3.14294362       2.09361580
In      13.22443826       0.59366689      -0.00538214
P       13.05500940       3.14294134       0.00735090
In       8.22327973       4.00162981       0.00861049
P        8.04527648       6.53680703       0.01974879
In      11.83684302       4.00160760       2.09487034
P       11.65882277       6.53677856       2.10600762
In      10.44013033       7.38226557       0.02065381
P       10.18414171       9.91694776       0.02972572
In       6.82660324       7.38232441       2.10691941
P       21.02469703     -10.52409815       2.11599464
In       8.96510268      10.79466532       2.11548557
P       22.15171805      -7.09200782       2.05556070
In      12.57857152      10.79464248       0.02921007
P       11.31122737      13.34902096      -0.03069746
In      20.92780810      -6.22739445      -0.03082623
P       20.67196058      -3.69376895      -0.02150749
In      10.08728784      14.21362776       2.05543917
P       24.28546154      -3.69385290       2.06475539
In      15.83696821      -2.83058287      -0.02034016
P       15.65001192      -0.28109846      -0.00655775
In      12.22341886      -2.83056038       2.06592921
P       12.03644432      -0.28108039       2.07970773
In      16.83799937       0.59365665       2.08087737
P       16.66856843       3.14293838       2.09360938
In      20.45151711       0.59364558      -0.00538602
P       20.28208454       3.14294323       0.00734422
In      15.45041093       4.00161676       0.00860405
P       15.27237159       6.53679029       0.01973847
In      19.06394992       4.00165791       2.09486311
P       18.88590075       6.53684154       2.10599439
In      17.66719636       7.38232586       0.02063974
P       17.41111723       9.91701083       0.02970013
In      14.05366655       7.38226468       2.10690901
P       13.79762666       9.91694479       2.11597490
In      16.19203423      10.79469760       2.11545923
P       14.92479625      13.34900473       2.05557680
In      19.80551625      10.79481218       0.02919136
P       18.53834551      13.34906855      -0.03067221
In      13.70083249      14.21359489      -0.03081206
P       13.44490463      16.74722791      -0.02150143
In      17.31437550      14.21363747       2.05546334
P        2.60435239      -3.69384702       2.06476826
In      23.06400683      -2.83071319      -0.02034526
P       22.87705314      -0.28120002      -0.00655849
In      19.45050135      -2.83064807       2.06591718
P       19.26355390      -0.28114993       2.07970288
In      24.06498905       0.59364224       2.08087772
P       23.89555450       3.14295562       2.09360628
In      27.67843851       0.59364108      -0.00538148
P       13.05495475     -17.29815167       0.00734655
In      22.67744368       4.00171287       0.00860018
P       22.49939771       6.53690885       0.01972985
In      26.29090468       4.00174311       2.09486492
P       11.65882365     -13.90416640       2.10599558
In      10.44015247     -13.05861689       0.02064014
P       10.18410451     -10.52391227       0.02970210
In      21.28070734       7.38242366       2.10689924
P       21.02462490       9.91711886       2.11595785
In       8.96499018      -9.64619422       2.11545959
P        7.69779935      -7.09192472       2.05559664
In      12.57855175      -9.64617478       0.02921134
P       11.31125884      -7.09182498      -0.03067025
In       6.47384823      -6.22736880      -0.03079175
P        6.21786166      -3.69375035      -0.02148899
In      10.08734220      -6.22726123       2.05546716
P        9.83138368      -3.69365073       2.06477283
In      15.83691748      17.61037659      -0.02033374
P        1.19587390      -0.28121751      -0.00655232
In      12.22344043      17.61036546       2.06592170
P       26.49051649      -0.28122544       2.07970683
In       2.38380251       0.59364024       2.08088358
P       16.66842131     -17.29815975       2.09361277
In       5.99730759       0.59364959      -0.00537790
P        5.82788125       3.14294560       0.00735333
In      15.45031454     -16.43938790       0.00860671
P       15.27230167     -13.90418802       0.01974041
In       4.60975094       4.00167648       2.09487227
P       18.88579993     -13.90424695       2.10600914
In      17.66714108     -13.05869691       0.02065460
P       17.41118213     -10.52399706       0.02972852
In      14.05364363     -13.05862364       2.10690988
P       13.79764667     -10.52391730       2.11597832
In      16.19211756      -9.64624706       2.11548693
P       14.92471127      -7.09181641       2.05557943
In      19.80565484      -9.64635971       0.02922934
P       18.53819285      -7.09189522      -0.03069578
In      13.70082063      -6.22722970      -0.03080688
P       13.44491472      -3.69361956      -0.02149525
In      17.31430368      -6.22728877       2.05544261
P       17.05844369      -3.69367207       2.06475956
96
Lattice="14.45404925834546 20.441112492360922 0.0 14.45404925834546 -20.441112492360922 0.0 -2.220446049250313e-16 0.0 4.1725246150929305" Properties=species:S:1:pos:R:3 core_positions="_JSON [[7.227024629172732, 0.0, 2.0862623075464652], [21.68107388751819, 0.0, 2.0862623075464652]]" burgers_vectors="_JSON [[-0.9834734833333334, -0.9834734833333334, 1.9669469666666668], [0.9834734833333334, 0.9834734833333334, -1.9669469666666668]]" dislocation_types="_JSON [\"1/6<112> 90 degree partial\", \"1/6<112> 90 degree partial\"]" dislocation_classes="_JSON [\"<class 'matscipy.dislocation.DiamondGlide90degreePartial'>\", \"<class 'matscipy.dislocation.DiamondGlide90degreePartial'>\"]" energy=-330.9398734993843 pbc="T T T"
In       8.35286336      -2.80559290      -0.04500522
P        8.33558011      -0.25996556      -0.01452002
In       4.73930233      -2.80591531       2.04126336
P        4.72195332      -0.26023592       2.07174359
In       9.53863164       0.60271309       2.07481470
P        9.52581722       3.14760035       2.10219869
In      13.15245497       0.60267030      -0.01145672
P       13.13959266       3.14753604       0.01592969
In       8.32000072       3.99146548       0.01836565
P        8.30673427       6.52108133       0.04353226
In      11.93374971       3.99135387       2.10462180
P       11.92040803       6.52094952       2.12978659
In      10.71455446       7.34865480       0.04577020
P       10.69371694       9.87742914       0.08007674
In       7.10095334       7.34889268       2.13204002
P       21.53423850     -10.56343293       2.16635562
In       9.48739637      10.74665403       2.16953108
P       21.62789113      -7.03049432       2.00020413
In      13.10086154      10.74650606       0.08322174
P       10.78742987      13.41035656      -0.08603741
In      20.42100162      -6.18021861      -0.08182978
P       20.40000834      -3.65238313      -0.04802390
In       9.58047189      14.26059548       2.00444926
P       24.01344588      -3.65266593       2.03824480
In      15.58022905      -2.80563892      -0.04504686
P       15.56312877      -0.26004367      -0.01453946
In      11.96654448      -2.80548685       2.04123722
P       11.94936457      -0.25989364       2.07173369
In      16.76616291       0.60255408       2.07479533
P       16.75328920       3.14744045       2.10218166
In      20.37966125       0.60247369      -0.01147279
P       20.36680850       3.14741027       0.01591103
In      15.54749478       3.99131273       0.01834903
P       15.53408037       6.52091490       0.04350509
In      19.16110487       3.99139841       2.10460231
P       19.14765862       6.52103005       2.12974735
In      17.94179929       7.34872950       0.04572852
P       17.92071191       9.87752664       0.07998125
In      14.32820018       7.34858619       2.13201257
P       14.30722923       9.87736270       2.16629404
In      16.71429310      10.74661511       2.16942905
P       14.40106219      13.41032809       2.00027573
In      20.32770779      10.74700239       0.08313453
P       18.01469482      13.41056077      -0.08593130
In      13.19401596      14.26049509      -0.08176729
P       13.17278476      16.78836175      -0.04799656
In      16.80758382      14.26064276       2.00454657
P        2.33216233      -3.65259432       2.03829017
In      22.80728871      -2.80615055      -0.04505357
P       22.79017511      -0.26047633      -0.01454631
In      19.19382397      -2.80592335       2.04120402
P       19.17675057      -0.26029467       2.07171567
In      23.99295745       0.60249710       2.07479111
P       23.98013789       3.14748861       2.10217125
In      27.60616129       0.60256638      -0.01146259
P       13.13932874     -17.29352595       0.01591475
In      22.77452269       3.99161308       0.01833719
P       22.76109221       6.52128191       0.04347522
In      26.38780552       3.99180539       2.10460498
P       11.92038140     -13.91961850       2.12974476
In      10.71464268     -13.09171182       0.04572379
P       10.69360087     -10.56286533       0.07996932
In      21.55528981       7.34907320       2.13197936
P       21.53417136       9.87790178       2.16621604
In       9.48713733      -9.69367351       2.16941100
P        7.17416892      -7.03011529       2.00035564
In      13.10073066      -9.69355685       0.08320200
P       10.78755740      -7.02975322      -0.08593142
In       5.96708418      -6.18006766      -0.08169081
P        5.94567555      -3.65219812      -0.04795977
In       9.58057499      -6.17965660       2.00455143
P        9.55925747      -3.65180789       2.03829460
In      15.57993675      17.63495023      -0.04501137
P        1.10857057      -0.26044781      -0.01452617
In      11.96660065      17.63488317       2.04122777
P       26.40343794      -0.26051870       2.07172427
In       2.31134514       0.60260041       2.07481092
P       16.75264425     -17.29350973       2.10218826
In       5.92485944       0.60266474      -0.01144506
P        5.91210105       3.14761226       0.01593505
In      15.54704408     -16.44931929       0.01835400
P       15.53374462     -13.91964047       0.04350335
In       4.70639748       3.99164904       2.10462592
P       19.14719879     -13.91981477       2.12978626
In      17.94148162     -13.09189451       0.04576795
P       17.92068981     -10.56308418       0.08007106
In      14.32804267     -13.09167772       2.13200795
P       14.30713664     -10.56284135       2.16628212
In      16.71435145      -9.69375998       2.16952037
P       14.40092964      -7.02977598       2.00027527
In      20.32793355      -9.69413762       0.08328420
P       18.01436506      -7.03009320      -0.08603896
In      13.19404074      -6.17957957      -0.08176071
P       13.17288316      -3.65174907      -0.04798977
In      16.80750767      -6.17983009       2.00445275
P       16.78648182      -3.65200402       2.03824946
96
Lattice="14.45404925834546 20.441112492360922 0.0 14.45404925834546 -20.441112492360922 0.0 -2.220446049250313e-16 0.0 4.1725246150929305" Properties=species:S:1:pos:R:3 core_positions="_JSON [[7.227024629172732, 0.0, 2.0862623075464652], [21.68107388751819, 0.0, 2.0862623075464652]]" burgers_vectors="_JSON [[-0.9834734833333334, -0.9834734833333334, 1.9669469666666668], [0.9834734833333334, 0.9834734833333334, -1.9669469666666668]]" dislocation_types="_JSON [\"1/6<112> 90 degree partial\", \"1/6<112> 90 degree partial\"]" dislocation_classes="_JSON [\"<class 'matscipy.dislocation.DiamondGlide90degreePartial'>\", \"<class 'matscipy.dislocation.DiamondGlide90degreePartial'>\"]" energy=-330.9349569262335 pbc="T T T"
In       8.04343066      -2.78500473      -0.00000001
P        8.20887224      -0.23664535      -0.00000001
In       4.42683669      -2.79347928       2.08626230
P        4.58531143      -0.24439663       2.08626230
In       9.43740561       0.63071124       2.08626230
P        9.65369510       3.17519661       2.08626230
In      13.05987281       0.62939075      -0.00000001
P       13.27230316       3.17344753      -0.00000001
In       8.46228665       4.02374239      -0.00000001
P        8.62992722       6.55574617      -0.00000001
In      12.08165029       4.02302389       2.08626230
P       12.24658739       6.55443244       2.08626230
In      11.05243715       7.38869712      -0.00000001
P       11.17865308       9.92055971      -0.00000001
In       7.43743516       7.39206816       2.08626230
P       22.01800187     -10.51712745       2.08626230
In       9.97962456      10.78873045       2.08626230
P       21.15630771      -7.03336503       2.08626230
In      13.59400955      10.78592440      -0.00000001
P       10.31609284      13.40374307      -0.00000001
In      19.96368198      -6.17877482      -0.00000001
P       20.08332997      -3.64784440      -0.00000001
In       9.12299167      14.25814689       2.08626230
P       23.69470008      -3.65183717       2.08626230
In      15.27858793      -2.78782186      -0.00000001
P       15.45287370      -0.24131658      -0.00000001
In      11.66170976      -2.78403824       2.08626230
P       11.83353670      -0.23697170       2.08626230
In      16.67610756       0.62563246       2.08626230
P       16.88868197       3.16967783       2.08626230
In      20.28644205       0.62293299      -0.00000001
P       20.50212781       3.16729842      -0.00000001
In      15.69957041       4.02067118      -0.00000001
P       15.86294862       6.55203929      -0.00000001
In      19.31459849       4.01951550       2.08626230
P       19.47772240       6.55121987       2.08626230
In      18.28429964       7.38648093      -0.00000001
P       18.40717793       9.91883502      -0.00000001
In      14.66898116       7.38678313       2.08626230
P       14.79365463       9.91869382       2.08626230
In      17.20795936      10.78616032       2.08626230
P       13.93086329      13.40191811       2.08626230
In      20.81939068      10.79180895      -0.00000001
P       17.54721034      13.40379827      -0.00000001
In      12.73639210      14.25583331      -0.00000001
P       12.85049901      16.78749088      -0.00000001
In      16.35091953      14.25605529       2.08626230
P        2.00792371      -3.65258562       2.08626230
In      22.50486197      -2.79699985      -0.00000001
P       22.67557581      -0.24981315      -0.00000001
In      18.89306275      -2.79338338       2.08626230
P       19.06679691      -0.24675503       2.08626230
In      23.89181500       0.62372586       2.08626230
P       24.11227855       3.16870497       2.08626230
In      27.49483234       0.62712256      -0.00000001
P       13.26607780     -17.26864633      -0.00000001
In      22.92617172       4.02232016      -0.00000001
P       23.08994098       6.55467564      -0.00000001
In      26.53498695       4.02777739       2.08626230
P       12.24611291     -13.88073164       2.08626230
In      11.05403446     -13.04325020      -0.00000001
P       11.17554578     -10.50995110      -0.00000001
In      21.89715098       7.39087030       2.08626230
P       22.01861814       9.92397472       2.08626230
In       9.97613935      -9.64117066       2.08626230
P        6.70713242      -7.03044989       2.08626230
In      13.58955933      -9.63977344      -0.00000001
P       10.31826154      -7.02285309      -0.00000001
In       5.51166614      -6.17775398      -0.00000001
P        5.62297332      -3.64456723      -0.00000001
In       9.12439991      -6.16920786       2.08626230
P        9.23877107      -3.63648053       2.08626230
In      15.26951886      17.64366399      -0.00000001
P        0.97549356      -0.24846426      -0.00000003
In      11.66061021      17.64364727       2.08626230
P       26.28025757      -0.24926927       2.08626230
In       2.19247486       0.62711324       2.08626232
P       16.87518902     -17.26861587       2.08626230
In       5.80779317       0.62958777      -0.00000001
P        6.03387700       3.17463789      -0.00000001
In      15.69018045     -16.41311938      -0.00000001
P       15.85724516     -13.88062448      -0.00000001
In       4.84656713       4.02733949       2.08626230
P       19.46929250     -13.88173845       2.08626230
In      18.27777239     -13.04419915      -0.00000001
P       18.40305182     -10.51205788      -0.00000001
In      14.66573377     -13.04221381       2.08626230
P       14.78883128     -10.50933126       2.08626230
In      17.20413162      -9.64274164       2.08626230
P       13.92986866      -7.02288767       2.08626230
In      20.81919080      -9.64822672      -0.00000001
P       17.54254450      -7.02743123      -0.00000001
In      12.73724750      -6.16813666      -0.00000001
P       12.85497153      -3.63639570      -0.00000001
In      16.35028264      -6.17254883       2.08626230
P       16.47001479      -3.64146724       2.08626230
96