96
Lattice="14.373622647717028 20.32737321540724 0.0 14.373622647717028 -20.32737321540724 0.0 0.0 0.0 4.149307939547798" Properties=species:S:1:pos:R:3:x_err:R:1:y_err:R:1:z_err:R:1:total_err:R:1:energies:R:1:forces:R:3 energy=-330.59882353498597 free_energy=-330.59882353498597 stress="-0.000536994588259171 -1.1722489831346912e-05 -5.830277102359299e-07 -1.1722489831346912e-05 -0.00399012422398113 -1.0018899491625439e-06 -5.830277102359299e-07 -1.0018899491625439e-06 -0.004367602794314313" pbc="T T T"
P        9.59784280      -0.35880657       4.11375337      -0.09469635       0.01082318       0.16091959       0.18702848      -2.25526992       0.00038357       0.00039742      -0.00083090
P        5.93245504      -0.45343517       2.02387273       0.00007597      -0.00636854      -0.00283460       0.00697130      -2.30684817       0.00058479       0.00006219      -0.00033061
P        8.44800088       2.92100134       2.02531833       0.03616409      -0.03854222      -0.03282141       0.06221406      -2.68369648       0.00047144      -0.00018258      -0.00000118
P       11.96285994       2.87898550      -0.02492298       0.03437101      -0.01784210      -0.08047705       0.08930992      -3.33288944      -0.00014412      -0.00014642       0.00003389
P        7.22376456       6.32182070      -0.05424615       0.01787740      -0.02205918      -0.02131194       0.03550222      -3.30930118      -0.00020364       0.00031051       0.00001502
P       10.80844182       6.39246206       2.02615383       0.01451288      -0.00594527      -0.04564545       0.04826466      -3.40103709      -0.00002709       0.00020350      -0.00000833
P        9.61270867       9.74195151      -0.05613311       0.00238636      -0.00363417      -0.01517331       0.01578389      -3.38354856      -0.00005299      -0.00020974       0.00000558
P       20.39470336     -10.62832942       2.01667627       0.00570532      -0.01180358       0.00157651       0.01320457      -3.39524630       0.00047022       0.00011017      -0.00004509
P       22.80234004      -7.24065685       2.01460899      -0.00680243      -0.00051654       0.01402453       0.01559575      -3.40087659       0.00013701       0.00009788       0.00000580
P       12.01011658      13.14034821      -0.05950826      -0.00586013      -0.00110474      -0.00923948       0.01099679      -3.37765813       0.00004542       0.00027303      -0.00001682
P       21.63928468      -3.90096956       4.08645739      -0.00905313       0.00144947       0.03380438       0.03502566      -3.41815306      -0.00007230      -0.00004976      -0.00004652
P       25.19345522      -3.81323844       2.01406647      -0.00822580       0.00035811       0.00038997       0.00824282      -3.38993767       0.00045454      -0.00031222       0.00001924
P       16.98715400      -0.42393386       4.07231834      -0.04754855       0.00187336       0.12998603       0.13842233      -4.28960224       0.00008615      -0.00003771      -0.00057479
P       13.44241643      -0.40163767       1.97777736      -0.04842932       0.00826206       0.14791282       0.15585847      -3.31956179      -0.00008399      -0.00027764      -0.00094088
P       15.52725202       2.94353203       2.00482367       0.03499830      -0.00124153      -0.10439702       0.11011431      -4.02008034      -0.00034989      -0.00049877       0.00001216
P       19.06022276       3.00563000      -0.06740302       0.02289571       0.01974851      -0.10479478       0.10906953      -4.18238947       0.00013632       0.00063932      -0.00002281
P       14.37604602       6.37873421      -0.05835795       0.01543902      -0.00016266      -0.05986803       0.06182694      -3.47974725      -0.00016124      -0.00001402      -0.00000080
P       17.94947728       6.40052873       2.01285242       0.01458981       0.01112320      -0.06038961       0.06311492      -3.53663412      -0.00000381       0.00035208      -0.00005210
P       16.79224576       9.77923527      -0.05994138       0.00211348       0.00408120      -0.03143059       0.03176484      -3.39465925       0.00034152       0.00021365       0.00002144
P       13.20527901       9.77463442       2.01631510       0.00265374      -0.00148647      -0.03012970       0.03028285      -3.38764268      -0.00011205      -0.00042785       0.00001455
P       15.60324828      13.15082779       2.01507012      -0.00754910       0.00010181      -0.01316446       0.01517571      -3.36308393      -0.00030205       0.00007148       0.00001912
P       19.21168618      13.13935291      -0.05947983      -0.00884540      -0.00063835      -0.00589335       0.01064801      -3.37058844      -0.00003314      -0.00031671      -0.00000981
P       14.39871692      16.52446200      -0.05933768      -0.01100426       0.00053281      -0.00453979       0.01191584      -3.36165584       0.00015239      -0.00002247       0.00000648
P        3.61767471      -3.81970506       2.01640142      -0.01616148      -0.00323033       0.00138321       0.01653910      -3.29387593      -0.00028302       0.00026606      -0.00000267
P       24.01408526      -0.42314081       4.08835977      -0.00074592       0.00255418      -0.02961408       0.02973338      -3.42733278      -0.00010613       0.00014407       0.00003096
P       20.48774544      -0.55371354       2.00744156      -0.04888664       0.01485247       0.17606511       0.18332873      -3.84043048       0.00028283      -0.00020058       0.00010025
P       22.75100187       2.96894241       2.01223789       0.02281200       0.01490149      -0.05837326       0.06441956      -3.48079497      -0.00021962      -0.00008225      -0.00006624
P       26.36014307       2.97465686      -0.05962047       0.01847246       0.00647835      -0.02784767       0.03403959      -3.40495829      -0.00018848      -0.00046840       0.00025960
P       21.54721418       6.32585556      -0.06111695       0.01527006       0.01168193      -0.03777402       0.04238536      -3.47258313      -0.00013443       0.00003798       0.00011091
P       10.78134485     -13.97497160       2.01482631       0.01548240       0.00750159      -0.01946700       0.02597966      -3.40017501      -0.00017661       0.00024858      -0.00013216
P        9.59767515     -10.59438224       4.08940592       0.00462186       0.00395432      -0.00664915       0.00901163      -3.41285533      -0.00049146      -0.00008123       0.00001502
P       20.39062904       9.74275936       2.01455859       0.00395612       0.00578143      -0.01983374       0.02103457      -3.41788312       0.00038165      -0.00009749      -0.00004721
P        8.43116336      -7.18809969       2.01479231      -0.00820647      -0.00105898       0.00837011       0.01176972      -3.38370085       0.00019505       0.00030379       0.00004567
P       12.01496045      -7.19575084       4.08766039      -0.01007926       0.00391305       0.03406892       0.03574346      -3.38020293      -0.00028248       0.00016737      -0.00003374
P        7.24228680      -3.79432312       4.09140834      -0.02330084      -0.00951698       0.01534281       0.02947718      -3.28301270       0.00018784      -0.00016966      -0.00004041
P       10.84451988      -3.78253853       2.01066738      -0.02747719       0.00405809       0.07006899       0.07537326      -3.28265855       0.00028993       0.00018489       0.00006845
P        2.37995747      -0.43012575      -0.05630740      -0.00096137       0.00064392      -0.00828759       0.00836798      -3.25272883       0.00021158       0.00045367       0.00003546
P       27.56814271      -0.41607790       2.01566777      -0.00270597       0.00273580      -0.00740590       0.00834592      -3.38450541      -0.00007555       0.00003876      -0.00009371
P       15.58718106     -17.36361349       2.01737901       0.01937175      -0.00002950      -0.01703088       0.02579373      -3.38519630       0.00021934       0.00000803      -0.00010651
P        4.82002326       2.94443469      -0.05452962       0.02534852      -0.00982259      -0.01694380       0.03203316      -3.32611757      -0.00066253      -0.00018752      -0.00003962
P       14.38413410     -13.97852433       4.09085038       0.01441809       0.00170625      -0.00903724       0.01710159      -3.38175482       0.00022116       0.00005840       0.00003917
P       17.99020521     -13.99701607       2.01794946       0.01519627      -0.00668305      -0.00835995       0.01858705      -3.36896406      -0.00008963      -0.00008102       0.00002185
P       16.79067413     -10.61751611       4.08994195       0.00469587      -0.00254016       0.01003382       0.01136579      -3.38094785      -0.00047516       0.00005752      -0.00000786
P       13.18939873     -10.59441196       2.01469009       0.00408681       0.00367965       0.00803473       0.00973646      -3.38501160      -0.00013901       0.00019162       0.00001270
P       15.60647865      -7.23431989       2.01203722      -0.00884885       0.00033216       0.03891374       0.03990854      -3.38750383      -0.00010541      -0.00009501      -0.00000104
P       19.20540629      -7.25842817       4.08741745      -0.00618965      -0.00560160       0.03064166       0.03175847      -3.41012827      -0.00011032      -0.00043518      -0.00001665
P       14.45405282      -3.83172686       4.08184216      -0.02563075       0.00119364       0.07647733       0.08066686      -3.38641402       0.00070545       0.00030857      -0.00002242
P       18.03723169      -3.88340256       2.00792292      -0.01960045      -0.00355278       0.06581080       0.06875945      -3.42698695       0.00067628       0.00022254       0.00005849
In       9.64665199      -2.93611150       4.08891751      -0.02756380       0.00522419       0.07330399       0.07848904      -3.80662401      -0.00013079      -0.00007824      -0.00003452
In       6.01185337      -2.98610831       2.01724686      -0.01718172      -0.00127739       0.01124497       0.02057408      -3.78748504       0.00028787       0.00000791       0.00006598
In       8.27277396       0.39481278       2.05352088       0.03242681      -0.05193816      -0.07188658       0.09442855      -3.90013953      -0.00008807      -0.00056324       0.00081134
In      11.33474620       0.81832749       1.48098794      -0.01762228       0.05268756       0.07773572       0.09554772      -2.98008493       0.00002577      -0.00012300       0.00089938
In       7.22275271       3.78221142      -0.05180004       0.03847390      -0.02927516      -0.03089314       0.05737301      -3.88197128      -0.00048798      -0.00047450       0.00001094
In      10.79078735       3.89311424       2.06176279       0.02350990      -0.00572122      -0.07319760       0.07709304      -3.52504347       0.00045162       0.00027346      -0.00003051
In       9.60255395       7.21494353      -0.04938032       0.01200252      -0.00712108      -0.04147006       0.04375542      -3.59239049       0.00016812       0.00013533       0.00001677
In       6.01715335       7.16163599       2.01998199       0.01947300      -0.01689904      -0.01851389       0.03174177      -3.60697408      -0.00043129      -0.00005796      -0.00002612
In       8.41161950      10.55884971       2.01817619       0.00222948      -0.00479464      -0.01177904       0.01291143      -3.56478022       0.00012581      -0.00019806       0.00002648
In      12.00163519      10.60533469      -0.05827560       0.00122273      -0.00306777      -0.02756276       0.02775990      -3.58236378       0.00035709      -0.00016299      -0.00003553
In      21.60356798      -6.42178316       4.08897727      -0.00830608      -0.00367322       0.01788610       0.02005982      -3.54958318       0.00022421       0.00001037      -0.00001636
In      10.80877465      13.97512804       2.01504678      -0.00561636      -0.00241985      -0.00723104       0.00947033      -3.57532946       0.00028880       0.00022464       0.00006599
In      16.86902061      -2.97788910       4.08179218      -0.02657538      -0.00367144       0.07138146       0.07625643      -3.49024549      -0.00067340      -0.00026335       0.00000304
In      13.26437066      -2.95288626       2.00568373      -0.03052069       0.00389427       0.08022157       0.08591960      -3.62413706      -0.00004963       0.00027438       0.00001118
In      14.65071936       0.47700046       4.04973178      -0.05203399       0.00443815       0.15611524       0.16461835      -1.94435974       0.00024768       0.00025398       0.00051619
In      18.22544758       0.48195463       1.99866073      -0.05680483       0.01720610       0.13650888       0.14885400      -2.46558203      -0.00015536      -0.00027483      -0.00005612
In      14.36237572       3.84985968      -0.06353615       0.03080368       0.00023184      -0.10037616       0.10499664      -3.26121511      -0.00026072      -0.00001023       0.00001118
In      17.90294711       3.87743243       2.00760370       0.02360412       0.01533091      -0.10306851       0.10684245      -2.89280601       0.00046201      -0.00001014       0.00000391
In      16.76584612       7.24661398      -0.06141543       0.01067245       0.00615702      -0.05808970       0.05938201      -3.50421635       0.00024111       0.00005237       0.00006677
In      13.19636800       7.24427591       2.01698971       0.01095471      -0.00265318      -0.05651270       0.05762578      -3.53755729      -0.00041566      -0.00006139      -0.00003287
In      15.59763977      10.61876835       2.01485952       0.00025344       0.00107944      -0.02985836       0.02987894      -3.58041918      -0.00010088       0.00021697      -0.00001353
In      19.19790185      10.59799624      -0.06004130       0.00117572       0.00273470      -0.01955364       0.01977892      -3.56959768       0.00000673      -0.00058338       0.00006063
In      14.40275901      13.98874490      -0.05956724      -0.00611899       0.00045184      -0.01211791       0.01358271      -3.59668686      -0.00019245      -0.00022006      -0.00005870
In      18.00372450      13.97341583       2.01525681      -0.00783581      -0.00010694      -0.00600178       0.00987080      -3.61090710       0.00003282       0.00042080       0.00002204
In      23.99874009      -2.96790454       4.08854620      -0.00590784      -0.00143155       0.00193053       0.00637799      -3.56938158      -0.00016383       0.00012326      -0.00001223
In      20.43892385      -3.03583654       2.01140673      -0.01848386      -0.01040017       0.03470028       0.04066849      -3.49437225       0.00024643      -0.00009508      -0.00001239
In      22.77424722       0.41778336       2.01364276       0.01754469       0.01773209      -0.04209874       0.04893411      -3.46910557      -0.00029377       0.00002593      -0.00005857
In      26.38622184       0.43608678       4.09014757       0.00392053       0.00783993      -0.00707676       0.01126569      -3.55832744       0.00014768      -0.00014858       0.00005306
In      21.50297009       3.76665569      -0.06276372       0.02257654       0.01566135      -0.06263049       0.06839266      -3.39936272       0.00005452      -0.00024164       0.00009505
In      25.14881177       3.81365272       2.01481915       0.02411474       0.01076600      -0.03050227       0.04034620      -3.55589041       0.00015568      -0.00030660      -0.00022197
In       9.57301533     -13.14136794       4.08937746       0.01613062       0.00714002      -0.02002010       0.02668298      -3.54134549      -0.00006585       0.00045971       0.00013046
In      20.36355492       7.19812726       2.01359005       0.01304485       0.00943145      -0.03801887       0.04128625      -3.49709929      -0.00033765       0.00000520      -0.00011203
In       8.41179438      -9.73309524       2.01474488       0.00389159       0.00273145      -0.00659624       0.00813116      -3.55187986       0.00011959       0.00048321      -0.00004042
In      11.99434455      -9.74167556       4.08922472       0.00357502       0.00449622       0.00927424       0.01090910      -3.56595341       0.00005412       0.00030234       0.00000857
In       7.23590659      -6.33856807       4.08961816      -0.00946207      -0.00295408       0.00766203       0.01252853      -3.60169839       0.00001218      -0.00025598      -0.00002767
In      10.82666147      -6.33141279       2.01294110      -0.01155167       0.00543464       0.03590591       0.03810788      -3.59836082       0.00010742      -0.00033808       0.00003814
In       2.41991757      -2.96877234       4.09111335      -0.00999837       0.00158532       0.00021563       0.01012557      -3.65204318      -0.00066202      -0.00009617      -0.00003080
In      13.20600964      17.37215119       2.01523639      -0.00664383       0.00208452      -0.00426856       0.00816740      -3.58517470       0.00017674      -0.00001106       0.00005002
In       1.20482994       0.42493679       2.01812961       0.00328874      -0.00052395      -0.00884427       0.00945047      -3.61460919      -0.00029442      -0.00001775       0.00001438
In       4.76060383       0.40597506      -0.05136052       0.00844090      -0.01252139      -0.00468569       0.01581107      -3.96528383      -0.00051417       0.00024386       0.00032736
In      14.38556157     -16.51600988       4.09176890       0.02295267       0.00169516      -0.01743222       0.02887180      -3.57671365       0.00034379       0.00018661       0.00006854
In       3.61629691       3.79343780       2.01973398       0.02690756      -0.00899525      -0.01637077       0.03275567      -3.59051482       0.00024111      -0.00004819       0.00003099
In      16.78750169     -13.15447497       4.09229943       0.01723296      -0.00451703      -0.00679793       0.01906805      -3.58710105       0.00027434      -0.00001773      -0.00002216
In      13.18056995     -13.13441628       2.01600639       0.01653209       0.00413654      -0.00842884       0.01901226      -3.57744135      -0.00032629      -0.00039260      -0.00004242
In      15.59221214      -9.77148332       2.01500564       0.00463873      -0.00122273       0.01221515       0.01312337      -3.58198852      -0.00030566       0.00016197       0.00001212
In      19.19208164      -9.79256601       4.09095913       0.00613700      -0.00980480       0.00456407       0.01243493      -3.57279548      -0.00045809       0.00039980       0.00001774
In      14.42121248      -6.37075900       4.08639107      -0.01131243       0.00070084       0.04181270       0.04332163      -3.58705070      -0.00023929       0.00015606      -0.00001437
In      18.00879258      -6.41346563       2.01238069      -0.00889767      -0.00682223       0.03411596       0.03591114      -3.55799894       0.00024569      -0.00039619       0.00000011
96
Lattice="14.373622647717028 20.32737321540724 0.0 14.373622647717028 -20.32737321540724 0.0 0.0 0.0 4.149307939547798" Properties=species:S:1:pos:R:3:x_err:R:1:y_err:R:1:z_err:R:1:total_err:R:1:energies:R:1:forces:R:3 energy=-330.59882353498597 free_energy=-330.59882353498597 stress="-0.000536994588259171 -1.1722489831346912e-05 -5.830277102359299e-07 -1.1722489831346912e-05 -0.00399012422398113 -1.0018899491625439e-06 -5.830277102359299e-07 -1.0018899491625439e-06 -0.004367602794314313" pbc="T T T"
P        9.75600496      -0.54881577       0.00005672       0.23693164       0.02935744       0.11250105       0.26392224      -2.25526992       0.00038357       0.00039742      -0.00083090
P        5.71380802      -0.53445506       2.07466524      -0.09344360       0.02636316      -0.11557936       0.15094804      -2.30684817       0.00058479       0.00006219      -0.00033061
P        8.47261426       3.11664987       2.07465994      -0.06484169       0.04586717       0.03108491       0.08529076      -2.68369648       0.00047144      -0.00018258      -0.00000118
P       11.98010239       2.97518717       0.00000808      -0.07941862       0.00699018       0.03745973       0.08808752      -3.33288944      -0.00014412      -0.00014642       0.00003389
P        7.13539110       6.33267061       0.00000968      -0.04001545       0.01268991       0.01657724       0.04513396      -3.30930118      -0.00020364       0.00031051       0.00001502
P       10.76979615       6.43331532       2.07465992      -0.03173568       0.01593177       0.02091845       0.04121354      -3.40103709      -0.00002709       0.00020350      -0.00000833
P        9.51650127       9.75030388      -0.00000175      -0.00760285      -0.00404483       0.01325850       0.01580987      -3.38354856      -0.00005299      -0.00020974       0.00000558
P       20.29459172     -10.60696740       2.07467142      -0.01466089      -0.00446633       0.01154764       0.01918952      -3.39524630       0.00047022       0.00011017      -0.00004509
P       22.69863432      -7.21962213       2.07465785       0.01894242      -0.02722481       0.01226372       0.03536105      -3.40087659       0.00013701       0.00009788       0.00000580
P       11.91646417      13.15789880      -0.00001244       0.01440730      -0.00184264      -0.00768113       0.01643063      -3.37765813       0.00004542       0.00027303      -0.00001682
P       21.52439080      -3.86573660       0.00001513       0.04911317      -0.05804552       0.02274837       0.07936545      -3.41815306      -0.00007230      -0.00004976      -0.00004652
P       25.11363662      -3.81459293       2.07464345       0.02839759      -0.01516361      -0.02187298       0.03892024      -3.38993767       0.00045454      -0.00031222       0.00001924
P       16.70023644      -0.35636696       0.00003514       0.20713272       0.01236767       0.06521179       0.21750747      -4.28960224       0.00008615      -0.00003771      -0.00057479
P       13.05253148      -0.38603314       2.07471000       0.19590886       0.01685329       0.07145113       0.20921181      -3.31956179      -0.00008399      -0.00027764      -0.00094088
P       15.51966485       2.97385852       2.07465296      -0.08372661       0.00120761       0.03433872       0.09050276      -4.02008034      -0.00034989      -0.00049877       0.00001216
P       18.94973521       2.82280607      -0.00000369      -0.09575937      -0.04074680       0.02629022       0.10733748      -4.18238947       0.00013632       0.00063932      -0.00002281
P       14.32686995       6.43643795       0.00000916      -0.03727891       0.01396430       0.01587494       0.04285712      -3.47974725      -0.00016124      -0.00001402      -0.00000080
P       17.89955914       6.44201090       2.07465077      -0.03843457       0.00373975       0.00816152       0.03946913      -3.53663412      -0.00000381       0.00035208      -0.00005210
P       16.69982467       9.80853942      -0.00000907      -0.00510405       0.01070439      -0.00307775       0.01225185      -3.39465925       0.00034152       0.00021365       0.00002144
P       13.11709854       9.81491408       2.07465671      -0.00619587       0.01137427       0.00441141       0.01368296      -3.38764268      -0.00011205      -0.00042785       0.00001455
P       15.50366468      13.17286055       2.07465108       0.01595192       0.00786785      -0.01518850       0.02338925      -3.36308393      -0.00030205       0.00007148       0.00001912
P       19.09769728      13.11415219      -0.00001055       0.02178423       0.01122020      -0.02129865       0.03246656      -3.37058844      -0.00003314      -0.00031671      -0.00000981
P       14.33221478      16.54865674      -0.00001944       0.02303357       0.00151562      -0.03015986       0.03797973      -3.36165584       0.00015239      -0.00002247       0.00000648
P        3.52831107      -3.83040804       2.07464801       0.03229376       0.00703310      -0.03602663       0.04889038      -3.29387593      -0.00028302       0.00026606      -0.00000267
P       23.91866219      -0.45444490      -0.00000244      -0.02326593      -0.02450089      -0.08140580       0.08813910      -3.42733278      -0.00010613       0.00014407       0.00003096
P       20.35174830      -0.51366499       2.07464520       0.22476682      -0.02847075       0.09499659       0.24567267      -3.84043048       0.00028283      -0.00020058       0.00010025
P       22.62519800       2.90802268       2.07464467      -0.07101080      -0.02993698      -0.01029634       0.07774813      -3.48079497      -0.00021962      -0.00008225      -0.00006624
P       11.88030691     -17.38080939      -0.00002996      -0.05972769      -0.00512714      -0.02599893       0.06534240      -3.40495829      -0.00018848      -0.00046840       0.00025960
P       21.44775019       6.28867847      -0.00001636      -0.04724363      -0.02780447      -0.01324919       0.05639672      -3.47258313      -0.00013443       0.00003798       0.00011091
P       10.68419813     -14.02284857       2.07465709      -0.04790494      -0.01113370      -0.01929676       0.05283188      -3.40017501      -0.00017661       0.00024858      -0.00013216
P        9.51035870     -10.65512245      -0.00000245      -0.01738805      -0.00497219      -0.01695798       0.02479193      -3.41285533      -0.00049146      -0.00008123       0.00001502
P       20.30333940       9.73571109       2.07464757      -0.00735135      -0.00173173      -0.01389110       0.01581151      -3.41788312       0.00038165      -0.00009749      -0.00004721
P        8.32124759      -7.26887831       2.07464198       0.01664927       0.01257315      -0.02280706       0.03091026      -3.38370085       0.00019505       0.00030379       0.00004567
P       11.91053546      -7.26552937       0.00000083       0.01928087       0.00001172       0.00263726       0.01946040      -3.38020293      -0.00028248       0.00016737      -0.00003374
P        7.10596135      -3.90016594      -0.00000481       0.04808575       0.03209550      -0.04455926       0.07299238      -3.28301270       0.00018784      -0.00016966      -0.00004041
P       10.67898360      -3.91289021       2.07465415       0.06099492       0.00710191       0.02325758       0.06566378      -3.28265855       0.00028993       0.00018489       0.00006845
P        2.33190946      -0.39182589      -0.00001747      -0.04362673       0.00771584      -0.06297361       0.07699676      -3.25272883       0.00021158       0.00045367       0.00003546
P       27.50124838      -0.41461698       2.07465245      -0.03196272      -0.00203100      -0.05607554       0.06457714      -3.38450541      -0.00007555       0.00003876      -0.00009371
P       15.49467352     -17.35063212       2.07465933      -0.05826166       0.00325235      -0.02907961       0.06519680      -3.38519630       0.00021934       0.00000803      -0.00010651
P        4.73326845       2.99731364       0.00000417      -0.06764705       0.01835401      -0.02807637       0.07550679      -3.32611757      -0.00066253      -0.00018752      -0.00003962
P       14.29093967     -13.99127578      -0.00000129      -0.04452392      -0.00227736      -0.01536355       0.04715511      -3.38175482       0.00022116       0.00005840       0.00003917
P       17.89141903     -13.96615841       2.07465801      -0.04374307       0.00678789      -0.00826430       0.04503144      -3.36896406      -0.00008963      -0.00008102       0.00002185
P       16.69191301     -10.59293109       0.00000713      -0.01950422      -0.00378110       0.00115931       0.01990114      -3.38094785      -0.00047516       0.00005752      -0.00000786
P       13.10414599     -10.62913279       2.07464953      -0.01795143      -0.00477546      -0.00647349       0.01967142      -3.38501160      -0.00013901       0.00019162       0.00001270
P       15.49204651      -7.20772823       2.07466842       0.01880722      -0.00358542       0.01029988       0.02174061      -3.38750383      -0.00010541      -0.00009501      -0.00000104
P       19.09143864      -7.21251349       0.00001380       0.01273116      -0.01865636       0.01415131       0.02665336      -3.41012827      -0.00011032      -0.00043518      -0.00001665
P       14.26705123      -3.81903021       0.00002216       0.07072140       0.00075036       0.02806890       0.07609167      -3.38641402       0.00070545       0.00030857      -0.00002242
P       17.89653458      -3.81168506       2.07465050       0.07034702      -0.01069074       0.02536167       0.07553945      -3.42698695       0.00067628       0.00022254       0.00005849
In       9.49516440      -3.02611597       0.00000701       0.06760372       0.02590445       0.02580665       0.07685887      -3.80662401      -0.00013079      -0.00007824      -0.00003452
In       5.93558837      -3.01225680       2.07464284       0.03497007       0.02887402      -0.04916187       0.06688427      -3.78748504       0.00028787       0.00000791       0.00006598
In      10.60722934       0.54650992       2.07463499       0.19981098       0.02942958       0.09735898       0.22420816      -3.90013953      -0.00008807      -0.00056324       0.00081134
In      14.12334239       0.50385293      -0.00002933       0.18451181       0.01209736       0.06800391       0.19701646      -2.98008493       0.00002577      -0.00012300       0.00089938
In       7.18799888       3.76013407       0.00000510      -0.06478072       0.01348637       0.02255490       0.06990814      -3.88197128      -0.00048798      -0.00047450       0.00001094
In      10.83295432       3.91930727       2.07466560      -0.06755971       0.02091554       0.03473164       0.07879125      -3.52504347       0.00045162       0.00027346      -0.00003051
In       9.52602905       7.21201039       0.00000383      -0.03525543       0.00130812       0.01959050       0.04035399      -3.59239049       0.00016812       0.00013533       0.00001677
In       5.92816024       7.17236424       2.07466662      -0.04020975      -0.00010443       0.01387260       0.04253568      -3.60697408      -0.00043129      -0.00005796      -0.00002612