24
Lattice="5.868420891291524 0.0 0.0 0.0 4.14960020708904 0.0 0.0 0.0 24.897601242534236" Properties=species:S:1:pos:R:3 energy=-83.58609138917669 pbc="T T T"
P        4.40131567       2.07480010       0.00000000
In       0.00000000       0.00000000       0.00000000
P        1.46710522       0.00000000       2.07480010
In       2.93421045       2.07480010       2.07480010
P        4.40131567       2.07480010       4.14960021
In       0.00000000       0.00000000       4.14960021
P        1.46710522       0.00000000       6.22440031
In       2.93421045       2.07480010       6.22440031
P        4.40131567       2.07480010       8.29920041
In       0.00000000       0.00000000       8.29920041
P        1.46710522       0.00000000      10.37400052
In       2.93421045       2.07480010      10.37400052
P        4.40131567       2.07480010      12.44880062
In       0.00000000       0.00000000      12.44880062
P        1.46710522       0.00000000      14.52360072
In       2.93421045       2.07480010      14.52360072
P        4.40131567       2.07480010      16.59840083
In       0.00000000       0.00000000      16.59840083
P        1.46710522       0.00000000      18.67320093
In       2.93421045       2.07480010      18.67320093
P        4.40131567       2.07480010      20.74800104
In       0.00000000       0.00000000      20.74800104
P        1.46710522       0.00000000      22.82280114
In       2.93421045       2.07480010      22.82280114
24
Lattice="5.868420891291524 0.0 0.0 0.0 4.14960020708904 0.0 0.0 0.051870002588613 24.897601242534236" Properties=species:S:1:pos:R:3 energy=-83.58383089472899 pbc="T T T"
P        4.40131567       2.07480010      -0.00010462
In       0.00000000       0.00000000      -0.00012249
P        1.46710522       0.00000000       2.07478399
In       2.93421045       2.07480010       2.07478883
P        4.40131567       2.07480010       4.14960021
In       0.00000000       0.00000000       4.14960021
P        1.46710522       0.00000000       6.22440031
In       2.93421045       2.07480010       6.22440031
P        4.40131567       2.07480010       8.29920041
In       0.00000000       0.00000000       8.29920041
P        1.46710522       0.00000000      10.37400052
In       2.93421045       2.07480010      10.37400052
P        4.40131567       2.07480010      12.44880062
In       0.00000000       0.00000000      12.44880062
P        1.46710522       0.00000000      14.52360072
In       2.93421045       2.07480010      14.52360072
P        4.40131567       2.07480010      16.59840083
In       0.00000000       0.00000000      16.59840083
P        1.46710522       0.00000000      18.67320093
In       2.93421045       2.07480010      18.67320093
P        4.40131567       2.07480010      20.74801715
In       0.00000000       0.00000000      20.74801231
P        1.46710522       0.00000000      22.82290576
In       2.93421045       2.07480010      22.82292363
24
Lattice="5.868420891291524 0.0 0.0 0.0 4.14960020708904 0.0 0.0 0.103740005177226 24.897601242534236" Properties=species:S:1:pos:R:3 energy=-83.57708527358076 pbc="T T T"
P        4.40131567       2.07480010      -0.00037614
In       0.00000000       0.00000000      -0.00049159
P        1.46710522       0.00000000       2.07457259
In       2.93421045       2.07480010       2.07461563
P        4.40131567       2.07480010       4.14956984
In       0.00000000       0.00000000       4.14956153
P        1.46710522       0.00000000       6.22439670
In       2.93421045       2.07480010       6.22439988
P        4.40131567       2.07480010       8.29920041
In       0.00000000       0.00000000       8.29920041
P        1.46710522       0.00000000      10.37400052
In       2.93421045       2.07480010      10.37400052
P        4.40131567       2.07480010      12.44880062
In       0.00000000       0.00000000      12.44880062
P        1.46710522       0.00000000      14.52360072
In       2.93421045       2.07480010      14.52360072
P        4.40131567       2.07480010      16.59840444
In       0.00000000       0.00000000      16.59840125
P        1.46710522       0.00000000      18.67323130
In       2.93421045       2.07480010      18.67323961
P        4.40131567       2.07480010      20.74822855
In       0.00000000       0.00000000      20.74818551
P        1.46710522       0.00000000      22.82317728
In       2.93421045       2.07480010      22.82329273
24
Lattice="5.868420891291524 0.0 0.0 0.0 4.14960020708904 0.0 0.0 0.155610007765839 24.897601242534236" Properties=species:S:1:pos:R:3 energy=-83.56596176446214 pbc="T T T"
P        4.40131567       2.07480010      -0.00089978
In       0.00000000       0.00000000      -0.00126220
P        1.46710522       0.00000000       2.07382027
In       2.93421045       2.07480010       2.07400597
P        4.40131567       2.07480010       4.14912234
In       0.00000000       0.00000000       4.14901092
P        1.46710522       0.00000000       6.22412648
In       2.93421045       2.07480010       6.22419274
P        4.40131567       2.07480010       8.29915066
In       0.00000000       0.00000000       8.29912570
P        1.46710522       0.00000000      10.37398537
In       2.93421045       2.07480010      10.37399936
P        4.40131567       2.07480010      12.44881577
In       0.00000000       0.00000000      12.44880178
P        1.46710522       0.00000000      14.52365048
In       2.93421045       2.07480010      14.52367544
P        4.40131567       2.07480010      16.59867466
In       0.00000000       0.00000000      16.59860840
P        1.46710522       0.00000000      18.67367880
In       2.93421045       2.07480010      18.67379021
P        4.40131567       2.07480010      20.74898087
In       0.00000000       0.00000000      20.74879517
P        1.46710522       0.00000000      22.82370092
In       2.93421045       2.07480010      22.82406334
24
Lattice="5.868420891291524 0.0 0.0 0.0 4.14960020708904 0.0 0.0 0.207480010354452 24.897601242534236" Properties=species:S:1:pos:R:3 energy=-83.55070082587882 pbc="T T T"
P        4.40131567       2.07480010      -0.00131975
In       0.00000000       0.00000000      -0.00195272
P        1.46710522       0.00000000       2.07355191
In       2.93421045       2.07480010       2.07388913
P        4.40131567       2.07480010       4.14905849
In       0.00000000       0.00000000       4.14886743
P        1.46710522       0.00000000       6.22407594
In       2.93421045       2.07480010       6.22418591
P        4.40131567       2.07480010       8.29916397
In       0.00000000       0.00000000       8.29911878
P        1.46710522       0.00000000      10.37398300
In       2.93421045       2.07480010      10.37400570
P        4.40131567       2.07480010      12.44881814
In       0.00000000       0.00000000      12.44879544
P        1.46710522       0.00000000      14.52363717
In       2.93421045       2.07480010      14.52368236
P        4.40131567       2.07480010      16.59872520
In       0.00000000       0.00000000      16.59861523
P        1.46710522       0.00000000      18.67374265
In       2.93421045       2.07480010      18.67393371
P        4.40131567       2.07480010      20.74924922
In       0.00000000       0.00000000      20.74891201
P        1.46710522       0.00000000      22.82412089
In       2.93421045       2.07480010      22.82475386
24
Lattice="5.868420891291524 0.0 0.0 0.0 4.14960020708904 0.0 0.0 0.259350012943065 24.897601242534236" Properties=species:S:1:pos:R:3 energy=-83.53219878640873 pbc="T T T"
P        4.40131567       2.07480010      -0.00154896
In       0.00000000       0.00000000      -0.00249464
P        1.46710522       0.00000000       2.07376962
In       2.93421045       2.07480010       2.07429300
P        4.40131567       2.07480010       4.14927429
In       0.00000000       0.00000000       4.14899592
P        1.46710522       0.00000000       6.22415788
In       2.93421045       2.07480010       6.22431213
P        4.40131567       2.07480010       8.29922047
In       0.00000000       0.00000000       8.29915126
P        1.46710522       0.00000000      10.37398755
In       2.93421045       2.07480010      10.37401815
P        4.40131567       2.07480010      12.44881359
In       0.00000000       0.00000000      12.44878299
P        1.46710522       0.00000000      14.52358067
In       2.93421045       2.07480010      14.52364988
P        4.40131567       2.07480010      16.59864326
In       0.00000000       0.00000000      16.59848901
P        1.46710522       0.00000000      18.67352685
In       2.93421045       2.07480010      18.67380521
P        4.40131567       2.07480010      20.74903152
In       0.00000000       0.00000000      20.74850814
P        1.46710522       0.00000000      22.82435010
In       2.93421045       2.07480010      22.82529578
24
Lattice="5.868420891291524 0.0 0.0 0.0 4.14960020708904 0.0 0.0 0.311220015531678 24.897601242534236" Properties=species:S:1:pos:R:3 energy=-83.51085957813362 pbc="T T T"
P        4.40131567       2.07480010      -0.00198808
In       0.00000000       0.00000000      -0.00333345
P        1.46710522       0.00000000       2.07373727
In       2.93421045       2.07480010       2.07448406
P        4.40131567       2.07480010       4.14936283
In       0.00000000       0.00000000       4.14897528
P        1.46710522       0.00000000       6.22417025
In       2.93421045       2.07480010       6.22438067
P        4.40131567       2.07480010       8.29926039
In       0.00000000       0.00000000       8.29916349
P        1.46710522       0.00000000      10.37398799
In       2.93421045       2.07480010      10.37402923
P        4.40131567       2.07480010      12.44881315
In       0.00000000       0.00000000      12.44877191
P        1.46710522       0.00000000      14.52354075
In       2.93421045       2.07480010      14.52363765
P        4.40131567       2.07480010      16.59863089
In       0.00000000       0.00000000      16.59842046
P        1.46710522       0.00000000      18.67343831
In       2.93421045       2.07480010      18.67382586
P        4.40131567       2.07480010      20.74906387
In       0.00000000       0.00000000      20.74831708
P        1.46710522       0.00000000      22.82478922
In       2.93421045       2.07480010      22.82613459
24
Lattice="5.868420891291524 0.0 0.0 0.0 4.14960020708904 0.0 0.0 0.363090018120291 24.897601242534236" Properties=species:S:1:pos:R:3 energy=-83.4869483821716 pbc="T T T"
P        4.40131567       2.07480010      -0.00274882
In       0.00000000       0.00000000      -0.00465523
P        1.46710522       0.00000000       2.07318667
In       2.93421045       2.07480010       2.07428042
P        4.40131567       2.07480010       4.14893154
In       0.00000000       0.00000000       4.14831574
P        1.46710522       0.00000000       6.22360906
In       2.93421045       2.07480010       6.22400453
P        4.40131567       2.07480010       8.29905370
In       0.00000000       0.00000000       8.29876428
P        1.46710522       0.00000000      10.37381092
In       2.93421045       2.07480010      10.37402494
P        4.40131567       2.07480010      12.44899021
In       0.00000000       0.00000000      12.44877620
P        1.46710522       0.00000000      14.52374744
In       2.93421045       2.07480010      14.52403686
P        4.40131567       2.07480010      16.59919208
In       0.00000000       0.00000000      16.59879661
P        1.46710522       0.00000000      18.67386960
In       2.93421045       2.07480010      18.67448540
P        4.40131567       2.07480010      20.74961446
In       0.00000000       0.00000000      20.74852072
P        1.46710522       0.00000000      22.82554996
In       2.93421045       2.07480010      22.82745636
24
Lattice="5.868420891291524 0.0 0.0 0.0 4.14960020708904 0.0 0.0 0.414960020708904 24.897601242534236" Properties=species:S:1:pos:R:3 energy=-83.46074055261133 pbc="T T T"
P        4.40131567       2.07480010      -0.00363111
In       0.00000000       0.00000000      -0.00609745
P        1.46710522       0.00000000       2.07263766
In       2.93421045       2.07480010       2.07393512
P        4.40131567       2.07480010       4.14859909
In       0.00000000       0.00000000       4.14779737
P        1.46710522       0.00000000       6.22317326
In       2.93421045       2.07480010       6.22367977
P        4.40131567       2.07480010       8.29879730
In       0.00000000       0.00000000       8.29847522
P        1.46710522       0.00000000      10.37367159
In       2.93421045       2.07480010      10.37397289
P        4.40131567       2.07480010      12.44912955
In       0.00000000       0.00000000      12.44882825
P        1.46710522       0.00000000      14.52400384
In       2.93421045       2.07480010      14.52432592
P        4.40131567       2.07480010      16.59962788
In       0.00000000       0.00000000      16.59912137
P        1.46710522       0.00000000      18.67420205
In       2.93421045       2.07480010      18.67500377
P        4.40131567       2.07480010      20.75016348
In       0.00000000       0.00000000      20.74886602
P        1.46710522       0.00000000      22.82643225
In       2.93421045       2.07480010      22.82889859
24
Lattice="5.868420891291524 0.0 0.0 0.0 4.14960020708904 0.0 0.0 0.4668300232975161 24.897601242534236" Properties=species:S:1:pos:R:3 energy=-83.43251852025762 pbc="T T T"
P        4.40131567       2.07480010      -0.00469304
In       0.00000000       0.00000000      -0.00786392
P        1.46710522      -0.00000000       2.07179603
In       2.93421045       2.07480010       2.07345260
P        4.40131567       2.07480010       4.14814478
In       0.00000000      -0.00000000       4.14711359
P        1.46710522      -0.00000000       6.22269925
In       2.93421045       2.07480010       6.22335214
P        4.40131567       2.07480010       8.29860980
In       0.00000000      -0.00000000       8.29819831
P        1.46710522      -0.00000000      10.37355384
In       2.93421045       2.07480010      10.37394227
P        4.40131567       2.07480010      12.44924729
In       0.00000000      -0.00000000      12.44885887
P        1.46710522      -0.00000000      14.52419134
In       2.93421045       2.07480010      14.52460283
P        4.40131567       2.07480010      16.60010189
In       0.00000000      -0.00000000      16.59944900
P        1.46710522      -0.00000000      18.67465636
In       2.93421045       2.07480010      18.67568754
P        4.40131567       2.07480010      20.75100511
In       0.00000000      -0.00000000      20.74934854
P        1.46710522      -0.00000000      22.82749418
In       2.93421045       2.07480010      22.83066506
24
Lattice="5.868420891291524 0.0 0.0 0.0 4.14960020708904 0.0 0.0 0.51870002588613 24.897601242534236" Properties=species:S:1:pos:R:3 energy=-83.4025585319458 pbc="T T T"
P        4.40131567       2.07480010      -0.00593646
In       0.00000000       0.00000000      -0.00990511
P        1.46710522       0.00000000       2.07071503
In       2.93421045       2.07480010       2.07277318
P        4.40131567       2.07480010       4.14753393
In       0.00000000       0.00000000       4.14624419
P        1.46710522       0.00000000       6.22209076
In       2.93421045       2.07480010       6.22290887
P        4.40131567       2.07480010       8.29835296
In       0.00000000       0.00000000       8.29784165
P        1.46710522       0.00000000      10.37340508
In       2.93421045       2.07480010      10.37389263
P        4.40131567       2.07480010      12.44939606
In       0.00000000       0.00000000      12.44890851
P        1.46710522       0.00000000      14.52444817
In       2.93421045       2.07480010      14.52495949
P        4.40131567       2.07480010      16.60071038
In       0.00000000       0.00000000      16.59989227
P        1.46710522       0.00000000      18.67526721
In       2.93421045       2.07480010      18.67655694
P        4.40131567       2.07480010      20.75208611
In       0.00000000       0.00000000      20.75002796
P        1.46710522       0.00000000      22.82873760
In       2.93421045       2.07480010      22.83270625
24
Lattice="5.868420891291524 0.0 0.0 0.0 4.14960020708904 0.0 0.0 0.570570028474743 24.897601242534236" Properties=species:S:1:pos:R:3 energy=-83.37112486620363 pbc="T T T"
P        4.40131567       2.07480010      -0.00738035
In       0.00000000       0.00000000      -0.01211076
P        1.46710522       0.00000000       2.06945369
In       2.93421045       2.07480010       2.07193763
P        4.40131567       2.07480010       4.14676756
In       0.00000000       0.00000000       4.14535371
P        1.46710522       0.00000000       6.22145134
In       2.93421045       2.07480010       6.22231944
P        4.40131567       2.07480010       8.29796678
In       0.00000000       0.00000000       8.29735288
P        1.46710522       0.00000000      10.37326862
In       2.93421045       2.07480010      10.37372520
P        4.40131567       2.07480010      12.44953252
In       0.00000000       0.00000000      12.44907593
P        1.46710522       0.00000000      14.52483436
In       2.93421045       2.07480010      14.52544826
P        4.40131567       2.07480010      16.60134980
In       0.00000000       0.00000000      16.60048170
P        1.46710522       0.00000000      18.67603358
In       2.93421045       2.07480010      18.67744743
P        4.40131567       2.07480010      20.75334745
In       0.00000000       0.00000000      20.75086351
P        1.46710522       0.00000000      22.83018148
In       2.93421045       2.07480010      22.83491190
24
Lattice="5.868420891291524 0.0 0.0 0.0 4.14960020708904 0.0 0.0 0.622440031063356 24.897601242534236" Properties=species:S:1:pos:R:3 energy=-83.33846476471804 pbc="T T T"
P        4.40131567       2.07480010      -0.00893965
In       0.00000000       0.00000000      -0.01463087
P        1.46710522       0.00000000       2.06795957
In       2.93421045       2.07480010       2.07092637
P        4.40131567       2.07480010       4.14589524
In       0.00000000       0.00000000       4.14419696
P        1.46710522       0.00000000       6.22064055
In       2.93421045       2.07480010       6.22168086
P        4.40131567       2.07480010       8.29758742
In       0.00000000       0.00000000       8.29684995
P        1.46710522       0.00000000      10.37307926
In       2.93421045       2.07480010      10.37362447
P        4.40131567       2.07480010      12.44972188
In       0.00000000       0.00000000      12.44917667
P        1.46710522       0.00000000      14.52521372
In       2.93421045       2.07480010      14.52595119
P        4.40131567       2.07480010      16.60216059
In       0.00000000       0.00000000      16.60112028
P        1.46710522       0.00000000      18.67690590
In       2.93421045       2.07480010      18.67860417
P        4.40131567       2.07480010      20.75484156
In       0.00000000       0.00000000      20.75187477
P        1.46710522       0.00000000      22.83174079
In       2.93421045       2.07480010      22.83743201
24
Lattice="5.868420891291524 0.0 0.0 0.0 4.14960020708904 0.0 0.0 0.674310033651969 24.897601242534236" Properties=species:S:1:pos:R:3 energy=-83.30497024689248 pbc="T T T"
P        4.40131567       2.07480010      -0.01088072
In       0.00000000       0.00000000      -0.01764048
P        1.46710522       0.00000000       2.06609212
In       2.93421045       2.07480010       2.06958799
P        4.40131567       2.07480010       4.14476018
In       0.00000000       0.00000000       4.14274912
P        1.46710522       0.00000000       6.21962327
In       2.93421045       2.07480010       6.22085234
P        4.40131567       2.07480010       8.29709765
In       0.00000000       0.00000000       8.29622031
P        1.46710522       0.00000000      10.37284653
In       2.93421045       2.07480010      10.37348928
P        4.40131567       2.07480010      12.44995460
In       0.00000000       0.00000000      12.44931186
P        1.46710522       0.00000000      14.52570349
In       2.93421045       2.07480010      14.52658083
P        4.40131567       2.07480010      16.60317787
In       0.00000000       0.00000000      16.60194880
P        1.46710522       0.00000000      18.67804096
In       2.93421045       2.07480010      18.68005202
P        4.40131567       2.07480010      20.75670902
In       0.00000000       0.00000000      20.75321315
P        1.46710522       0.00000000      22.83368186
In       2.93421045       2.07480010      22.84044162
24
Lattice="5.868420891291524 0.0 0.0 0.0 4.14960020708904 0.0 0.0 0.726180036240582 24.897601242534236" Properties=species:S:1:pos:R:3 energy=-83.27105347008055 pbc="T T T"
P        4.40131567       2.07480010      -0.01298139
In       0.00000000       0.00000000      -0.02083461
P        1.46710522       0.00000000       2.06407259
In       2.93421045       2.07480010       2.06808876
P        4.40131567       2.07480010       4.14354381
In       0.00000000       0.00000000       4.14123677
P        1.46710522       0.00000000       6.21859915
In       2.93421045       2.07480010       6.21995244
P        4.40131567       2.07480010       8.29653883
In       0.00000000       0.00000000       8.29565515
P        1.46710522       0.00000000      10.37261214
In       2.93421045       2.07480010      10.37330029
P        4.40131567       2.07480010      12.45018900
In       0.00000000       0.00000000      12.44950084
P        1.46710522       0.00000000      14.52626231
In       2.93421045       2.07480010      14.52714599
P        4.40131567       2.07480010      16.60420199
In       0.00000000       0.00000000      16.60284870
P        1.46710522       0.00000000      18.67925733
In       2.93421045       2.07480010      18.68156437
P        4.40131567       2.07480010      20.75872855
In       0.00000000       0.00000000      20.75471238
P        1.46710522       0.00000000      22.83578253
In       2.93421045       2.07480010      22.84363574
24
Lattice="5.868420891291524 0.0 0.0 0.0 4.14960020708904 0.0 0.0 0.7780500388291949 24.897601242534236" Properties=species:S:1:pos:R:3 energy=-83.23691678535772 pbc="T T T"
P        4.40131567       2.07480010      -0.01512165
In       0.00000000       0.00000000      -0.02418377
P        1.46710522       0.00000000       2.06189830
In       2.93421045       2.07480010       2.06650895
P        4.40131567       2.07480010       4.14222605
In       0.00000000       0.00000000       4.13956605
P        1.46710522       0.00000000       6.21743021
In       2.93421045       2.07480010       6.21898847
P        4.40131567       2.07480010       8.29596312
In       0.00000000       0.00000000       8.29494560
P        1.46710522       0.00000000      10.37234345
In       2.93421045       2.07480010      10.37313866
P        4.40131567       2.07480010      12.45045769
In       0.00000000       0.00000000      12.44966247
P        1.46710522       0.00000000      14.52683802
In       2.93421045       2.07480010      14.52785553
P        4.40131567       2.07480010      16.60537093
In       0.00000000       0.00000000      16.60381266
P        1.46710522       0.00000000      18.68057509
In       2.93421045       2.07480010      18.68323509
P        4.40131567       2.07480010      20.76090284
In       0.00000000       0.00000000      20.75629218
P        1.46710522       0.00000000      22.83792279
In       2.93421045       2.07480010      22.84698490
24
Lattice="5.868420891291524 0.0 0.0 0.0 4.14960020708904 0.0 0.0 0.829920041417808 24.897601242534236" Properties=species:S:1:pos:R:3 energy=-83.20275331220573 pbc="T T T"
P        4.40131567       2.07480010      -0.01727904
In       0.00000000       0.00000000      -0.02760307
P        1.46710522       0.00000000       2.05963816
In       2.93421045       2.07480010       2.06486966
P        4.40131567       2.07480010       4.14086166
In       0.00000000       0.00000000       4.13783375
P        1.46710522       0.00000000       6.21621856
In       2.93421045       2.07480010       6.21798984
P        4.40131567       2.07480010       8.29536613
In       0.00000000       0.00000000       8.29421040
P        1.46710522       0.00000000      10.37206516
In       2.93421045       2.07480010      10.37297136
P        4.40131567       2.07480010      12.45073598
In       0.00000000       0.00000000      12.44982978
P        1.46710522       0.00000000      14.52743501
In       2.93421045       2.07480010      14.52859074
P        4.40131567       2.07480010      16.60658258
In       0.00000000       0.00000000      16.60481130
P        1.46710522       0.00000000      18.68193947
In       2.93421045       2.07480010      18.68496739
P        4.40131567       2.07480010      20.76316298
In       0.00000000       0.00000000      20.75793148
P        1.46710522       0.00000000      22.84008018
In       2.93421045       2.07480010      22.85040421
24
Lattice="5.868420891291524 0.0 0.0 0.0 4.14960020708904 0.0 0.0 0.881790044006421 24.897601242534236" Properties=species:S:1:pos:R:3 energy=-83.16875228515026 pbc="T T T"
P        4.40131567       2.07480010      -0.01939029
In       0.00000000       0.00000000      -0.03101324
P        1.46710522       0.00000000       2.05734793
In       2.93421045       2.07480010       2.06322009
P        4.40131567       2.07480010       4.13948960
In       0.00000000       0.00000000       4.13608348
P        1.46710522       0.00000000       6.21499512
In       2.93421045       2.07480010       6.21698483
P        4.40131567       2.07480010       8.29476458
In       0.00000000       0.00000000       8.29346818
P        1.46710522       0.00000000      10.37178407
In       2.93421045       2.07480010      10.37280348
P        4.40131567       2.07480010      12.45101707
In       0.00000000       0.00000000      12.44999766
P        1.46710522       0.00000000      14.52803656
In       2.93421045       2.07480010      14.52933296
P        4.40131567       2.07480010      16.60780602
In       0.00000000       0.00000000      16.60581631
P        1.46710522       0.00000000      18.68331154
In       2.93421045       2.07480010      18.68671766
P        4.40131567       2.07480010      20.76545321
In       0.00000000       0.00000000      20.75958105
P        1.46710522       0.00000000      22.84219143
In       2.93421045       2.07480010      22.85381438
24
Lattice="5.868420891291524 0.0 0.0 0.0 4.14960020708904 0.0 0.0 0.9336600465950319 24.897601242534236" Properties=species:S:1:pos:R:3 energy=-83.13510582200803 pbc="T T T"
P        4.40131567       2.07480010      -0.02137931
In       0.00000000       0.00000000      -0.03431925
P        1.46710522      -0.00000000       2.05509437
In       2.93421045       2.07480010       2.06161932
P        4.40131567       2.07480010       4.13815660
In       0.00000000      -0.00000000       4.13436727
P        1.46710522      -0.00000000       6.21379663
In       2.93421045       2.07480010       6.21600734
P        4.40131567       2.07480010       8.29417863
In       0.00000000      -0.00000000       8.29274116
P        1.46710522      -0.00000000      10.37150816
In       2.93421045       2.07480010      10.37264127
P        4.40131567       2.07480010      12.45129298
In       0.00000000      -0.00000000      12.45015987
P        1.46710522      -0.00000000      14.52862251
In       2.93421045       2.07480010      14.53005998
P        4.40131567       2.07480010      16.60900451
In       0.00000000      -0.00000000      16.60679380
P        1.46710522      -0.00000000      18.68464454
In       2.93421045       2.07480010      18.68843387
P        4.40131567       2.07480010      20.76770677
In       0.00000000      -0.00000000      20.76118182
P        1.46710522      -0.00000000      22.84418045
In       2.93421045       2.07480010      22.85712039
24
Lattice="5.868420891291524 0.0 0.0 0.0 4.14960020708904 0.0 0.0 0.985530049183647 24.897601242534236" Properties=species:S:1:pos:R:3 energy=-83.1020161034882 pbc="T T T"
P        4.40131567       2.07480010      -0.02315578
In       0.00000000       0.00000000      -0.03740854
P        1.46710522       0.00000000       2.05295665
In       2.93421045       2.07480010       2.06013757
P        4.40131567       2.07480010       4.13691828
In       0.00000000       0.00000000       4.13274687
P        1.46710522       0.00000000       6.21266655
In       2.93421045       2.07480010       6.21509759
P        4.40131567       2.07480010       8.29363227
In       0.00000000       0.00000000       8.29205576
P        1.46710522       0.00000000      10.37124687
In       2.93421045       2.07480010      10.37249219
P        4.40131567       2.07480010      12.45155427
In       0.00000000       0.00000000      12.45030895
P        1.46710522       0.00000000      14.52916887
In       2.93421045       2.07480010      14.53074538
P        4.40131567       2.07480010      16.61013459
In       0.00000000       0.00000000      16.60770355
P        1.46710522       0.00000000      18.68588285
In       2.93421045       2.07480010      18.69005426
P        4.40131567       2.07480010      20.76984449
In       0.00000000       0.00000000      20.76266357
P        1.46710522       0.00000000      22.84595692
In       2.93421045       2.07480010      22.86020968
24
Lattice="5.868420891291524 0.0 0.0 0.0 4.14960020708904 0.0 0.0 1.03740005177226 24.897601242534236" Properties=species:S:1:pos:R:3 energy=-83.06970287833389 pbc="T T T"
P        4.40131567       2.07480010      -0.02461381
In       0.00000000       0.00000000      -0.04014934
P        1.46710522       0.00000000       2.05102786
In       2.93421045       2.07480010       2.05885750
P        4.40131567       2.07480010       4.13584025
In       0.00000000       0.00000000       4.13129498
P        1.46710522       0.00000000       6.21165612
In       2.93421045       2.07480010       6.21430306