24
Lattice="4.149600207089039 0.0 0.0 -8.787921425938613e-17 7.18731838977655 8.881784197001252e-16 2.840293687619148e-15 0.0 20.328806287831107" Properties=species:S:1:pos:R:3 energy=-83.58609138917677 pbc="T T T"
In       2.07480010       3.59365919       0.00000000
P        2.07480010       3.59365919       2.54110079
In       0.00000000       0.00000000       0.00000000
P        0.00000000       0.00000000       2.54110079
In       0.00000000       2.39577280       3.38813438
P        0.00000000       2.39577280       5.92923517
In       2.07480010       5.98943199       3.38813438
P        2.07480010       5.98943199       5.92923517
In       2.07480010       1.19788640       6.77626876
P        2.07480010       1.19788640       9.31736955
In       0.00000000       4.79154559       6.77626876
P        0.00000000       4.79154559       9.31736955
In       2.07480010       3.59365919      10.16440314
P        2.07480010       3.59365919      12.70550393
In       0.00000000       0.00000000      10.16440314
P        0.00000000       0.00000000      12.70550393
In       0.00000000       2.39577280      13.55253753
P        0.00000000       2.39577280      16.09363831
In       2.07480010       5.98943199      13.55253753
P        2.07480010       5.98943199      16.09363831
In       2.07480010       1.19788640      16.94067191
P        2.07480010       1.19788640      19.48177269
In       0.00000000       4.79154559      16.94067191
P        0.00000000       4.79154559      19.48177269
24
Lattice="4.149600207089039 0.0 0.0 -8.78792142593861e-17 7.18731838977655 8.881784197001252e-16 2.840293687619147e-15 0.02994715995740229 20.328806287831107" Properties=species:S:1:pos:R:3 energy=-83.57857593027387 pbc="T T T"
In       2.07480010       3.59365919       0.00057446
P        2.07480010       3.59365919       2.54127701
In      -0.00000000       0.00000000       0.00057446
P        0.00000000       0.00000000       2.54127701
In       0.00000000       2.39577280       3.38824191
P        0.00000000       2.39577280       5.92923664
In       2.07480010       5.98943199       3.38824191
P        2.07480010       5.98943199       5.92923664
In       2.07480010       1.19788640       6.77626857
P        2.07480010       1.19788640       9.31736955
In       0.00000000       4.79154559       6.77626857
P        0.00000000       4.79154559       9.31736955
In       2.07480010       3.59365919      10.16440314
P        2.07480010       3.59365919      12.70550385
In       0.00000000       0.00000000      10.16440314
P        0.00000000       0.00000000      12.70550385
In       0.00000000       2.39577280      13.55253653
P        0.00000000       2.39577280      16.09351667
In       2.07480010       5.98943199      13.55253653
P        2.07480010       5.98943199      16.09351667
In       2.07480010       1.19788640      16.94048276
P        2.07480010       1.19788640      19.48122506
In       0.00000000       4.79154559      16.94048276
P        0.00000000       4.79154559      19.48122506
24
Lattice="4.149600207089039 0.0 0.0 -8.787921425938603e-17 7.18731838977655 8.881784197001252e-16 2.8402936876191448e-15 0.05989431991480458 20.328806287831107" Properties=species:S:1:pos:R:3 energy=-83.55704348511817 pbc="T T T"
In       2.07480010       3.59365919       0.00262114
P        2.07480010       3.59365919       2.54275069
In      -0.00000000       0.00000000       0.00262114
P        0.00000000       0.00000000       2.54275069
In       0.00000000       2.39577280       3.38989297
P        0.00000000       2.39577280       5.93047839
In       2.07480010       5.98943199       3.38989297
P        2.07480010       5.98943199       5.93047839
In       2.07480010       1.19788640       6.77693860
P        2.07480010       1.19788640       9.31765816
In       0.00000000       4.79154559       6.77693860
P        0.00000000       4.79154559       9.31765816
In       2.07480010       3.59365919      10.16406060
P        2.07480010       3.59365919      12.70479362
In       0.00000000       0.00000000      10.16406060
P        0.00000000       0.00000000      12.70479362
In       0.00000000       2.39577280      13.55125435
P        0.00000000       2.39577280      16.09185146
In       2.07480010       5.98943199      13.55125435
P        2.07480010       5.98943199      16.09185146
In       2.07480010       1.19788640      16.93899435
P        2.07480010       1.19788640      19.47934182
In       0.00000000       4.79154559      16.93899435
P        0.00000000       4.79154559      19.47934182
24
Lattice="4.149600207089039 0.0 0.0 -8.787921425938602e-17 7.18731838977655 8.881784197001252e-16 2.8402936876191444e-15 0.08984147987220688 20.328806287831107" Properties=species:S:1:pos:R:3 energy=-83.52302350773337 pbc="T T T"
In       2.07480010       3.59365919       0.00564907
P        2.07480010       3.59365919       2.54458114
In      -0.00000000       0.00000000       0.00564907
P        0.00000000       0.00000000       2.54458114
In       0.00000000       2.39577280       3.39196771
P        0.00000000       2.39577280       5.93194132
In       2.07480010       5.98943199       3.39196771
P        2.07480010       5.98943199       5.93194132
In       2.07480010       1.19788640       6.77784701
P        2.07480010       1.19788640       9.31794585
In       0.00000000       4.79154559       6.77784701
P        0.00000000       4.79154559       9.31794585
In       2.07480010       3.59365919      10.16372073
P        2.07480010       3.59365919      12.70382177
In       0.00000000       0.00000000      10.16372073
P        0.00000000       0.00000000      12.70382177
In       0.00000000       2.39577280      13.54972661
P        0.00000000       2.39577280      16.08977756
In       2.07480010       5.98943199      13.54972661
P        2.07480010       5.98943199      16.08977756
In       2.07480010       1.19788640      16.93716010
P        2.07480010       1.19788640      19.47649728
In       0.00000000       4.79154559      16.93716010
P        0.00000000       4.79154559      19.47649728
24
Lattice="4.149600207089039 0.0 0.0 -8.7879214259386e-17 7.18731838977655 8.881784197001252e-16 2.840293687619144e-15 0.11978863982960916 20.328806287831107" Properties=species:S:1:pos:R:3 energy=-83.47805293154552 pbc="T T T"
In       2.07480010       3.59365919       0.00968597
P        2.07480010       3.59365919       2.54708756
In      -0.00000000       0.00000000       0.00968597
P        0.00000000       0.00000000       2.54708756
In       0.00000000       2.39577280       3.39465267
P        0.00000000       2.39577280       5.93386965
In       2.07480010       5.98943199       3.39465267
P        2.07480010       5.98943199       5.93386965
In       2.07480010       1.19788640       6.77891413
P        2.07480010       1.19788640       9.31843700
In       0.00000000       4.79154559       6.77891413
P        0.00000000       4.79154559       9.31843700
In       2.07480010       3.59365919      10.16316109
P        2.07480010       3.59365919      12.70268042
In       0.00000000       0.00000000      10.16316109
P        0.00000000       0.00000000      12.70268042
In       0.00000000       2.39577280      13.54772527
P        0.00000000       2.39577280      16.08707125
In       2.07480010       5.98943199      13.54772527
P        2.07480010       5.98943199      16.08707125
In       2.07480010       1.19788640      16.93463756
P        2.07480010       1.19788640      19.47271358
In       0.00000000       4.79154559      16.93463756
P        0.00000000       4.79154559      19.47271358
24
Lattice="4.149600207089039 0.0 0.0 -8.7879214259386e-17 7.18731838977655 8.881784197001252e-16 2.840293687619144e-15 0.14973579978701118 20.328806287831107" Properties=species:S:1:pos:R:3 energy=-83.42364942873726 pbc="T T T"
In       2.07480010       3.59365919       0.01462711
P        2.07480010       3.59365919       2.55017883
In      -0.00000000      -0.00000000       0.01462711
P        0.00000000       0.00000000       2.55017883
In       0.00000000       2.39577280       3.39800069
P        0.00000000       2.39577280       5.93625449
In       2.07480010       5.98943199       3.39800069
P        2.07480010       5.98943199       5.93625449
In       2.07480010       1.19788640       6.78027214
P        2.07480010       1.19788640       9.31898860
In       0.00000000       4.79154559       6.78027214
P        0.00000000       4.79154559       9.31898860
In       2.07480010       3.59365919      10.16252441
P        2.07480010       3.59365919      12.70123359
In       0.00000000      -0.00000000      10.16252441
P        0.00000000      -0.00000000      12.70123359
In       0.00000000       2.39577280      13.54525205
P        0.00000000       2.39577280      16.08370094
In       2.07480010       5.98943199      13.54525205
P        2.07480010       5.98943199      16.08370094
In       2.07480010       1.19788640      16.93152454
P        2.07480010       1.19788640      19.46807876
In       0.00000000       4.79154559      16.93152454
P        0.00000000       4.79154559      19.46807876
24
Lattice="4.149600207089039 0.0 0.0 -8.7879214259386e-17 7.18731838977655 8.881784197001252e-16 2.840293687619144e-15 0.17968295974441376 20.328806287831107" Properties=species:S:1:pos:R:3 energy=-83.36130014174846 pbc="T T T"
In       2.07480010       3.59365919       0.02036643
P        2.07480010       3.59365919       2.55380009
In      -0.00000000       0.00000000       0.02036643
P        0.00000000       0.00000000       2.55380009
In       0.00000000       2.39577280       3.40190638
P        0.00000000       2.39577280       5.93904101
In       2.07480010       5.98943199       3.40190638
P        2.07480010       5.98943199       5.93904101
In       2.07480010       1.19788640       6.78185553
P        2.07480010       1.19788640       9.31963306
In       0.00000000       4.79154559       6.78185553
P        0.00000000       4.79154559       9.31963306
In       2.07480010       3.59365919      10.16178425
P        2.07480010       3.59365919      12.69954859
In       0.00000000       0.00000000      10.16178425
P        0.00000000       0.00000000      12.69954859
In       0.00000000       2.39577280      13.54236479
P        0.00000000       2.39577280      16.07977141
In       2.07480010       5.98943199      13.54236479
P        2.07480010       5.98943199      16.07977141
In       2.07480010       1.19788640      16.92787942
P        2.07480010       1.19788640      19.46268518
In       0.00000000       4.79154559      16.92787942
P        0.00000000       4.79154559      19.46268518
24
Lattice="4.149600207089039 0.0 0.0 -8.7879214259386e-17 7.18731838977655 8.881784197001252e-16 2.840293687619144e-15 0.20963011970181578 20.328806287831107" Properties=species:S:1:pos:R:3 energy=-83.29245147782778 pbc="T T T"
In       2.07480010       3.59365919       0.02681324
P        2.07480010       3.59365919       2.55790590
In      -0.00000000      -0.00000000       0.02681324
P        0.00000000       0.00000000       2.55790590
In       0.00000000       2.39577280       3.40631247
P        0.00000000       2.39577280       5.94219180
In       2.07480010       5.98943199       3.40631247
P        2.07480010       5.98943199       5.94219180
In       2.07480010       1.19788640       6.78363996
P        2.07480010       1.19788640       9.32036150
In       0.00000000       4.79154559       6.78363996
P        0.00000000       4.79154559       9.32036150
In       2.07480010       3.59365919      10.16095176
P        2.07480010       3.59365919      12.69765229
In       0.00000000      -0.00000000      10.16095176
P        0.00000000      -0.00000000      12.69765229
In       0.00000000       2.39577280      13.53910335
P        0.00000000       2.39577280      16.07534106
In       2.07480010       5.98943199      13.53910335
P        2.07480010       5.98943199      16.07534106
In       2.07480010       1.19788640      16.92374790
P        2.07480010       1.19788640      19.45661494
In       0.00000000       4.79154559      16.92374790
P        0.00000000       4.79154559      19.45661494
24
Lattice="4.149600207089039 0.0 0.0 -8.7879214259386e-17 7.18731838977655 8.881784197001252e-16 2.840293687619144e-15 0.23957727965921832 20.328806287831107" Properties=species:S:1:pos:R:3 energy=-83.21850135531038 pbc="T T T"
In       2.07480010       3.59365919       0.03392666
P        2.07480010       3.59365919       2.56249998
In      -0.00000000       0.00000000       0.03392666
P        0.00000000       0.00000000       2.56249998
In       0.00000000       2.39577280       3.41120712
P        0.00000000       2.39577280       5.94570032
In       2.07480010       5.98943199       3.41120712
P        2.07480010       5.98943199       5.94570032
In       2.07480010       1.19788640       6.78561825
P        2.07480010       1.19788640       9.32117444
In       0.00000000       4.79154559       6.78561825
P        0.00000000       4.79154559       9.32117444
In       2.07480010       3.59365919      10.16002925
P        2.07480010       3.59365919      12.69554953
In       0.00000000       0.00000000      10.16002925
P        0.00000000       0.00000000      12.69554953
In       0.00000000       2.39577280      13.53546960
P        0.00000000       2.39577280      16.07041943
In       2.07480010       5.98943199      13.53546960
P        2.07480010       5.98943199      16.07041943
In       2.07480010       1.19788640      16.91911506
P        2.07480010       1.19788640      19.44992652
In       0.00000000       4.79154559      16.91911506
P        0.00000000       4.79154559      19.44992652
24
Lattice="4.149600207089039 0.0 0.0 -8.7879214259386e-17 7.18731838977655 8.881784197001252e-16 2.840293687619144e-15 0.2695244396166206 20.328806287831107" Properties=species:S:1:pos:R:3 energy=-83.14110390308804 pbc="T T T"
In       2.07480010       3.59365919       0.04201807
P        2.07480010       3.59365919       2.56821369
In      -0.00000000       0.00000000       0.04201807
P        0.00000000       0.00000000       2.56821369
In       0.00000000       2.39577280       3.41709931
P        0.00000000       2.39577280       5.94996171
In       2.07480010       5.98943199       3.41709931
P        2.07480010       5.98943199       5.94996171
In       2.07480010       1.19788640       6.78800355
P        2.07480010       1.19788640       9.32216737
In       0.00000000       4.79154559       6.78800355
P        0.00000000       4.79154559       9.32216737
In       2.07480010       3.59365919      10.15891202
P        2.07480010       3.59365919      12.69303235
In       0.00000000       0.00000000      10.15891202
P        0.00000000       0.00000000      12.69303235
In       0.00000000       2.39577280      13.53108120
P        0.00000000       2.39577280      16.06450822
In       2.07480010       5.98943199      13.53108120
P        2.07480010       5.98943199      16.06450822
In       2.07480010       1.19788640      16.91336068
P        2.07480010       1.19788640      19.44227799
In       0.00000000       4.79154559      16.91336068
P        0.00000000       4.79154559      19.44227799
24
Lattice="4.149600207089039 0.0 0.0 -8.787921425938599e-17 7.18731838977655 8.881784197001252e-16 2.8402936876191436e-15 0.2994715995740223 20.328806287831107" Properties=species:S:1:pos:R:3 energy=-83.0618031747506 pbc="T T T"
In       2.07480010       3.59365919       0.05055680
P        2.07480010       3.59365919       2.57427387
In      -0.00000000      -0.00000000       0.05055680
P        0.00000000       0.00000000       2.57427387
In       0.00000000       2.39577280       3.42332566
P        0.00000000       2.39577280       5.95447442
In       2.07480010       5.98943199       3.42332566
P        2.07480010       5.98943199       5.95447442
In       2.07480010       1.19788640       6.79051799
P        2.07480010       1.19788640       9.32322409
In       0.00000000       4.79154559       6.79051799
P        0.00000000       4.79154559       9.32322409
In       2.07480010       3.59365919      10.15774121
P        2.07480010       3.59365919      12.69038480
In       0.00000000      -0.00000000      10.15774121
P        0.00000000      -0.00000000      12.69038480
In       0.00000000       2.39577280      13.52643812
P        0.00000000       2.39577280      16.05826589
In       2.07480010       5.98943199      13.52643812
P        2.07480010       5.98943199      16.05826589
In       2.07480010       1.19788640      16.90725323
P        2.07480010       1.19788640      19.43418008
In       0.00000000       4.79154559      16.90725323
P        0.00000000       4.79154559      19.43418008
24
Lattice="4.149600207089039 0.0 0.0 -8.787921425938599e-17 7.18731838977655 8.881784197001252e-16 2.8402936876191436e-15 0.3294187595314252 20.328806287831107" Properties=species:S:1:pos:R:3 energy=-82.98180613155749 pbc="T T T"
In       2.07480010       3.59365919       0.05944039
P        2.07480010       3.59365919       2.58060869
In      -0.00000000       0.00000000       0.05944039
P        0.00000000       0.00000000       2.58060869
In       0.00000000       2.39577280       3.42980858
P        0.00000000       2.39577280       5.95918670
In       2.07480010       5.98943199       3.42980858
P        2.07480010       5.98943199       5.95918670
In       2.07480010       1.19788640       6.79313477
P        2.07480010       1.19788640       9.32433775
In       0.00000000       4.79154559       6.79313477
P        0.00000000       4.79154559       9.32433775
In       2.07480010       3.59365919      10.15651633
P        2.07480010       3.59365919      12.68762944
In       0.00000000       0.00000000      10.15651633
P        0.00000000       0.00000000      12.68762944
In       0.00000000       2.39577280      13.52159109
P        0.00000000       2.39577280      16.05177287
In       2.07480010       5.98943199      13.52159109
P        2.07480010       5.98943199      16.05177287
In       2.07480010       1.19788640      16.90087590
P        2.07480010       1.19788640      19.42573365
In       0.00000000       4.79154559      16.90087590
P        0.00000000       4.79154559      19.42573365
24
Lattice="4.149600207089039 0.0 0.0 -8.787921425938598e-17 7.18731838977655 8.881784197001252e-16 2.8402936876191432e-15 0.3593659194888275 20.328806287831107" Properties=species:S:1:pos:R:3 energy=-82.90220532749754 pbc="T T T"
In       2.07480010       3.59365919       0.06863719
P        2.07480010       3.59365919       2.58708555
In      -0.00000000       0.00000000       0.06863719
P        0.00000000       0.00000000       2.58708555
In       0.00000000       2.39577280       3.43643826
P        0.00000000       2.39577280       5.96413308
In       2.07480010       5.98943199       3.43643826
P        2.07480010       5.98943199       5.96413308
In       2.07480010       1.19788640       6.79591683
P        2.07480010       1.19788640       9.32546968
In       0.00000000       4.79154559       6.79591683
P        0.00000000       4.79154559       9.32546968
In       2.07480010       3.59365919      10.15513216
P        2.07480010       3.59365919      12.68487043
In       0.00000000       0.00000000      10.15513216
P        0.00000000       0.00000000      12.68487043
In       0.00000000       2.39577280      13.51660732
P        0.00000000       2.39577280      16.04501938
In       2.07480010       5.98943199      13.51660732
P        2.07480010       5.98943199      16.04501938
In       2.07480010       1.19788640      16.89423751
P        2.07480010       1.19788640      19.41708876
In       0.00000000       4.79154559      16.89423751
P        0.00000000       4.79154559      19.41708876
24
Lattice="4.149600207089039 0.0 0.0 -8.787921425938597e-17 7.18731838977655 8.881784197001252e-16 2.840293687619143e-15 0.3893130794462298 20.328806287831107" Properties=species:S:1:pos:R:3 energy=-82.82396089659193 pbc="T T T"
In       2.07480010       3.59365919       0.07790562
P        2.07480010       3.59365919       2.59378498
In      -0.00000000       0.00000000       0.07790562
P        0.00000000       0.00000000       2.59378498
In       0.00000000       2.39577280       3.44325221
P        0.00000000       2.39577280       5.96912414
In       2.07480010       5.98943199       3.44325221
P        2.07480010       5.98943199       5.96912414
In       2.07480010       1.19788640       6.79868423
P        2.07480010       1.19788640       9.32665501
In       0.00000000       4.79154559       6.79868423
P        0.00000000       4.79154559       9.32665501
In       2.07480010       3.59365919      10.15385890
P        2.07480010       3.59365919      12.68193679
In       0.00000000       0.00000000      10.15385890
P        0.00000000       0.00000000      12.68193679
In       0.00000000       2.39577280      13.51149262
P        0.00000000       2.39577280      16.03820327
In       2.07480010       5.98943199      13.51149262
P        2.07480010       5.98943199      16.03820327
In       2.07480010       1.19788640      16.88751594
P        2.07480010       1.19788640      19.40822245
In       0.00000000       4.79154559      16.88751594
P        0.00000000       4.79154559      19.40822245
24
Lattice="4.149600207089039 0.0 0.0 -8.787921425938597e-17 7.18731838977655 8.881784197001252e-16 2.840293687619143e-15 0.4192602394036314 20.328806287831107" Properties=species:S:1:pos:R:3 energy=-82.74788703025953 pbc="T T T"
In       2.07480010       3.59365919       0.08723664
P        2.07480010       3.59365919       2.60054868
In      -0.00000000      -0.00000000       0.08723664
P        0.00000000       0.00000000       2.60054868
In       0.00000000       2.39577280       3.45009974
P        0.00000000       2.39577280       5.97417003
In       2.07480010       5.98943199       3.45009974
P        2.07480010       5.98943199       5.97417003
In       2.07480010       1.19788640       6.80147659
P        2.07480010       1.19788640       9.32785595
In       0.00000000       4.79154559       6.80147659
P        0.00000000       4.79154559       9.32785595
In       2.07480010       3.59365919      10.15253006
P        2.07480010       3.59365919      12.67903693
In       0.00000000      -0.00000000      10.15253006
P        0.00000000      -0.00000000      12.67903693
In       0.00000000       2.39577280      13.50633811
P        0.00000000       2.39577280      16.03133106
In       2.07480010       5.98943199      13.50633811
P        2.07480010       5.98943199      16.03133106
In       2.07480010       1.19788640      16.88069809
P        2.07480010       1.19788640      19.39931427
In       0.00000000       4.79154559      16.88069809
P        0.00000000       4.79154559      19.39931427
24
Lattice="4.149600207089039 0.0 0.0 -8.787921425938597e-17 7.18731838977655 8.881784197001252e-16 2.840293687619143e-15 0.4492073993610344 20.328806287831107" Properties=species:S:1:pos:R:3 energy=-82.67464022529089 pbc="T T T"
In       2.07480010       3.59365919       0.09651011
P        2.07480010       3.59365919       2.60731331
In      -0.00000000       0.00000000       0.09651011
P        0.00000000       0.00000000       2.60731331
In       0.00000000       2.39577280       3.45691846
P        0.00000000       2.39577280       5.97921779
In       2.07480010       5.98943199       3.45691846
P        2.07480010       5.98943199       5.97921779
In       2.07480010       1.19788640       6.80426169
P        2.07480010       1.19788640       9.32905850
In       0.00000000       4.79154559       6.80426169
P        0.00000000       4.79154559       9.32905850
In       2.07480010       3.59365919      10.15119561
P        2.07480010       3.59365919      12.67615334
In       0.00000000       0.00000000      10.15119561
P        0.00000000       0.00000000      12.67615334
In       0.00000000       2.39577280      13.50118951
P        0.00000000       2.39577280      16.02448596
In       2.07480010       5.98943199      13.50118951
P        2.07480010       5.98943199      16.02448596
In       2.07480010       1.19788640      16.87388147
P        2.07480010       1.19788640      19.39045042
In       0.00000000       4.79154559      16.87388147
P        0.00000000       4.79154559      19.39045042
24
Lattice="4.149600207089039 0.0 0.0 -8.787921425938597e-17 7.18731838977655 8.881784197001252e-16 2.840293687619143e-15 0.47915455931843665 20.328806287831107" Properties=species:S:1:pos:R:3 energy=-82.6047118861769 pbc="T T T"
In       2.07480010       3.59365919       0.10562168
P        2.07480010       3.59365919       2.61400435
In      -0.00000000       0.00000000       0.10562168
P        0.00000000       0.00000000       2.61400435
In       0.00000000       2.39577280       3.46363744
P        0.00000000       2.39577280       5.98420627
In       2.07480010       5.98943199       3.46363744
P        2.07480010       5.98943199       5.98420627
In       2.07480010       1.19788640       6.80700416
P        2.07480010       1.19788640       9.33025517
In       0.00000000       4.79154559       6.80700416
P        0.00000000       4.79154559       9.33025517
In       2.07480010       3.59365919      10.14987587
P        2.07480010       3.59365919      12.67331855
In       0.00000000       0.00000000      10.14987587
P        0.00000000       0.00000000      12.67331855
In       0.00000000       2.39577280      13.49610489
P        0.00000000       2.39577280      16.01774488
In       2.07480010       5.98943199      13.49610489
P        2.07480010       5.98943199      16.01774488
In       2.07480010       1.19788640      16.86714027
P        2.07480010       1.19788640      19.38172262
In       0.00000000       4.79154559      16.86714027
P        0.00000000       4.79154559      19.38172262
24
Lattice="4.149600207089039 0.0 0.0 -8.787921425938597e-17 7.18731838977655 8.881784197001252e-16 2.840293687619143e-15 0.5091017192758389 20.328806287831107" Properties=species:S:1:pos:R:3 energy=-82.53842499618291 pbc="T T T"
In       2.07480010       3.59365919       0.11448124
P        2.07480010       3.59365919       2.62055285
In      -0.00000000       0.00000000       0.11448124
P        0.00000000       0.00000000       2.62055285
In       0.00000000       2.39577280       3.47018877
P        0.00000000       2.39577280       5.98908571
In       2.07480010       5.98943199       3.47018877
P        2.07480010       5.98943199       5.98908571
In       2.07480010       1.19788640       6.80967781
P        2.07480010       1.19788640       9.33143080
In       0.00000000       4.79154559       6.80967781
P        0.00000000       4.79154559       9.33143080
In       2.07480010       3.59365919      10.14858273
P        2.07480010       3.59365919      12.67055968
In       0.00000000       0.00000000      10.14858273
P        0.00000000       0.00000000      12.67055968
In       0.00000000       2.39577280      13.49113627
P        0.00000000       2.39577280      16.01117348
In       2.07480010       5.98943199      13.49113627
P        2.07480010       5.98943199      16.01117348
In       2.07480010       1.19788640      16.86054479
P        2.07480010       1.19788640      19.37322202
In       0.00000000       4.79154559      16.86054479
P        0.00000000       4.79154559      19.37322202
24
Lattice="4.149600207089039 0.0 0.0 -8.787921425938598e-17 7.18731838977655 8.881784197001252e-16 2.8402936876191432e-15 0.5390488792332412 20.328806287831107" Properties=species:S:1:pos:R:3 energy=-82.47593415054772 pbc="T T T"
In       2.07480010       3.59365919       0.12300366
P        2.07480010       3.59365919       2.62689319
In      -0.00000000       0.00000000       0.12300366
P        0.00000000       0.00000000       2.62689319
In       0.00000000       2.39577280       3.47651046
P        0.00000000       2.39577280       5.99380527
In       2.07480010       5.98943199       3.47651046
P        2.07480010       5.98943199       5.99380527
In       2.07480010       1.19788640       6.81225577
P        2.07480010       1.19788640       9.33257365
In       0.00000000       4.79154559       6.81225577
P        0.00000000       4.79154559       9.33257365
In       2.07480010       3.59365919      10.14732984
P        2.07480010       3.59365919      12.66790269
In       0.00000000       0.00000000      10.14732984
P        0.00000000       0.00000000      12.66790269
In       0.00000000       2.39577280      13.48633403
P        0.00000000       2.39577280      16.00483469
In       2.07480010       5.98943199      13.48633403
P        2.07480010       5.98943199      16.00483469
In       2.07480010       1.19788640      16.85416186
P        2.07480010       1.19788640      19.36503103
In       0.00000000       4.79154559      16.85416186
P        0.00000000       4.79154559      19.36503103
24
Lattice="4.149600207089039 0.0 0.0 -8.787921425938598e-17 7.18731838977655 8.881784197001252e-16 2.8402936876191432e-15 0.5689960391906436 20.328806287831107" Properties=species:S:1:pos:R:3 energy=-82.41722870187891 pbc="T T T"
In       2.07480010       3.59365919       0.13109588
P        2.07480010       3.59365919       2.63297090
In      -0.00000000       0.00000000       0.13109588
P        0.00000000       0.00000000       2.63297090
In       0.00000000       2.39577280       3.48255725
P        0.00000000       2.39577280       5.99825880
In       2.07480010       5.98943199       3.48255725
P        2.07480010       5.98943199       5.99825880
In       2.07480010       1.19788640       6.81467735
P        2.07480010       1.19788640       9.33369581
In       0.00000000       4.79154559       6.81467735
P        0.00000000       4.79154559       9.33369581
In       2.07480010       3.59365919      10.14613874
P        2.07480010       3.59365919      12.66537615