24
Lattice="4.14960020708904 0.0 0.0 0.0 4.14960020708904 0.0 0.0 0.0 35.21052534774914" Properties=species:S:1:pos:R:3 energy=-83.5860913891768 pbc="T T T"
P        2.07480010       0.00000000       4.40131567
In       0.00000000       0.00000000       0.00000000
P        0.00000000       2.07480010       1.46710522
In       2.07480010       2.07480010       2.93421045
P        2.07480010       0.00000000      10.26973656
In       0.00000000       0.00000000       5.86842089
P        0.00000000       2.07480010       7.33552611
In       2.07480010       2.07480010       8.80263134
P        2.07480010       0.00000000      16.13815745
In       0.00000000       0.00000000      11.73684178
P        0.00000000       2.07480010      13.20394701
In       2.07480010       2.07480010      14.67105223
P        2.07480010       0.00000000      22.00657834
In       0.00000000       0.00000000      17.60526267
P        0.00000000       2.07480010      19.07236790
In       2.07480010       2.07480010      20.53947312
P        2.07480010       0.00000000      27.87499923
In       0.00000000       0.00000000      23.47368357
P        0.00000000       2.07480010      24.94078879
In       2.07480010       2.07480010      26.40789401
P        2.07480010       0.00000000      33.74342012
In       0.00000000       0.00000000      29.34210446
P        0.00000000       2.07480010      30.80920968
In       2.07480010       2.07480010      32.27631490
24
Lattice="4.14960020708904 0.0 0.0 0.0 4.14960020708904 0.0 0.0 0.051870002588613 35.21052534774914" Properties=species:S:1:pos:R:3 energy=-83.58389781101482 pbc="T T T"
P        2.07480010       0.00000000       4.40131341
In       0.00000000       0.00000000      -0.00016179
P        0.00000000       2.07480010       1.46718563
In       2.07480010       2.07480010       2.93420704
P        2.07480010       0.00000000      10.26973656
In       0.00000000       0.00000000       5.86842089
P        0.00000000       2.07480010       7.33552611
In       2.07480010       2.07480010       8.80263134
P        2.07480010       0.00000000      16.13815745
In       0.00000000       0.00000000      11.73684178
P        0.00000000       2.07480010      13.20394701
In       2.07480010       2.07480010      14.67105223
P        2.07480010       0.00000000      22.00657834
In       0.00000000       0.00000000      17.60526267
P        0.00000000       2.07480010      19.07236790
In       2.07480010       2.07480010      20.53947312
P        2.07480010       0.00000000      27.87499923
In       0.00000000       0.00000000      23.47368357
P        0.00000000       2.07480010      24.94078879
In       2.07480010       2.07480010      26.40789401
P        2.07480010       0.00000000      33.74356515
In       0.00000000       0.00000000      29.34210667
P        0.00000000       2.07480010      30.80921313
In       2.07480010       2.07480010      32.27625126
24
Lattice="4.14960020708904 0.0 0.0 0.0 4.14960020708904 0.0 0.0 0.103740005177226 35.21052534774914" Properties=species:S:1:pos:R:3 energy=-83.57735359726307 pbc="T T T"
P        2.07480010       0.00000000       4.40130658
In       0.00000000       0.00000000      -0.00064620
P        0.00000000       2.07480010       1.46742625
In       2.07480010       2.07480010       2.93419679
P        2.07480010       0.00000000      10.26973656
In       0.00000000       0.00000000       5.86842089
P        0.00000000       2.07480010       7.33552611
In       2.07480010       2.07480010       8.80263134
P        2.07480010       0.00000000      16.13815745
In       0.00000000       0.00000000      11.73684178
P        0.00000000       2.07480010      13.20394701
In       2.07480010       2.07480010      14.67105223
P        2.07480010       0.00000000      22.00657834
In       0.00000000       0.00000000      17.60526267
P        0.00000000       2.07480010      19.07236790
In       2.07480010       2.07480010      20.53947312
P        2.07480010       0.00000000      27.87499923
In       0.00000000       0.00000000      23.47368357
P        0.00000000       2.07480010      24.94078879
In       2.07480010       2.07480010      26.40789401
P        2.07480010       0.00000000      33.74399903
In       0.00000000       0.00000000      29.34211334
P        0.00000000       2.07480010      30.80922353
In       2.07480010       2.07480010      32.27606118
24
Lattice="4.14960020708904 0.0 0.0 0.0 4.14960020708904 0.0 0.0 0.155610007765839 35.21052534774914" Properties=species:S:1:pos:R:3 energy=-83.56656620992631 pbc="T T T"
P        2.07480010       0.00000000       4.40147240
In       0.00000000       0.00000000      -0.00160341
P        0.00000000       2.07480010       1.46775054
In       2.07480010       2.07480010       2.93431388
P        2.07480010       0.00000000      10.26974370
In       0.00000000       0.00000000       5.86842001
P        0.00000000       2.07480010       7.33551709
In       2.07480010       2.07480010       8.80262439
P        2.07480010       0.00000000      16.13815745
In       0.00000000       0.00000000      11.73684000
P        0.00000000       2.07480010      13.20394711
In       2.07480010       2.07480010      14.67105225
P        2.07480010       0.00000000      22.00657988
In       0.00000000       0.00000000      17.60526268
P        0.00000000       2.07480010      19.07236787
In       2.07480010       2.07480010      20.53947304
P        2.07480010       0.00000000      27.87501079
In       0.00000000       0.00000000      23.47367801
P        0.00000000       2.07480010      24.94079709
In       2.07480010       2.07480010      26.40790303
P        2.07480010       0.00000000      33.74466131
In       0.00000000       0.00000000      29.34202777
P        0.00000000       2.07480010      30.80923437
In       2.07480010       2.07480010      32.27581026
24
Lattice="4.14960020708904 0.0 0.0 0.0 4.14960020708904 0.0 0.0 0.207480010354452 35.21052534774914" Properties=species:S:1:pos:R:3 energy=-83.55170592710998 pbc="T T T"
P        2.07480010       0.00000000       4.40158871
In       0.00000000       0.00000000      -0.00285147
P        0.00000000       2.07480010       1.46822506
In       2.07480010       2.07480010       2.93438260
P        2.07480010       0.00000000      10.26974923
In       0.00000000       0.00000000       5.86842138
P        0.00000000       2.07480010       7.33550938
In       2.07480010       2.07480010       8.80261902
P        2.07480010       0.00000000      16.13815744
In       0.00000000       0.00000000      11.73683862
P        0.00000000       2.07480010      13.20394720
In       2.07480010       2.07480010      14.67105227
P        2.07480010       0.00000000      22.00658107
In       0.00000000       0.00000000      17.60526268
P        0.00000000       2.07480010      19.07236785
In       2.07480010       2.07480010      20.53947297
P        2.07480010       0.00000000      27.87501817
In       0.00000000       0.00000000      23.47367373
P        0.00000000       2.07480010      24.94080352
In       2.07480010       2.07480010      26.40791053
P        2.07480010       0.00000000      33.74562813
In       0.00000000       0.00000000      29.34197281
P        0.00000000       2.07480010      30.80926329
In       2.07480010       2.07480010      32.27544730
24
Lattice="4.14960020708904 0.0 0.0 0.0 4.14960020708904 0.0 0.0 0.259350012943065 35.21052534774914" Properties=species:S:1:pos:R:3 energy=-83.53299559798053 pbc="T T T"
P        2.07480010       0.00000000       4.40173327
In       0.00000000       0.00000000      -0.00445539
P        0.00000000       2.07480010       1.46880429
In       2.07480010       2.07480010       2.93445889
P        2.07480010       0.00000000      10.26975636
In       0.00000000       0.00000000       5.86842557
P        0.00000000       2.07480010       7.33549856
In       2.07480010       2.07480010       8.80261210
P        2.07480010       0.00000000      16.13815744
In       0.00000000       0.00000000      11.73683684
P        0.00000000       2.07480010      13.20394730
In       2.07480010       2.07480010      14.67105230
P        2.07480010       0.00000000      22.00658259
In       0.00000000       0.00000000      17.60526269
P        0.00000000       2.07480010      19.07236783
In       2.07480010       2.07480010      20.53947290
P        2.07480010       0.00000000      27.87502593
In       0.00000000       0.00000000      23.47366822
P        0.00000000       2.07480010      24.94081180
In       2.07480010       2.07480010      26.40792086
P        2.07480010       0.00000000      33.74686942
In       0.00000000       0.00000000      29.34190669
P        0.00000000       2.07480010      30.80931098
In       2.07480010       2.07480010      32.27501407
24
Lattice="4.14960020708904 0.0 0.0 0.0 4.14960020708904 0.0 0.0 0.311220015531678 35.21052534774914" Properties=species:S:1:pos:R:3 energy=-83.5106970503633 pbc="T T T"
P        2.07480010       0.00000000       4.40196881
In       0.00000000       0.00000000      -0.00644092
P        0.00000000       2.07480010       1.46947355
In       2.07480010       2.07480010       2.93450172
P        2.07480010       0.00000000      10.26972351
In       0.00000000       0.00000000       5.86853843
P        0.00000000       2.07480010       7.33561266
In       2.07480010       2.07480010       8.80259571
P        2.07480010       0.00000000      16.13815860
In       0.00000000       0.00000000      11.73685605
P        0.00000000       2.07480010      13.20394785
In       2.07480010       2.07480010      14.67104963
P        2.07480010       0.00000000      22.00656942
In       0.00000000       0.00000000      17.60526171
P        0.00000000       2.07480010      19.07237037
In       2.07480010       2.07480010      20.53947282
P        2.07480010       0.00000000      27.87504743
In       0.00000000       0.00000000      23.47369938
P        0.00000000       2.07480010      24.94082184
In       2.07480010       2.07480010      26.40786621
P        2.07480010       0.00000000      33.74828346
In       0.00000000       0.00000000      29.34185346
P        0.00000000       2.07480010      30.80940005
In       2.07480010       2.07480010      32.27440976
24
Lattice="4.14960020708904 0.0 0.0 0.0 4.14960020708904 0.0 0.0 0.363090018120291 35.21052534774914" Properties=species:S:1:pos:R:3 energy=-83.48509558501407 pbc="T T T"
P        2.07480010       0.00000000       4.40216989
In       0.00000000       0.00000000      -0.00875455
P        0.00000000       2.07480010       1.47019357
In       2.07480010       2.07480010       2.93454690
P        2.07480010       0.00000000      10.26971796
In       0.00000000       0.00000000       5.86856863
P        0.00000000       2.07480010       7.33564545
In       2.07480010       2.07480010       8.80258255
P        2.07480010       0.00000000      16.13815900
In       0.00000000       0.00000000      11.73686133
P        0.00000000       2.07480010      13.20394806
In       2.07480010       2.07480010      14.67104872
P        2.07480010       0.00000000      22.00656614
In       0.00000000       0.00000000      17.60526137
P        0.00000000       2.07480010      19.07237122
In       2.07480010       2.07480010      20.53947278
P        2.07480010       0.00000000      27.87507338
In       0.00000000       0.00000000      23.47370551
P        0.00000000       2.07480010      24.94083379
In       2.07480010       2.07480010      26.40785511
P        2.07480010       0.00000000      33.75002635
In       0.00000000       0.00000000      29.34179061
P        0.00000000       2.07480010      30.80952866
In       2.07480010       2.07480010      32.27386907
24
Lattice="4.14960020708904 0.0 0.0 0.0 4.14960020708904 0.0 0.0 0.414960020708904 35.21052534774914" Properties=species:S:1:pos:R:3 energy=-83.45648833562903 pbc="T T T"
P        2.07480010       0.00000000       4.40246222
In       0.00000000       0.00000000      -0.01155092
P        0.00000000       2.07480010       1.47084124
In       2.07480010       2.07480010       2.93458037
P        2.07480010       0.00000000      10.26972983
In       0.00000000       0.00000000       5.86872209
P        0.00000000       2.07480010       7.33582260
In       2.07480010       2.07480010       8.80267590
P        2.07480010       0.00000000      16.13815241
In       0.00000000       0.00000000      11.73682125
P        0.00000000       2.07480010      13.20396297
In       2.07480010       2.07480010      14.67105614
P        2.07480010       0.00000000      22.00660458
In       0.00000000       0.00000000      17.60526749
P        0.00000000       2.07480010      19.07236475
In       2.07480010       2.07480010      20.53946466
P        2.07480010       0.00000000      27.87515951
In       0.00000000       0.00000000      23.47370375
P        0.00000000       2.07480010      24.94080689
In       2.07480010       2.07480010      26.40783225
P        2.07480010       0.00000000      33.75189458
In       0.00000000       0.00000000      29.34176873
P        0.00000000       2.07480010      30.80965014
In       2.07480010       2.07480010      32.27324807
24
Lattice="4.14960020708904 0.0 0.0 0.0 4.14960020708904 0.0 0.0 0.4668300232975167 35.21052534774914" Properties=species:S:1:pos:R:3 energy=-83.4251698137683 pbc="T T T"
P        2.07480010      -0.00000000       4.40268209
In       0.00000000       0.00000000      -0.01454997
P        0.00000000       2.07480010       1.47159063
In       2.07480010       2.07480010       2.93456447
P        2.07480010      -0.00000000      10.26972841
In       0.00000000      -0.00000000       5.86876978
P        0.00000000       2.07480010       7.33588449
In       2.07480010       2.07480010       8.80268828
P        2.07480010      -0.00000000      16.13815104
In       0.00000000      -0.00000000      11.73681429
P        0.00000000       2.07480010      13.20396729
In       2.07480010       2.07480010      14.67105717
P        2.07480010      -0.00000000      22.00661225
In       0.00000000      -0.00000000      17.60526876
P        0.00000000       2.07480010      19.07236395
In       2.07480010       2.07480010      20.53946232
P        2.07480010      -0.00000000      27.87522361
In       0.00000000      -0.00000000      23.47370879
P        0.00000000       2.07480010      24.94081176
In       2.07480010       2.07480010      26.40782495
P        2.07480010      -0.00000000      33.75407629
In       0.00000000      -0.00000000      29.34175560
P        0.00000000       2.07480010      30.80988225
In       2.07480010       2.07480010      32.27270298
24
Lattice="4.14960020708904 0.0 0.0 0.0 4.14960020708904 0.0 0.0 0.51870002588613 35.21052534774914" Properties=species:S:1:pos:R:3 energy=-83.39142559680747 pbc="T T T"
P        2.07480010       0.00000000       4.40291347
In       0.00000000       0.00000000      -0.01783309
P        0.00000000       2.07480010       1.47235963
In       2.07480010       2.07480010       2.93452437
P        2.07480010       0.00000000      10.26972557
In       0.00000000       0.00000000       5.86883075
P        0.00000000       2.07480010       7.33596053
In       2.07480010       2.07480010       8.80270612
P        2.07480010       0.00000000      16.13814927
In       0.00000000       0.00000000      11.73680530
P        0.00000000       2.07480010      13.20397285
In       2.07480010       2.07480010      14.67105847
P        2.07480010       0.00000000      22.00662184
In       0.00000000       0.00000000      17.60527038
P        0.00000000       2.07480010      19.07236295
In       2.07480010       2.07480010      20.53945930
P        2.07480010       0.00000000      27.87529766
In       0.00000000       0.00000000      23.47371595
P        0.00000000       2.07480010      24.94081589
In       2.07480010       2.07480010      26.40781538
P        2.07480010       0.00000000      33.75642662
In       0.00000000       0.00000000      29.34176289
P        0.00000000       2.07480010      30.81016214
In       2.07480010       2.07480010      32.27215727
24
Lattice="4.14960020708904 0.0 0.0 0.0 4.14960020708904 0.0 0.0 0.570570028474743 35.21052534774914" Properties=species:S:1:pos:R:3 energy=-83.3555262536803 pbc="T T T"
P        2.07480010       0.00000000       4.40313924
In       0.00000000       0.00000000      -0.02168014
P        0.00000000       2.07480010       1.47285513
In       2.07480010       2.07480010       2.93430612
P        2.07480010       0.00000000      10.26988846
In       0.00000000       0.00000000       5.86896405
P        0.00000000       2.07480010       7.33620793
In       2.07480010       2.07480010       8.80294423
P        2.07480010       0.00000000      16.13818369
In       0.00000000       0.00000000      11.73684081
P        0.00000000       2.07480010      13.20390710
In       2.07480010       2.07480010      14.67106746
P        2.07480010       0.00000000      22.00660535
In       0.00000000       0.00000000      17.60524048
P        0.00000000       2.07480010      19.07236764
In       2.07480010       2.07480010      20.53951658
P        2.07480010       0.00000000      27.87553469
In       0.00000000       0.00000000      23.47367741
P        0.00000000       2.07480010      24.94083702
In       2.07480010       2.07480010      26.40795038
P        2.07480010       0.00000000      33.75871638
In       0.00000000       0.00000000      29.34187001
P        0.00000000       2.07480010      30.81053404
In       2.07480010       2.07480010      32.27156742
24
Lattice="4.14960020708904 0.0 0.0 0.0 4.14960020708904 0.0 0.0 0.622440031063356 35.21052534774914" Properties=species:S:1:pos:R:3 energy=-83.31772286896206 pbc="T T T"
P        2.07480010       0.00000000       4.40335563
In       0.00000000       0.00000000      -0.02542292
P        0.00000000       2.07480010       1.47361571
In       2.07480010       2.07480010       2.93419004
P        2.07480010       0.00000000      10.26992049
In       0.00000000       0.00000000       5.86902409
P        0.00000000       2.07480010       7.33632040
In       2.07480010       2.07480010       8.80300265
P        2.07480010       0.00000000      16.13818937
In       0.00000000       0.00000000      11.73684012
P        0.00000000       2.07480010      13.20389616
In       2.07480010       2.07480010      14.67107128
P        2.07480010       0.00000000      22.00661227
In       0.00000000       0.00000000      17.60523581
P        0.00000000       2.07480010      19.07236687
In       2.07480010       2.07480010      20.53952654
P        2.07480010       0.00000000      27.87567805
In       0.00000000       0.00000000      23.47367573
P        0.00000000       2.07480010      24.94084687
In       2.07480010       2.07480010      26.40797803
P        2.07480010       0.00000000      33.76123553
In       0.00000000       0.00000000      29.34195125
P        0.00000000       2.07480010      30.81091503
In       2.07480010       2.07480010      32.27101651
24
Lattice="4.14960020708904 0.0 0.0 0.0 4.14960020708904 0.0 0.0 0.674310033651969 35.21052534774914" Properties=species:S:1:pos:R:3 energy=-83.27827725897848 pbc="T T T"
P        2.07480010       0.00000000       4.40289716
In       0.00000000       0.00000000      -0.02982058
P        0.00000000       2.07480010       1.47351747
In       2.07480010       2.07480010       2.93327393
P        2.07480010       0.00000000      10.27027695
In       0.00000000       0.00000000       5.86865992
P        0.00000000       2.07480010       7.33626620
In       2.07480010       2.07480010       8.80323409
P        2.07480010       0.00000000      16.13816036
In       0.00000000       0.00000000      11.73716905
P        0.00000000       2.07480010      13.20408933
In       2.07480010       2.07480010      14.67107247
P        2.07480010       0.00000000      22.00665047
In       0.00000000       0.00000000      17.60528325
P        0.00000000       2.07480010      19.07241506
In       2.07480010       2.07480010      20.53949229
P        2.07480010       0.00000000      27.87632804
In       0.00000000       0.00000000      23.47387443
P        0.00000000       2.07480010      24.94125541
In       2.07480010       2.07480010      26.40855688
P        2.07480010       0.00000000      33.76358207
In       0.00000000       0.00000000      29.34248613
P        0.00000000       2.07480010      30.81158994
In       2.07480010       2.07480010      32.27073118
24
Lattice="4.14960020708904 0.0 0.0 0.0 4.14960020708904 0.0 0.0 0.726180036240582 35.21052534774914" Properties=species:S:1:pos:R:3 energy=-83.23765169574337 pbc="T T T"
P        2.07480010       0.00000000       4.40106157
In       0.00000000       0.00000000      -0.03486268
P        0.00000000       2.07480010       1.47209159
In       2.07480010       2.07480010       2.93103442
P        2.07480010       0.00000000      10.26941094
In       0.00000000       0.00000000       5.86678844
P        0.00000000       2.07480010       7.33470124
In       2.07480010       2.07480010       8.80189346
P        2.07480010       0.00000000      16.13861926
In       0.00000000       0.00000000      11.73684648
P        0.00000000       2.07480010      13.20423341
In       2.07480010       2.07480010      14.67147254
P        2.07480010       0.00000000      22.00788953
In       0.00000000       0.00000000      17.60575256
P        0.00000000       2.07480010      19.07301799
In       2.07480010       2.07480010      20.54038069
P        2.07480010       0.00000000      27.87781999
In       0.00000000       0.00000000      23.47534889
P        0.00000000       2.07480010      24.94282553
In       2.07480010       2.07480010      26.41002541
P        2.07480010       0.00000000      33.76616481
In       0.00000000       0.00000000      29.34384260
P        0.00000000       2.07480010      30.81321666
In       2.07480010       2.07480010      32.27146615
24
Lattice="4.14960020708904 0.0 0.0 0.0 4.14960020708904 0.0 0.0 0.7780500388291949 35.21052534774914" Properties=species:S:1:pos:R:3 energy=-83.19612356712679 pbc="T T T"
P        2.07480010       0.00000000       4.39972645
In       0.00000000       0.00000000      -0.03944581
P        0.00000000       2.07480010       1.47114828
In       2.07480010       2.07480010       2.92928893
P        2.07480010       0.00000000      10.26853595
In       0.00000000       0.00000000       5.86549022
P        0.00000000       2.07480010       7.33356828
In       2.07480010       2.07480010       8.80087886
P        2.07480010       0.00000000      16.13874082
In       0.00000000       0.00000000      11.73611795
P        0.00000000       2.07480010      13.20372057
In       2.07480010       2.07480010      14.67127792
P        2.07480010       0.00000000      22.00877706
In       0.00000000       0.00000000      17.60619921
P        0.00000000       2.07480010      19.07366223
In       2.07480010       2.07480010      20.54123106
P        2.07480010       0.00000000      27.87919719
In       0.00000000       0.00000000      23.47633409
P        0.00000000       2.07480010      24.94390083
In       2.07480010       2.07480010      26.41120500
P        2.07480010       0.00000000      33.76884599
In       0.00000000       0.00000000      29.34531751
P        0.00000000       2.07480010      30.81494397
In       2.07480010       2.07480010      32.27237893
24
Lattice="4.14960020708904 0.0 0.0 0.0 4.14960020708904 0.0 0.0 0.829920041417808 35.21052534774914" Properties=species:S:1:pos:R:3 energy=-83.15391503126233 pbc="T T T"
P        2.07480010       0.00000000       4.39869716
In       0.00000000       0.00000000      -0.04364905
P        0.00000000       2.07480010       1.47056438
In       2.07480010       2.07480010       2.92790000
P        2.07480010       0.00000000      10.26796449
In       0.00000000       0.00000000       5.86446168
P        0.00000000       2.07480010       7.33272465
In       2.07480010       2.07480010       8.80015547
P        2.07480010       0.00000000      16.13877824
In       0.00000000       0.00000000      11.73569465
P        0.00000000       2.07480010      13.20345756
In       2.07480010       2.07480010      14.67117027
P        2.07480010       0.00000000      22.00937040
In       0.00000000       0.00000000      17.60637973
P        0.00000000       2.07480010      19.07397835
In       2.07480010       2.07480010      20.54169196
P        2.07480010       0.00000000      27.88037560
In       0.00000000       0.00000000      23.47707524
P        0.00000000       2.07480010      24.94477800
In       2.07480010       2.07480010      26.41220316
P        2.07480010       0.00000000      33.77123403
In       0.00000000       0.00000000      29.34655569
P        0.00000000       2.07480010      30.81642867
In       2.07480010       2.07480010      32.27305119
24
Lattice="4.14960020708904 0.0 0.0 0.0 4.14960020708904 0.0 0.0 0.881790044006421 35.21052534774914" Properties=species:S:1:pos:R:3 energy=-83.11126806259168 pbc="T T T"
P        2.07480010       0.00000000       4.39792390
In       0.00000000       0.00000000      -0.04737398
P        0.00000000       2.07480010       1.47030827
In       2.07480010       2.07480010       2.92684464
P        2.07480010       0.00000000      10.26753710
In       0.00000000       0.00000000       5.86366691
P        0.00000000       2.07480010       7.33208263
In       2.07480010       2.07480010       8.79960637
P        2.07480010       0.00000000      16.13883023
In       0.00000000       0.00000000      11.73538337
P        0.00000000       2.07480010      13.20327567
In       2.07480010       2.07480010      14.67111010
P        2.07480010       0.00000000      22.00984979
In       0.00000000       0.00000000      17.60654114
P        0.00000000       2.07480010      19.07424480
In       2.07480010       2.07480010      20.54206987
P        2.07480010       0.00000000      27.88132141
In       0.00000000       0.00000000      23.47767354
P        0.00000000       2.07480010      24.94548237
In       2.07480010       2.07480010      26.41300171
P        2.07480010       0.00000000      33.77313657
In       0.00000000       0.00000000      29.34754064
P        0.00000000       2.07480010      30.81758305
In       2.07480010       2.07480010      32.27340137
24
Lattice="4.14960020708904 0.0 0.0 0.0 4.14960020708904 0.0 0.0 0.9336600465950303 35.21052534774914" Properties=species:S:1:pos:R:3 energy=-83.06845816130432 pbc="T T T"
P        2.07480010      -0.00000000       4.39749658
In       0.00000000       0.00000000      -0.05040943
P        0.00000000       2.07480010       1.47048001
In       2.07480010       2.07480010       2.92624252
P        2.07480010      -0.00000000      10.26730159
In       0.00000000      -0.00000000       5.86318806
P        0.00000000       2.07480010       7.33171102
In       2.07480010       2.07480010       8.79928931
P        2.07480010      -0.00000000      16.13890203
In       0.00000000      -0.00000000      11.73522345
P        0.00000000       2.07480010      13.20320385
In       2.07480010       2.07480010      14.67111566
P        2.07480010      -0.00000000      22.01017339
In       0.00000000      -0.00000000      17.60667403
P        0.00000000       2.07480010      19.07443960
In       2.07480010       2.07480010      20.54233210
P        2.07480010      -0.00000000      27.88194627
In       0.00000000      -0.00000000      23.47807626
P        0.00000000       2.07480010      24.94595046
In       2.07480010       2.07480010      26.41352615
P        2.07480010      -0.00000000      33.77439184
In       0.00000000      -0.00000000      29.34817510
P        0.00000000       2.07480010      30.81828564
In       2.07480010       2.07480010      32.27332602
24
Lattice="4.14960020708904 0.0 0.0 0.0 4.14960020708904 0.0 0.0 0.985530049183647 35.21052534774914" Properties=species:S:1:pos:R:3 energy=-83.02580905747782 pbc="T T T"
P        2.07480010       0.00000000       4.39750274
In       0.00000000       0.00000000      -0.05253610
P        0.00000000       2.07480010       1.47117535
In       2.07480010       2.07480010       2.92621144
P        2.07480010       0.00000000      10.26730588
In       0.00000000       0.00000000       5.86310688
P        0.00000000       2.07480010       7.33167814
In       2.07480010       2.07480010       8.79926254
P        2.07480010       0.00000000      16.13899644
In       0.00000000       0.00000000      11.73525361
P        0.00000000       2.07480010      13.20326916
In       2.07480010       2.07480010      14.67120269
P        2.07480010       0.00000000      22.01029851
In       0.00000000       0.00000000      17.60676749
P        0.00000000       2.07480010      19.07453945
In       2.07480010       2.07480010      20.54244452
P        2.07480010       0.00000000      27.88216326
In       0.00000000       0.00000000      23.47822967
P        0.00000000       2.07480010      24.94611849
In       2.07480010       2.07480010      26.41370325
P        2.07480010       0.00000000      33.77483887
In       0.00000000       0.00000000      29.34836470
P        0.00000000       2.07480010      30.81841770
In       2.07480010       2.07480010      32.27272685
24
Lattice="4.14960020708904 0.0 0.0 0.0 4.14960020708904 0.0 0.0 1.03740005177226 35.21052534774914" Properties=species:S:1:pos:R:3 energy=-82.98370388899573 pbc="T T T"
P        2.07480010       0.00000000       4.39795212
In       0.00000000       0.00000000      -0.05352312
P        0.00000000       2.07480010       1.47242834
In       2.07480010       2.07480010       2.92680682
P        2.07480010       0.00000000      10.26759429
In       0.00000000       0.00000000       5.86344553
P        0.00000000       2.07480010       7.33204620
In       2.07480010       2.07480010       8.79964174