24
Lattice="5.868420891291524 0.0 0.0 0.0 5.868420891291524 0.0 0.0 0.0 17.60526267387457" Properties=species:S:1:pos:R:3 energy=-83.58609138917662 pbc="T T T"
P        4.40131567       1.46710522       1.46710522
In       2.93421045       0.00000000       2.93421045
P        1.46710522       1.46710522       4.40131567
P        4.40131567       4.40131567       4.40131567
In       2.93421045       2.93421045       0.00000000
P        1.46710522       4.40131567       1.46710522
In       0.00000000       0.00000000       0.00000000
In       0.00000000       2.93421045       2.93421045
P        4.40131567       1.46710522       7.33552611
In       2.93421045       0.00000000       8.80263134
P        1.46710522       1.46710522      10.26973656
P        4.40131567       4.40131567      10.26973656
In       2.93421045       2.93421045       5.86842089
P        1.46710522       4.40131567       7.33552611
In       0.00000000       0.00000000       5.86842089
In       0.00000000       2.93421045       8.80263134
P        4.40131567       1.46710522      13.20394701
In       2.93421045       0.00000000      14.67105223
P        1.46710522       1.46710522      16.13815745
P        4.40131567       4.40131567      16.13815745
In       2.93421045       2.93421045      11.73684178
P        1.46710522       4.40131567      13.20394701
In       0.00000000       0.00000000      11.73684178
In       0.00000000       2.93421045      14.67105223
24
Lattice="5.868420891291524 0.0 0.0 0.0 5.868420891291524 0.0 0.0 0.07335526114114405 17.60526267387457" Properties=species:S:1:pos:R:3 energy=-83.56064207929742 pbc="T T T"
P        4.40131567       1.46710522       1.46929802
In       2.93421045       0.00000000       2.93620002
P        1.46710522       1.46710522       4.40254599
P        4.40131567       4.40131567       4.40254599
In       2.93421045       2.93421045       0.00313890
P        1.46710522       4.40131567       1.46929802
In       0.00000000       0.00000000       0.00313890
In       0.00000000       2.93421045       2.93620002
P        4.40131567       1.46710522       7.33572379
In       2.93421045       0.00000000       8.80238565
P        1.46710522       1.46710522      10.26892800
P        4.40131567       4.40131567      10.26892800
In       2.93421045       2.93421045       5.86919500
P        1.46710522       4.40131567       7.33572379
In       0.00000000       0.00000000       5.86919500
In       0.00000000       2.93421045       8.80238565
P        4.40131567       1.46710522      13.20193737
In       2.93421045       0.00000000      14.66883304
P        1.46710522       1.46710522      16.13517986
P        4.40131567       4.40131567      16.13517986
In       2.93421045       2.93421045      11.73557906
P        1.46710522       4.40131567      13.20193737
In       0.00000000       0.00000000      11.73557906
In       0.00000000       2.93421045      14.66883304
24
Lattice="5.868420891291524 0.0 0.0 0.0 5.868420891291524 0.0 0.0 0.1467105222822881 17.60526267387457" Properties=species:S:1:pos:R:3 energy=-83.4871466847611 pbc="T T T"
P        4.40131567       1.46710522       1.47560237
In       2.93421045       0.00000000       2.94186696
P        1.46710522       1.46710522       4.40601352
P        4.40131567       4.40131567       4.40601352
In       2.93421045       2.93421045       0.01215048
P        1.46710522       4.40131567       1.47560237
In       0.00000000       0.00000000       0.01215048
In       0.00000000       2.93421045       2.94186696
P        4.40131567       1.46710522       7.33639618
In       2.93421045       0.00000000       8.80161376
P        1.46710522       1.46710522      10.26666735
P        4.40131567       4.40131567      10.26666735
In       2.93421045       2.93421045       5.87132755
P        1.46710522       4.40131567       7.33639618
In       0.00000000       0.00000000       5.87132755
In       0.00000000       2.93421045       8.80161376
P        4.40131567       1.46710522      13.19624105
In       2.93421045       0.00000000      14.66248189
P        1.46710522       1.46710522      16.12658993
P        4.40131567       4.40131567      16.12658993
In       2.93421045       2.93421045      11.73199368
P        1.46710522       4.40131567      13.19624105
In       0.00000000       0.00000000      11.73199368
In       0.00000000       2.93421045      14.66248189
24
Lattice="5.868420891291524 0.0 0.0 0.0 5.868420891291524 0.0 0.0 0.22006578342343217 17.60526267387457" Properties=species:S:1:pos:R:3 energy=-83.37335363124595 pbc="T T T"
P        4.40131567       1.46710522       1.48547995
In       2.93421045       0.00000000       2.95073220
P        1.46710522       1.46710522       4.41147024
P        4.40131567       4.40131567       4.41147024
In       2.93421045       2.93421045       0.02614119
P        1.46710522       4.40131567       1.48547995
In       0.00000000       0.00000000       0.02614119
In       0.00000000       2.93421045       2.95073220
P        4.40131567       1.46710522       7.33740574
In       2.93421045       0.00000000       8.80044301
P        1.46710522       1.46710522      10.26311078
P        4.40131567       4.40131567      10.26311078
In       2.93421045       2.93421045       5.87470166
P        1.46710522       4.40131567       7.33740574
In       0.00000000       0.00000000       5.87470166
In       0.00000000       2.93421045       8.80044301
P        4.40131567       1.46710522      13.18732556
In       2.93421045       0.00000000      14.65252501
P        1.46710522       1.46710522      16.11323843
P        4.40131567       4.40131567      16.11323843
In       2.93421045       2.93421045      11.72637094
P        1.46710522       4.40131567      13.18732556
In       0.00000000       0.00000000      11.72637094
In       0.00000000       2.93421045      14.65252501
24
Lattice="5.868420891291524 0.0 0.0 0.0 5.868420891291524 0.0 0.0 0.2934210445645762 17.60526267387457" Properties=species:S:1:pos:R:3 energy=-83.23000934032072 pbc="T T T"
P        4.40131567       1.46710522       1.49818819
In       2.93421045       0.00000000       2.96200089
P        1.46710522       1.46710522       4.41853519
P        4.40131567       4.40131567       4.41853519
In       2.93421045       2.93421045       0.04395726
P        1.46710522       4.40131567       1.49818819
In       0.00000000       0.00000000       0.04395726
In       0.00000000       2.93421045       2.96200089
P        4.40131567       1.46710522       7.33869355
In       2.93421045       0.00000000       8.79893010
P        1.46710522       1.46710522      10.25859674
P        4.40131567       4.40131567      10.25859674
In       2.93421045       2.93421045       5.87902576
P        1.46710522       4.40131567       7.33869355
In       0.00000000       0.00000000       5.87902576
In       0.00000000       2.93421045       8.79893010
P        4.40131567       1.46710522      13.17597607
In       2.93421045       0.00000000      14.63969751
P        1.46710522       1.46710522      16.09621370
P        4.40131567       4.40131567      16.09621370
In       2.93421045       2.93421045      11.71912976
P        1.46710522       4.40131567      13.17597607
In       0.00000000       0.00000000      11.71912976
In       0.00000000       2.93421045      14.63969751
24
Lattice="5.868420891291524 0.0 0.0 0.0 5.868420891291524 0.0 0.0 0.36677630570572023 17.60526267387457" Properties=species:S:1:pos:R:3 energy=-83.06880929663664 pbc="T T T"
P        4.40131567       1.46710522       1.51294763
In       2.93421045       0.00000000       2.97507958
P        1.46710522       1.46710522       4.42670781
P        4.40131567       4.40131567       4.42670781
In       2.93421045       2.93421045       0.06443415
P        1.46710522       4.40131567       1.51294763
In       0.00000000       0.00000000       0.06443415
In       0.00000000       2.93421045       2.97507958
P        4.40131567       1.46710522       7.34020847
In       2.93421045       0.00000000       8.79718964
P        1.46710522       1.46710522      10.25335446
P        4.40131567       4.40131567      10.25335446
In       2.93421045       2.93421045       5.88404250
P        1.46710522       4.40131567       7.34020847
In       0.00000000       0.00000000       5.88404250
In       0.00000000       2.93421045       8.79718964
P        4.40131567       1.46710522      13.16283054
In       2.93421045       0.00000000      14.62482433
P        1.46710522       1.46710522      16.07657273
P        4.40131567       4.40131567      16.07657273
In       2.93421045       2.93421045      11.71075287
P        1.46710522       4.40131567      13.16283054
In       0.00000000       0.00000000      11.71075287
In       0.00000000       2.93421045      14.62482433
24
Lattice="5.868420891291524 0.0 0.0 0.0 5.868420891291524 0.0 0.0 0.44013156684686433 17.60526267387457" Properties=species:S:1:pos:R:3 energy=-82.90070437994785 pbc="T T T"
P        4.40131567       1.46710522       1.52916887
In       2.93421045       0.00000000       2.98945583
P        1.46710522       1.46710522       4.43581494
P        4.40131567       4.40131567       4.43581494
In       2.93421045       2.93421045       0.08661379
P        1.46710522       4.40131567       1.52916887
In       0.00000000       0.00000000       0.08661379
In       0.00000000       2.93421045       2.98945583
P        4.40131567       1.46710522       7.34188184
In       2.93421045       0.00000000       8.79521673
P        1.46710522       1.46710522      10.24749170
P        4.40131567       4.40131567      10.24749170
In       2.93421045       2.93421045       5.88966155
P        1.46710522       4.40131567       7.34188184
In       0.00000000       0.00000000       5.88966155
In       0.00000000       2.93421045       8.79521673
P        4.40131567       1.46710522      13.14834020
In       2.93421045       0.00000000      14.60850270
P        1.46710522       1.46710522      16.05540892
P        4.40131567       4.40131567      16.05540892
In       2.93421045       2.93421045      11.70138762
P        1.46710522       4.40131567      13.14834020
In       0.00000000       0.00000000      11.70138762
In       0.00000000       2.93421045      14.60850270
24
Lattice="5.868420891291524 0.0 0.0 0.0 5.868420891291524 0.0 0.0 0.5134868279880084 17.60526267387457" Properties=species:S:1:pos:R:3 energy=-82.73580089541693 pbc="T T T"
P        4.40131567       1.46710522       1.54847671
In       2.93421045       0.00000000       3.00742047
P        1.46710522       1.46710522       4.44805329
P        4.40131567       4.40131567       4.44805329
In       2.93421045       2.93421045       0.11038049
P        1.46710522       4.40131567       1.54847671
In       0.00000000       0.00000000       0.11038049
In       0.00000000       2.93421045       3.00742047
P        4.40131567       1.46710522       7.34418246
In       2.93421045       0.00000000       8.79262213
P        1.46710522       1.46710522      10.23981466
P        4.40131567       4.40131567      10.23981466
In       2.93421045       2.93421045       5.89709827
P        1.46710522       4.40131567       7.34418246
In       0.00000000       0.00000000       5.89709827
In       0.00000000       2.93421045       8.79262213
P        4.40131567       1.46710522      13.13037435
In       2.93421045       0.00000000      14.58907906
P        1.46710522       1.46710522      16.03254046
P        4.40131567       4.40131567      16.03254046
In       2.93421045       2.93421045      11.68890236
P        1.46710522       4.40131567      13.13037435
In       0.00000000       0.00000000      11.68890236
In       0.00000000       2.93421045      14.58907906
24
Lattice="5.868420891291524 0.0 0.0 0.0 5.868420891291524 0.0 0.0 0.5868420891291524 17.60526267387457" Properties=species:S:1:pos:R:3 energy=-82.58109805793815 pbc="T T T"
P        4.40131567       1.46710522       1.56739830
In       2.93421045       0.00000000       3.02492841
P        1.46710522       1.46710522       4.46002192
P        4.40131567       4.40131567       4.46002192
In       2.93421045       2.93421045       0.13345519
P        1.46710522       4.40131567       1.56739830
In       0.00000000       0.00000000       0.13345519
In       0.00000000       2.93421045       3.02492841
P        4.40131567       1.46710522       7.34644733
In       2.93421045       0.00000000       8.79010593
P        1.46710522       1.46710522      10.23234899
P        4.40131567       4.40131567      10.23234899
In       2.93421045       2.93421045       5.90436908
P        1.46710522       4.40131567       7.34644733
In       0.00000000       0.00000000       5.90436908
In       0.00000000       2.93421045       8.79010593
P        4.40131567       1.46710522      13.11286205
In       2.93421045       0.00000000      14.57004013
P        1.46710522       1.46710522      16.01022595
P        4.40131567       4.40131567      16.01022595
In       2.93421045       2.93421045      11.67674143
P        1.46710522       4.40131567      13.11286205
In       0.00000000       0.00000000      11.67674143
In       0.00000000       2.93421045      14.57004013
24
Lattice="5.868420891291524 0.0 0.0 0.0 5.868420891291524 0.0 0.0 0.6601973502702965 17.60526267387457" Properties=species:S:1:pos:R:3 energy=-82.43950518006206 pbc="T T T"
P        4.40131567       1.46710522       1.58533207
In       2.93421045       0.00000000       3.04141827
P        1.46710522       1.46710522       4.47130424
P        4.40131567       4.40131567       4.47130424
In       2.93421045       2.93421045       0.15482895
P        1.46710522       4.40131567       1.58533207
In       0.00000000       0.00000000       0.15482895
In       0.00000000       2.93421045       3.04141827
P        4.40131567       1.46710522       7.34863979
In       2.93421045       0.00000000       8.78781594
P        1.46710522       1.46710522      10.22534504
P        4.40131567       4.40131567      10.22534504
In       2.93421045       2.93421045       5.91118084
P        1.46710522       4.40131567       7.34863979
In       0.00000000       0.00000000       5.91118084
In       0.00000000       2.93421045       8.78781594
P        4.40131567       1.46710522      13.09646579
In       2.93421045       0.00000000      14.55207200
P        1.46710522       1.46710522      15.98931356
P        4.40131567       4.40131567      15.98931356
In       2.93421045       2.93421045      11.66522823
P        1.46710522       4.40131567      13.09646579
In       0.00000000       0.00000000      11.66522823
In       0.00000000       2.93421045      14.55207200
24
Lattice="5.868420891291524 0.0 0.0 0.0 5.868420891291524 0.0 0.0 0.7335526114114405 17.60526267387457" Properties=species:S:1:pos:R:3 energy=-82.31095759829475 pbc="T T T"
P        4.40131567       1.46710522       1.60157851
In       2.93421045       0.00000000       3.05633277
P        1.46710522       1.46710522       4.48155110
P        4.40131567       4.40131567       4.48155110
In       2.93421045       2.93421045       0.17387637
P        1.46710522       4.40131567       1.60157851
In       0.00000000       0.00000000       0.17387637
In       0.00000000       2.93421045       3.05633277
P        4.40131567       1.46710522       7.35060724
In       2.93421045       0.00000000       8.78571044
P        1.46710522       1.46710522      10.21904519
P        4.40131567       4.40131567      10.21904519
In       2.93421045       2.93421045       5.91739809
P        1.46710522       4.40131567       7.35060724
In       0.00000000       0.00000000       5.91739809
In       0.00000000       2.93421045       8.78571044
P        4.40131567       1.46710522      13.08160265
In       2.93421045       0.00000000      14.53573869
P        1.46710522       1.46710522      15.97062879
P        4.40131567       4.40131567      15.97062879
In       2.93421045       2.93421045      11.65487486
P        1.46710522       4.40131567      13.08160265
In       0.00000000       0.00000000      11.65487486
In       0.00000000       2.93421045      14.53573869
24
Lattice="5.868420891291524 0.0 0.0 0.0 5.868420891291524 0.0 0.0 0.8069078725525846 17.60526267387457" Properties=species:S:1:pos:R:3 energy=-82.19305658887389 pbc="T T T"
P        4.40131567       1.46710522       1.61586284
In       2.93421045       0.00000000       3.06936554
P        1.46710522       1.46710522       4.49056886
P        4.40131567       4.40131567       4.49056886
In       2.93421045       2.93421045       0.18995751
P        1.46710522       4.40131567       1.61586284
In       0.00000000       0.00000000       0.18995751
In       0.00000000       2.93421045       3.06936554
P        4.40131567       1.46710522       7.35237381
In       2.93421045       0.00000000       8.78390244
P        1.46710522       1.46710522      10.21355577
P        4.40131567       4.40131567      10.21355577
In       2.93421045       2.93421045       5.92285970
P        1.46710522       4.40131567       7.35237381
In       0.00000000       0.00000000       5.92285970
In       0.00000000       2.93421045       8.78390244
P        4.40131567       1.46710522      13.06864162
In       2.93421045       0.00000000      14.52139720
P        1.46710522       1.46710522      15.95464133
P        4.40131567       4.40131567      15.95464133
In       2.93421045       2.93421045      11.64581809
P        1.46710522       4.40131567      13.06864162
In       0.00000000       0.00000000      11.64581809
In       0.00000000       2.93421045      14.52139720
24
Lattice="5.868420891291524 0.0 0.0 0.0 5.868420891291524 0.0 0.0 0.8802631336937287 17.60526267387457" Properties=species:S:1:pos:R:3 energy=-82.08206544782941 pbc="T T T"
P        4.40131567       1.46710522       1.62824407
In       2.93421045       0.00000000       3.08061730
P        1.46710522       1.46710522       4.49840979
P        4.40131567       4.40131567       4.49840979
In       2.93421045       2.93421045       0.20311170
P        1.46710522       4.40131567       1.62824407
In       0.00000000       0.00000000       0.20311170
In       0.00000000       2.93421045       3.08061730
P        4.40131567       1.46710522       7.35392862
In       2.93421045       0.00000000       8.78235993
P        1.46710522       1.46710522      10.20884170
P        4.40131567       4.40131567      10.20884170
In       2.93421045       2.93421045       5.92759295
P        1.46710522       4.40131567       7.35392862
In       0.00000000       0.00000000       5.92759295
In       0.00000000       2.93421045       8.78235993
P        4.40131567       1.46710522      13.05748798
In       2.93421045       0.00000000      14.50899018
P        1.46710522       1.46710522      15.94136180
P        4.40131567       4.40131567      15.94136180
In       2.93421045       2.93421045      11.63799869
P        1.46710522       4.40131567      13.05748798
In       0.00000000       0.00000000      11.63799869
In       0.00000000       2.93421045      14.50899018
24
Lattice="5.868420891291524 0.0 0.0 0.0 5.868420891291524 0.0 0.0 0.9536183948348727 17.60526267387457" Properties=species:S:1:pos:R:3 energy=-81.97466265903421 pbc="T T T"
P        4.40131567       1.46710522       1.63936268
In       2.93421045       0.00000000       3.09068556
P        1.46710522       1.46710522       4.50546877
P        4.40131567       4.40131567       4.50546877
In       2.93421045       2.93421045       0.21425214
P        1.46710522       4.40131567       1.63936268
In       0.00000000       0.00000000       0.21425214
In       0.00000000       2.93421045       3.09068556
P        4.40131567       1.46710522       7.35534608
In       2.93421045       0.00000000       8.78099970
P        1.46710522       1.46710522      10.20464760
P        4.40131567       4.40131567      10.20464760
In       2.93421045       2.93421045       5.93183728
P        1.46710522       4.40131567       7.35534608
In       0.00000000       0.00000000       5.93183728
In       0.00000000       2.93421045       8.78099970
P        4.40131567       1.46710522      13.04753858
In       2.93421045       0.00000000      14.49786830
P        1.46710522       1.46710522      15.92993214
P        4.40131567       4.40131567      15.92993214
In       2.93421045       2.93421045      11.63100589
P        1.46710522       4.40131567      13.04753858
In       0.00000000       0.00000000      11.63100589
In       0.00000000       2.93421045      14.49786830
24
Lattice="5.868420891291524 0.0 0.0 0.0 5.868420891291524 0.0 0.0 1.0269736559760168 17.60526267387457" Properties=species:S:1:pos:R:3 energy=-81.87170533962765 pbc="T T T"
P        4.40131567       1.46710522       1.65021791
In       2.93421045       0.00000000       3.10050729
P        1.46710522       1.46710522       4.51236092
P        4.40131567       4.40131567       4.51236092
In       2.93421045       2.93421045       0.22494440
P        1.46710522       4.40131567       1.65021791
In       0.00000000       0.00000000       0.22494440
In       0.00000000       2.93421045       3.10050729
P        4.40131567       1.46710522       7.35675754
In       2.93421045       0.00000000       8.77968523
P        1.46710522       1.46710522      10.20057530
P        4.40131567       4.40131567      10.20057530
In       2.93421045       2.93421045       5.93597748
P        1.46710522       4.40131567       7.35675754
In       0.00000000       0.00000000       5.93597748
In       0.00000000       2.93421045       8.77968523
P        4.40131567       1.46710522      13.03784379
In       2.93421045       0.00000000      14.48701885
P        1.46710522       1.46710522      15.91886885
P        4.40131567       4.40131567      15.91886885
In       2.93421045       2.93421045      11.62418714
P        1.46710522       4.40131567      13.03784379
In       0.00000000       0.00000000      11.62418714
In       0.00000000       2.93421045      14.48701885
24
Lattice="5.868420891291524 0.0 0.0 0.0 5.868420891291524 0.0 0.0 1.1003289171171606 17.60526267387457" Properties=species:S:1:pos:R:3 energy=-81.77665647939726 pbc="T T T"
P        4.40131567       1.46710522       1.66042788
In       2.93421045       0.00000000       3.10976303
P        1.46710522       1.46710522       4.51890018
P        4.40131567       4.40131567       4.51890018
In       2.93421045       2.93421045       0.23477622
P        1.46710522       4.40131567       1.66042788
In       0.00000000       0.00000000       0.23477622
In       0.00000000       2.93421045       3.10976303
P        4.40131567       1.46710522       7.35810128
In       2.93421045       0.00000000       8.77843954
P        1.46710522       1.46710522      10.19674831
P        4.40131567       4.40131567      10.19674831
In       2.93421045       2.93421045       5.93990612
P        1.46710522       4.40131567       7.35810128
In       0.00000000       0.00000000       5.93990612
In       0.00000000       2.93421045       8.77843954
P        4.40131567       1.46710522      13.02870260
In       2.93421045       0.00000000      14.47680130
P        1.46710522       1.46710522      15.90861276
P        4.40131567       4.40131567      15.90861276
In       2.93421045       2.93421045      11.61776550
P        1.46710522       4.40131567      13.02870260
In       0.00000000       0.00000000      11.61776550
In       0.00000000       2.93421045      14.47680130
24
Lattice="5.868420891291524 0.0 0.0 0.0 5.868420891291524 0.0 0.0 1.1736841782583047 17.60526267387457" Properties=species:S:1:pos:R:3 energy=-81.68908111279471 pbc="T T T"
P        4.40131567       1.46710522       1.66867121
In       2.93421045       0.00000000       3.11714835
P        1.46710522       1.46710522       4.52406344
P        4.40131567       4.40131567       4.52406344
In       2.93421045       2.93421045       0.24269905
P        1.46710522       4.40131567       1.66867121
In       0.00000000       0.00000000       0.24269905
In       0.00000000       2.93421045       3.11714835
P        4.40131567       1.46710522       7.35912844
In       2.93421045       0.00000000       8.77750580
P        1.46710522       1.46710522      10.19370142
P        4.40131567       4.40131567      10.19370142
In       2.93421045       2.93421045       5.94307990
P        1.46710522       4.40131567       7.35912844
In       0.00000000       0.00000000       5.94307990
In       0.00000000       2.93421045       8.77750580
P        4.40131567       1.46710522      13.02150018
In       2.93421045       0.00000000      14.46857352
P        1.46710522       1.46710522      15.90022192
P        4.40131567       4.40131567      15.90022192
In       2.93421045       2.93421045      11.61265147
P        1.46710522       4.40131567      13.02150018
In       0.00000000       0.00000000      11.61265147
In       0.00000000       2.93421045      14.46857352
24
Lattice="5.868420891291524 0.0 0.0 0.0 5.868420891291524 0.0 0.0 1.2470394393994488 17.60526267387457" Properties=species:S:1:pos:R:3 energy=-81.608714675688 pbc="T T T"
P        4.40131567       1.46710522       1.67558999
In       2.93421045       0.00000000       3.12309956
P        1.46710522       1.46710522       4.52830052
P        4.40131567       4.40131567       4.52830052
In       2.93421045       2.93421045       0.24887845
P        1.46710522       4.40131567       1.67558999
In       0.00000000       0.00000000       0.24887845
In       0.00000000       2.93421045       3.12309956
P        4.40131567       1.46710522       7.36002962
In       2.93421045       0.00000000       8.77677568
P        1.46710522       1.46710522      10.19129888
P        4.40131567       4.40131567      10.19129888
In       2.93421045       2.93421045       5.94565155
P        1.46710522       4.40131567       7.36002962
In       0.00000000       0.00000000       5.94565155
In       0.00000000       2.93421045       8.77677568
P        4.40131567       1.46710522      13.01572531
In       2.93421045       0.00000000      14.46172162
P        1.46710522       1.46710522      15.89330817
P        4.40131567       4.40131567      15.89330817
In       2.93421045       2.93421045      11.60856536
P        1.46710522       4.40131567      13.01572531
In       0.00000000       0.00000000      11.60856536
In       0.00000000       2.93421045      14.46172162
24
Lattice="5.868420891291524 0.0 0.0 0.0 5.868420891291524 0.0 0.0 1.320394700540593 17.60526267387457" Properties=species:S:1:pos:R:3 energy=-81.5355738394078 pbc="T T T"
P        4.40131567       1.46710522       1.68152528
In       2.93421045       0.00000000       3.12814276
P        1.46710522       1.46710522       4.53197444
P        4.40131567       4.40131567       4.53197444
In       2.93421045       2.93421045       0.25356644
P        1.46710522       4.40131567       1.68152528
In       0.00000000       0.00000000       0.25356644
In       0.00000000       2.93421045       3.12814276
P        4.40131567       1.46710522       7.36086403
In       2.93421045       0.00000000       8.77620434
P        1.46710522       1.46710522      10.18926719
P        4.40131567       4.40131567      10.18926719
In       2.93421045       2.93421045       5.94787712
P        1.46710522       4.40131567       7.36086403
In       0.00000000       0.00000000       5.94787712
In       0.00000000       2.93421045       8.77620434
P        4.40131567       1.46710522      13.01083164
In       2.93421045       0.00000000      14.45589474
P        1.46710522       1.46710522      15.88767337
P        4.40131567       4.40131567      15.88767337
In       2.93421045       2.93421045      11.60512336
P        1.46710522       4.40131567      13.01083164
In       0.00000000       0.00000000      11.60512336
In       0.00000000       2.93421045      14.45589474
24
Lattice="5.868420891291524 0.0 0.0 0.0 5.868420891291524 0.0 0.0 1.393749961681737 17.60526267387457" Properties=species:S:1:pos:R:3 energy=-81.46961484714016 pbc="T T T"
P        4.40131567       1.46710522       1.68647239
In       2.93421045       0.00000000       3.13229396
P        1.46710522       1.46710522       4.53511991
P        4.40131567       4.40131567       4.53511991
In       2.93421045       2.93421045       0.25691164
P        1.46710522       4.40131567       1.68647239
In       0.00000000       0.00000000       0.25691164
In       0.00000000       2.93421045       3.13229396
P        4.40131567       1.46710522       7.36162089
In       2.93421045       0.00000000       8.77579037
P        1.46710522       1.46710522      10.18769491
P        4.40131567       4.40131567      10.18769491
In       2.93421045       2.93421045       5.94977669
P        1.46710522       4.40131567       7.36162089
In       0.00000000       0.00000000       5.94977669
In       0.00000000       2.93421045       8.77579037
P        4.40131567       1.46710522      13.00674436
In       2.93421045       0.00000000      14.45096709
P        1.46710522       1.46710522      15.88318793
P        4.40131567       4.40131567      15.88318793
In       2.93421045       2.93421045      11.60236457
P        1.46710522       4.40131567      13.00674436
In       0.00000000       0.00000000      11.60236457
In       0.00000000       2.93421045      14.45096709
24
Lattice="5.868420891291524 0.0 0.0 0.0 5.868420891291524 0.0 0.0 1.467105222822881 17.60526267387457" Properties=species:S:1:pos:R:3 energy=-81.41081440441612 pbc="T T T"
P        4.40131567       1.46710522       1.69056917
In       2.93421045       0.00000000       3.13568379
P        1.46710522       1.46710522       4.53756301
P        4.40131567       4.40131567       4.53756301
In       2.93421045       2.93421045       0.25904414
P        1.46710522       4.40131567       1.69056917
In       0.00000000       0.00000000       0.25904414