 +-------------------------------------------------+
 |                                                 |
 |      CCC   AA    SSS  TTTTT  EEEEE  PPPP        |
 |     C     A  A  S       T    E      P   P       |
 |     C     AAAA   SS     T    EEE    PPPP        |
 |     C     A  A     S    T    E      P           |
 |      CCC  A  A  SSS     T    EEEEE  P           |
 |                                                 |
 +-------------------------------------------------+
 |                                                 |
 | Welcome to Academic Release CASTEP version 20.11|          
 | Ab Initio Total Energy Program                  |
 |                                                 |
 | Authors:                                        |
 | M. Segall, M. Probert, C. Pickard, P. Hasnip,   |
 | S. Clark, K. Refson, J. R. Yates, M. Payne      |
 |                                                 |
 | Contributors:                                   |
 | P. Lindan, P. Haynes, J. White, V. Milman,      |
 | N. Govind, M. Gibson, P. Tulip, V. Cocula,      |
 | B. Montanari, D. Quigley, M. Glover,            |
 | L. Bernasconi, A. Perlov, M. Plummer,           |
 | E. McNellis, J. Meyer, J. Gale, D. Jochym       |
 | J. Aarons, B. Walker, R. Gillen, D. Jones       |
 | T. Green, I. J. Bush, C. J. Armstrong,          |
 | E. J. Higgins, E. L. Brown, M. S. McFly,        |
 | J. Wilkins, B-C. Shih, P. J. P. Byrne,          |
 | R. J. Maurer, J. C. Womack, J. Dziedzic,        |
 | J. R. Kermode, A. Bartok-Partay                 |
 |                                                 |
 | Copyright (c) 2000 - 2020                       |
 |                                                 |
 |     Distributed under license from Cambridge    |
 |     Enterprise for academic use only.           |
 |                                                 |
 | Please cite                                     |
 |                                                 |
 |     "First principles methods using CASTEP"     |
 |                                                 |
 |         Zeitschrift fuer Kristallographie       |
 |           220(5-6) pp. 567-570 (2005)           |
 |                                                 |
 | S. J. Clark, M. D. Segall, C. J. Pickard,       |
 | P. J. Hasnip, M. J. Probert, K. Refson,         |
 | M. C. Payne                                     |
 |                                                 |
 |       in all publications arising from          |
 |              your use of CASTEP                 |
 |                                                 |
 +-------------------------------------------------+
 |                                                 |
 |              http://www.castep.org              |
 |                                                 |
 +-------------------------------------------------+
 
 
 
 Compiled for linux_x86_64_ifort on Wed, 25 Aug 2021 18:50:38 +0100
 from code version e772bf432+  HEAD  Sat Apr 3 17:41:32 2021 +0100
 Compiler: Intel Fortran 19.0.5.281; Optimisation: fast
 MATHLIBS: Intel MKL(2019.0.5) (LAPACK version 3.7.0)
 FFT Lib : mkl
 Fundamental constants values: CODATA 2014
 
 Run started: Fri, 16 Dec 2022 17:42:13 +0000
 
 Atomic calculation performed for P: 1s2 2s2 2p6 3s2 3p3
 
 Exceeded max iterations: converged to -0.000003405 eV
 The ae energy is -9309.074 eV
 
   ============================================================                
   | Pseudopotential Report - Date of generation 16-12-2022   |                
   ------------------------------------------------------------                
   | Element: P Ionic charge:  5.00 Level of theory: RSCAN    |                
   | Atomic Solver: Koelling-Harmon                           |                
   |                                                          |                
   |               Reference Electronic Structure             |                
   |         Orbital         Occupation         Energy        |                
   |            3s              2.000           -0.535        |                
   |            3p              3.000           -0.209        |                
   |                                                          |                
   |                 Pseudopotential Definition               |                
   |        Beta     l      e      Rc     scheme   norm       |                
   |          1      0   -0.535   1.807     qc      0         |                
   |          2      0    0.250   1.807     qc      0         |                
   |          3      1   -0.209   1.807     qc      0         |                
   |          4      1    0.250   1.807     qc      0         |                
   |          5      2    0.000   1.807     qc      0         |                
   |          6      2    0.250   1.807     qc      0         |                
   |         loc     3    0.000   1.807     pn      0         |                
   |                                                          |                
   | Augmentation charge Rinner = 1.263                       |                
   | Partial core correction Rc = 1.263                       |                
   ------------------------------------------------------------                
   | "3|1.8|4|4|5|30:31:32"                                   |                
   ------------------------------------------------------------                
   |      Author: Chris J. Pickard, Cambridge University      |                
   ============================================================                
 Warning: ion_atom_output_psp cannot write out meta-GGA pseudopotentials present
 ly.
 
 Atomic calculation performed for In:
 1s2 2s2 2p6 3s2 3p6 3d10 4s2 4p6 4d10 5s2 5p1
 
 Exceeded max iterations: converged to -0.000725459 eV
 The ae energy is -160093.321 eV
 
   ============================================================                
   | Pseudopotential Report - Date of generation 16-12-2022   |                
   ------------------------------------------------------------                
   | Element: In Ionic charge: 13.00 Level of theory: RSCAN   |                
   | Atomic Solver: Koelling-Harmon                           |                
   |                                                          |                
   |               Reference Electronic Structure             |                
   |         Orbital         Occupation         Energy        |                
   |            4d             10.000           -0.711        |                
   |            5s              2.000           -0.313        |                
   |            5p              1.000           -0.095        |                
   |                                                          |                
   |                 Pseudopotential Definition               |                
   |        Beta     l      e      Rc     scheme   norm       |                
   |          1      0   -0.313   2.501     qc      0         |                
   |          2      0    0.250   2.501     qc      0         |                
   |          3      1   -0.095   2.501     qc      0         |                
   |          4      1    0.250   2.501     qc      0         |                
   |          5      2   -0.711   2.207     qc      0         |                
   |          6      2    0.250   2.207     qc      0         |                
   |         loc     3    0.000   2.501     pn      0         |                
   |                                                          |                
   | Augmentation charge Rinner = 1.504                       |                
   | Partial core correction Rc = 1.504                       |                
   ------------------------------------------------------------                
   | "3|2.5|2.5|1.5|7|8|9|50:51:42U2.2U2.2"                   |                
   ------------------------------------------------------------                
   |      Author: Chris J. Pickard, Cambridge University      |                
   ============================================================                
 Warning: ion_atom_output_psp cannot write out meta-GGA pseudopotentials present
 ly.
 
 Pseudo atomic calculation performed for P 3s2 3p3
 
 Converged in 23 iterations to a total energy of -208.0292 eV
 
 Pseudo atomic calculation performed for In 4d10 5s2 5p1
 
 Converged in 42 iterations to a total energy of -1747.4504 eV
 Calculation parallelised over 32 processes.
 Data is distributed by k-point(32-way)

 ************************************ Title ************************************
 

 ***************************** General Parameters ******************************
  
 output verbosity                               : normal  (1)
 write checkpoint data to                       : WZ_EOS_1.0617.check
 type of calculation                            : single point energy
 stress calculation                             : on
 density difference calculation                 : off
 electron localisation func (ELF) calculation   : off
 Hirshfeld analysis                             : off
 molecular orbital projected DOS                : off
 deltaSCF calculation                           : off
 unlimited duration calculation
 timing information                             : on
 memory usage estimate                          : on
 write extra output files                       : on
 write final potential to formatted file        : off
 write final density to formatted file          : off
 write BibTeX reference list                    : on
 write OTFG pseudopotential files               : on
 write electrostatic potential file             : on
 write bands file                               : on
 checkpoint writing                             : off
  
 output         length unit                     : A
 output           mass unit                     : amu
 output           time unit                     : ps
 output         charge unit                     : e
 output           spin unit                     : hbar/2
 output         energy unit                     : eV
 output          force unit                     : eV/A
 output       velocity unit                     : A/ps
 output       pressure unit                     : GPa
 output     inv_length unit                     : 1/A
 output      frequency unit                     : cm-1
 output force constant unit                     : eV/A**2
 output         volume unit                     : A**3
 output   IR intensity unit                     : (D/A)**2/amu
 output         dipole unit                     : D
 output         efield unit                     : eV/A/e
 output        entropy unit                     : J/mol/K
 output    efield chi2 unit                     : pm/V
  
 wavefunctions paging                           : none
 random number generator seed                   : randomised (174213207)
 data distribution                              : optimal for this architecture
 optimization strategy                          : balance speed and memory

 *********************** Exchange-Correlation Parameters ***********************
  
 using functional                               : RSCAN
 relativistic treatment                         : Koelling-Harmon
 DFT+D: Semi-empirical dispersion correction    : off

 ************************* Pseudopotential Parameters **************************
  
 pseudopotential representation                 : reciprocal space
 <beta|phi> representation                      : reciprocal space
 spin-orbit coupling                            : off

 **************************** Basis Set Parameters *****************************
  
 plane wave basis set cut-off                   :   900.0000   eV
 size of standard grid                          :     1.7500
 size of   fine   gmax                          :    26.8966   1/A
 finite basis set correction                    : automatic
 number of sample energies                      :          3
           sample  spacing                      :     5.0000   eV

 **************************** Electronic Parameters ****************************
  
 number of  electrons                           :  36.00    
 net charge of system                           :  0.000    
 treating system as non-spin-polarized
 number of bands                                :         22

 ********************* Electronic Minimization Parameters **********************
  
 Method: Treating system as metallic with density mixing treatment of electrons,
         and number of  SD  steps               :          1
         and number of  CG  steps               :          4
  
 total energy / atom convergence tol.           : 0.1000E-07   eV
 eigen-energy convergence tolerance             : 0.2222E-08   eV
 max force / atom convergence tol.              : ignored
 convergence tolerance window                   :          3   cycles
 max. number of SCF cycles                      :         30
 number of fixed-spin iterations                :         10
 smearing scheme                                : Gaussian
 smearing width                                 : 0.2000       eV
 Fermi energy convergence tolerance             : 0.2721E-13   eV
 periodic dipole correction                     : NONE

 ************************** Density Mixing Parameters **************************
  
 density-mixing scheme                          : Broyden
 max. length of mixing history                  :         20
 charge density mixing amplitude                : 0.8000    
 cut-off energy for mixing                      :  900.0       eV

 *********************** Population Analysis Parameters ************************
  
 Population analysis with cutoff                :  3.000       A
 Population analysis output                     : summary and pdos components

 *******************************************************************************
  
 
                           -------------------------------
                                      Unit Cell
                           -------------------------------
        Real Lattice(A)                      Reciprocal Lattice(1/A)
     4.4213960    -0.0000460     0.0000000        1.421077770  -0.820440129   0.000000000
     2.2106580     3.8290630     0.0000000        0.000017072   1.640909948   0.000000000
     0.0000000     0.0000000     7.2608870        0.000000000   0.000000000   0.865346797
 
                       Lattice parameters(A)       Cell Angles
                    a =      4.421396          alpha =   90.000000
                    b =      4.421395          beta  =   90.000000
                    c =      7.260887          gamma =   60.001186
 
                       Current cell volume =           122.926131       A**3
                                   density =             2.372022   AMU/A**3
                                           =             3.938836     g/cm^3
 
                           -------------------------------
                                     Cell Contents
                           -------------------------------
                         Total number of ions in cell =    4
                      Total number of species in cell =    2
                        Max number of any one species =    2
 
            xxxxxxxxxxxxxxxxxxxxxxxxxxxxxxxxxxxxxxxxxxxxxxxxxxxxxxxxxxxx
            x  Element    Atom        Fractional coordinates of atoms  x
            x            Number           u          v          w      x
            x----------------------------------------------------------x
            x  P            1         0.333329   0.333331  -0.000013   x 
            x  P            2         0.666669   0.666671   0.499987   x 
            x  In           1         0.333331   0.333333   0.374443   x 
            x  In           2         0.666667   0.666669   0.874443   x 
            xxxxxxxxxxxxxxxxxxxxxxxxxxxxxxxxxxxxxxxxxxxxxxxxxxxxxxxxxxxx
 
 
                         No user defined ionic velocities
 
                           -------------------------------
                                   Details of Species
                           -------------------------------
 
                               Mass of species in AMU
                                    P   30.9737600
                                    In  114.8180000
 
                          Electric Quadrupole Moment (Barn)
                                    P    1.0000000 No Isotope Defined
                                    In    0.7700000 Isotope115
 
                          Files used for pseudopotentials:
                                    P 3|1.8|4|4|5|30:31:32
                                    In 3|2.5|2.5|1.5|7|8|9|50:51:42U2.2U2.2
 
                           -------------------------------
                              k-Points For BZ Sampling
                           -------------------------------
                       MP grid size for SCF calculation is  9  9  5
                            with an offset of   0.056  0.056  0.100
                       Number of kpoints used =           203
 
                           -------------------------------
                               Symmetry and Constraints
                           -------------------------------
 
                      Maximum deviation from symmetry =  0.00000         ANG
 
                      Number of symmetry operations   =           1
                      Number of ionic constraints     =           3
                      Point group of crystal =     1: C1, 1, 1
                      Space group of crystal =   186: P6_3mc, P 6c -2c
 
             Set iprint > 1 for details on symmetry rotations/translations
 
                         Centre of mass is constrained
             Set iprint > 1 for details of linear ionic constraints
 
                         Number of cell constraints= 0
                         Cell constraints are:  1 2 3 4 5 6
 
                         External pressure/stress (GPa)
                          0.00000   0.00000   0.00000
                                    0.00000   0.00000
                                              0.00000
  
+---------------- MEMORY AND SCRATCH DISK ESTIMATES PER PROCESS --------------+
|                                                     Memory          Disk    |
| Baseline code, static data and system overhead      394.0 MB         0.0 MB |
| BLAS internal memory storage                          0.0 MB         0.0 MB |
| Model and support data                              231.0 MB       543.1 MB |
| Electronic energy minimisation requirements          73.0 MB         0.0 MB |
| Force calculation requirements                       14.8 MB         0.0 MB |
| Stress calculation requirements                      16.4 MB         0.0 MB |
|                                               ----------------------------- |
| Approx. total storage required per process          698.0 MB       543.1 MB |
|                                                                             |
| Requirements will fluctuate during execution and may exceed these estimates |
+-----------------------------------------------------------------------------+
Calculating finite basis set correction with  3 cut-off energies.
Calculating total energy with cut-off of  890.000 eV.
------------------------------------------------------------------------ <-- SCF
SCF loop      Energy           Fermi           Energy gain       Timer   <-- SCF
                               energy          per atom          (sec)   <-- SCF
------------------------------------------------------------------------ <-- SCF
Initial  -3.09098115E+003  0.00000000E+000                        19.99  <-- SCF
      1  -3.80957815E+003  3.75538144E+000   1.79649251E+002      35.08  <-- SCF
      2  -3.91137954E+003  1.38756894E+000   2.54503463E+001      44.95  <-- SCF
      3  -3.91516546E+003  9.91049896E-001   9.46481087E-001      54.94  <-- SCF
      4  -3.92961708E+003  1.66569793E+000   3.61290270E+000      68.04  <-- SCF
      5  -3.92962752E+003  1.66532738E+000   2.61070579E-003      81.00  <-- SCF
      6  -3.93012104E+003  1.66618018E+000   1.23380338E-001      94.06  <-- SCF
      7  -3.92917978E+003  1.81961216E+000  -2.35315587E-001     107.00  <-- SCF
      8  -3.92934697E+003  1.86980816E+000   4.17979528E-002     120.08  <-- SCF
      9  -3.92934683E+003  1.88315373E+000  -3.42621178E-005     134.99  <-- SCF
     10  -3.92934745E+003  1.89559735E+000   1.53532609E-004     148.03  <-- SCF
     11  -3.92934754E+003  1.90090505E+000   2.30594711E-005     161.23  <-- SCF
     12  -3.92934755E+003  1.90041650E+000   3.59994520E-006     174.40  <-- SCF
     13  -3.92934755E+003  1.90052106E+000   6.88709386E-008     186.20  <-- SCF
     14  -3.92934755E+003  1.90059438E+000   1.27015868E-007     196.50  <-- SCF
     15  -3.92934755E+003  1.90060912E+000   3.64229955E-009     205.94  <-- SCF
     16  -3.92934755E+003  1.90061608E+000   9.13765137E-010     215.17  <-- SCF
------------------------------------------------------------------------ <-- SCF
 
Final energy, E             =  -3929.347528124     eV
Final free energy (E-TS)    =  -3929.347553387     eV
(energies not corrected for finite basis set)
 
NB est. 0K energy (E-0.5TS)      =  -3929.347540756     eV
 
Calculating total energy with cut-off of  895.000 eV.
------------------------------------------------------------------------ <-- SCF
SCF loop      Energy           Fermi           Energy gain       Timer   <-- SCF
                               energy          per atom          (sec)   <-- SCF
------------------------------------------------------------------------ <-- SCF
Initial  -3.92934753E+003  0.00000000E+000                       220.76  <-- SCF
      1  -3.92934756E+003  1.90062416E+000   7.37829501E-006     232.17  <-- SCF
      2  -3.92934756E+003  1.90062416E+000   5.16240566E-011     241.44  <-- SCF
      3  -3.92934756E+003  1.90062117E+000   4.33680745E-010     250.64  <-- SCF
      4  -3.92934756E+003  1.90062043E+000   2.70687937E-011     260.35  <-- SCF
------------------------------------------------------------------------ <-- SCF
 
Final energy, E             =  -3929.347532363     eV
Final free energy (E-TS)    =  -3929.347557626     eV
(energies not corrected for finite basis set)
 
NB est. 0K energy (E-0.5TS)      =  -3929.347544994     eV
 
Calculating total energy with cut-off of  900.000 eV.
------------------------------------------------------------------------ <-- SCF
SCF loop      Energy           Fermi           Energy gain       Timer   <-- SCF
                               energy          per atom          (sec)   <-- SCF
------------------------------------------------------------------------ <-- SCF
Initial  -3.92934753E+003  0.00000000E+000                       265.66  <-- SCF
      1  -3.92934756E+003  1.90062011E+000   7.14533208E-006     277.58  <-- SCF
      2  -3.92934756E+003  1.90062011E+000   1.39210939E-011     287.45  <-- SCF
      3  -3.92934756E+003  1.90062012E+000   3.16704887E-010     296.83  <-- SCF
      4  -3.92934756E+003  1.90061983E+000   1.81747615E-011     306.17  <-- SCF
------------------------------------------------------------------------ <-- SCF
 
Final energy, E             =  -3929.347535669     eV
Final free energy (E-TS)    =  -3929.347560931     eV
(energies not corrected for finite basis set)
 
NB est. 0K energy (E-0.5TS)      =  -3929.347548300     eV
 
 For future reference: finite basis dEtot/dlog(Ecut) =      -0.000673eV
 Total energy corrected for finite basis set =   -3929.347561 eV
 
 ************************** Forces **************************
 *                                                          *
 *               Cartesian components (eV/A)                *
 * -------------------------------------------------------- *
 *                         x            y            z      *
 *                                                          *
 * P               1     -0.00065     -0.00037     -0.03457 *
 * P               2      0.00065      0.00037     -0.03456 *
 * In              1     -0.00069     -0.00039      0.03457 *
 * In              2      0.00068      0.00039      0.03456 *
 *                                                          *
 ************************************************************
 
 ***************** Stress Tensor *****************
 *                                               *
 *          Cartesian components (GPa)           *
 * --------------------------------------------- *
 *             x             y             z     *
 *                                               *
 *  x      7.988387      0.003211     -0.000002  *
 *  y      0.003211      7.984651      0.000000  *
 *  z     -0.000002      0.000000      8.034838  *
 *                                               *
 *  Pressure:   -8.0026                          *
 *                                               *
 *************************************************
 
 Pseudo atomic calculation performed for P 3s2 3p3
 
 Converged in 23 iterations to a total energy of -208.0292 eV
 
 Pseudo atomic calculation performed for In 4d10 5s2 5p1
 
 Converged in 42 iterations to a total energy of -1747.4504 eV
Charge spilling parameter for spin component 1 = 0.14%
 
            Orbital Populations       
     Ion    Atom   Orbital             Charge
  -------------------------------------------
      P     1      S                    1.785
      P     1      Px                   1.283
      P     1      Py                   1.283
      P     1      Pz                   1.279
      P     2      S                    1.785
      P     2      Px                   1.283
      P     2      Py                   1.283
      P     2      Pz                   1.279
     In     1      Dzz                  1.999
     In     1      Dzy                  1.999
     In     1      Dzx                  1.999
     In     1      Dxx-yy               1.999
     In     1      Dxy                  1.999
     In     1      S                    1.420
     In     1      Px                   0.449
     In     1      Py                   0.449
     In     1      Pz                   0.448
     In     1      S                   -0.391
     In     2      Dzz                  1.999
     In     2      Dzy                  1.999
     In     2      Dzx                  1.999
     In     2      Dxx-yy               1.999
     In     2      Dxy                  1.999
     In     2      S                    1.420
     In     2      Px                   0.449
     In     2      Py                   0.449
     In     2      Pz                   0.448
     In     2      S                   -0.391
  -------------------------------------------
                           Total:      36.000
  -------------------------------------------
 
     Atomic Populations (Mulliken)
     -----------------------------
Species          Ion     s      p      d      f     Total  Charge (e)
=====================================================================
  P               1     1.79   3.85   0.00   0.00   5.63    -0.63
  P               2     1.79   3.85   0.00   0.00   5.63    -0.63
  In              1     1.03   1.35   9.99   0.00  12.37     0.63
  In              2     1.03   1.35   9.99   0.00  12.37     0.63
=====================================================================
 
                 Bond                   Population      Length (A)
======================================================================
               P 2 -- In 1                   1.73        2.71058
               P 1 -- In 2                   1.73        2.71058
               P 1 -- In 1                   0.33        2.71888
               P 2 -- In 2                   0.33        2.71888
======================================================================
 
 
 A BibTeX formatted list of references used in this run has been written to 
 WZ_EOS_1.0617.bib
 
Initialisation time =     16.21 s
Calculation time    =    330.66 s
Finalisation time   =      0.20 s
Total time          =    347.07 s
Peak Memory Use     = 1619108 kB
  
Overall parallel efficiency rating: Excellent (94%)                             
  
Data was distributed by:-
k-point (32-way); efficiency rating: Excellent (95%)                            
  
Parallel notes:
1) Calculation only took 346.9 s, so efficiency estimates may be inaccurate.    
