 +-------------------------------------------------+
 |                                                 |
 |      CCC   AA    SSS  TTTTT  EEEEE  PPPP        |
 |     C     A  A  S       T    E      P   P       |
 |     C     AAAA   SS     T    EEE    PPPP        |
 |     C     A  A     S    T    E      P           |
 |      CCC  A  A  SSS     T    EEEEE  P           |
 |                                                 |
 +-------------------------------------------------+
 |                                                 |
 | Welcome to Academic Release CASTEP version 22.11|
 | Ab Initio Total Energy Program                  |
 |                                                 |
 | Authors:                                        |
 | M. Segall, M. Probert, C. Pickard, P. Hasnip,   |
 | S. Clark, K. Refson, J. R. Yates, M. Payne      |
 |                                                 |
 | Contributors:                                   |
 | P. Lindan, P. Haynes, J. White, V. Milman,      |
 | N. Govind, M. Gibson, P. Tulip, V. Cocula,      |
 | B. Montanari, D. Quigley, M. Glover,            |
 | L. Bernasconi, A. Perlov, M. Plummer,           |
 | E. McNellis, J. Meyer, J. Gale, D. Jochym       |
 | J. Aarons, B. Walker, R. Gillen, D. Jones       |
 | T. Green, I. J. Bush, C. J. Armstrong,          |
 | E. J. Higgins, E. L. Brown, M. S. McFly,        |
 | J. Wilkins, B-C. Shih, P. J. P. Byrne,          |
 | R. J. Maurer, J. C. Womack, J. Dziedzic,        |
 | A. Bartok-Partay, L. LeBlanc, T. K. Stenczel,   |
 | J. Kermode, S. Sturniolo, B. Shi, B. Durham     |
 | M. Evans, M. J. Smith                           |
 |                                                 |
 | Copyright (c) 2000 - 2021                       |
 |                                                 |
 |     Distributed under license from Cambridge    |
 |     Enterprise for academic use only.           |
 |                                                 |
 | Please cite                                     |
 |                                                 |
 |     "First principles methods using CASTEP"     |
 |                                                 |
 |         Zeitschrift fuer Kristallographie       |
 |           220(5-6) pp. 567-570 (2005)           |
 |                                                 |
 | S. J. Clark, M. D. Segall, C. J. Pickard,       |
 | P. J. Hasnip, M. J. Probert, K. Refson,         |
 | M. C. Payne                                     |
 |                                                 |
 |       in all publications arising from          |
 |              your use of CASTEP                 |
 |                                                 |
 +-------------------------------------------------+
 |                                                 |
 |              http://www.castep.org              |
 |                                                 |
 +-------------------------------------------------+



 Compiled for linux_x86_64_gfortran10 on Wed, 18 Jan 2023 22:58:45 +0000
 from code version b807d1bba+  Castep221_branch  Wed Sep 14 11:18:35 2022 +0100
 Compiler: GNU Fortran 10.2.0; Optimisation: fast
 MATHLIBS: openblas (LAPACK version 3.9.0)
 FFT Lib : fftw3 version fftw-3.3.8-sse2-avx-avx2-avx2_128
 Fundamental constants values: CODATA 2014

 Run started: Tue, 25 Mar 2025 17:14:00 +0000

 Atomic calculation performed for P: 1s2 2s2 2p6 3s2 3p3

 Converged in 47 iterations to an ae energy of -9309.074 eV

   ============================================================                
   | Pseudopotential Report - Date of generation 25-03-2025   |                
   ------------------------------------------------------------                
   | Element: P Ionic charge:  5.00 Level of theory: RSCAN    |                
   | Atomic Solver: Koelling-Harmon                           |                
   |                                                          |                
   |               Reference Electronic Structure             |                
   |         Orbital         Occupation         Energy        |                
   |            3s              2.000           -0.535        |                
   |            3p              3.000           -0.209        |                
   |                                                          |                
   |                 Pseudopotential Definition               |                
   |        Beta     l      e      Rc     scheme   norm       |                
   |          1      0   -0.535   1.807     qc      0         |                
   |          2      0    0.250   1.807     qc      0         |                
   |          3      1   -0.209   1.807     qc      0         |                
   |          4      1    0.250   1.807     qc      0         |                
   |          5      2    0.000   1.807     qc      0         |                
   |          6      2    0.250   1.807     qc      0         |                
   |         loc     3    0.000   1.807     pn      0         |                
   |                                                          |                
   | Augmentation charge Rinner = 1.263                       |                
   | Partial core correction Rc = 1.263                       |                
   ------------------------------------------------------------                
   | "3|1.8|4|4|5|30:31:32"                                   |                
   ------------------------------------------------------------                
   |      Author: Chris J. Pickard, Cambridge University      |                
   ============================================================                
 Warning: otfg_output_psp cannot write out meta-GGA pseudopotentials presently.

 Atomic calculation performed for In:
 1s2 2s2 2p6 3s2 3p6 3d10 4s2 4p6 4d10 5s2 5p1

 Converged in 84 iterations to an ae energy of -160093.327 eV

   ============================================================                
   | Pseudopotential Report - Date of generation 25-03-2025   |                
   ------------------------------------------------------------                
   | Element: In Ionic charge: 13.00 Level of theory: RSCAN   |                
   | Atomic Solver: Koelling-Harmon                           |                
   |                                                          |                
   |               Reference Electronic Structure             |                
   |         Orbital         Occupation         Energy        |                
   |            4d             10.000           -0.711        |                
   |            5s              2.000           -0.313        |                
   |            5p              1.000           -0.095        |                
   |                                                          |                
   |                 Pseudopotential Definition               |                
   |        Beta     l      e      Rc     scheme   norm       |                
   |          1      0   -0.313   2.501     qc      0         |                
   |          2      0    0.250   2.501     qc      0         |                
   |          3      1   -0.095   2.501     qc      0         |                
   |          4      1    0.250   2.501     qc      0         |                
   |          5      2   -0.711   2.207     qc      0         |                
   |          6      2    0.250   2.207     qc      0         |                
   |         loc     3    0.000   2.501     pn      0         |                
   |                                                          |                
   | Augmentation charge Rinner = 1.504                       |                
   | Partial core correction Rc = 1.504                       |                
   ------------------------------------------------------------                
   | "3|2.5|2.5|1.5|7|8|9|50:51:42U2.2U2.2"                   |                
   ------------------------------------------------------------                
   |      Author: Chris J. Pickard, Cambridge University      |                
   ============================================================                
 Warning: otfg_output_psp cannot write out meta-GGA pseudopotentials presently.

 Pseudo atomic calculation performed for P 3s2 3p3

 Converged in 23 iterations to a total energy of -208.0292 eV

 Pseudo atomic calculation performed for In 4d10 5s2 5p1

 Converged in 42 iterations to a total energy of -1747.4501 eV
 Calculation parallelised over 56 processes.
 Data is distributed by k-point(56-way)

 ************************************ Title ************************************
 

 ***************************** General Parameters ******************************
  
 output verbosity                               : normal  (1)
 write checkpoint data to                       : Bulk_Elastic_7.check
 type of calculation                            : geometry optimization
 stress calculation                             : on
 density difference calculation                 : off
 electron localisation func (ELF) calculation   : off
 Hirshfeld analysis                             : on
 polarisation (Berry phase) analysis            : off
 molecular orbital projected DOS                : off
 deltaSCF calculation                           : off
 unlimited duration calculation
 timing information                             : on
 memory usage estimate                          : on
 write extra output files                       : on
 write final potential to formatted file        : off
 write final density to formatted file          : off
 write BibTeX reference list                    : on
 write OTFG pseudopotential files               : on
 write electrostatic potential file             : on
 write bands file                               : on
 checkpoint writing                             : off
  
 output         length unit                     : A
 output           mass unit                     : amu
 output           time unit                     : ps
 output         charge unit                     : e
 output           spin unit                     : hbar/2
 output         energy unit                     : eV
 output          force unit                     : eV/A
 output       velocity unit                     : A/ps
 output       pressure unit                     : GPa
 output     inv_length unit                     : 1/A
 output      frequency unit                     : cm-1
 output force constant unit                     : eV/A**2
 output         volume unit                     : A**3
 output   IR intensity unit                     : (D/A)**2/amu
 output         dipole unit                     : D
 output         efield unit                     : eV/A/e
 output        entropy unit                     : J/mol/K
 output    efield chi2 unit                     : pm/V
  
 wavefunctions paging                           : none
 random number generator seed                   : randomised (171400974)
 data distribution                              : optimal for this architecture
 optimization strategy                          : balance speed and memory

 *********************** Exchange-Correlation Parameters ***********************
  
 using functional                               : RSCAN
 relativistic treatment                         : Koelling-Harmon
 DFT+D: Semi-empirical dispersion correction    : off

 ************************* Pseudopotential Parameters **************************
  
 pseudopotential representation                 : reciprocal space
 <beta|phi> representation                      : reciprocal space
 spin-orbit coupling                            : off

 **************************** Basis Set Parameters *****************************
  
 plane wave basis set cut-off                   :   900.0000   eV
 size of standard grid                          :     2.0000
 size of   fine   gmax                          :    30.7390   1/A
 finite basis set correction                    : none

 **************************** Electronic Parameters ****************************
  
 number of  electrons                           :  72.00    
 net charge of system                           :  0.000    
 treating system as non-spin-polarized
 number of bands                                :         43

 ********************* Electronic Minimization Parameters **********************
  
 Method: Treating system as metallic with density mixing treatment of electrons,
         and number of  SD  steps               :          1
         and number of  CG  steps               :          4
  
 total energy / atom convergence tol.           : 0.1000E-07   eV
 eigen-energy convergence tolerance             : 0.2222E-08   eV
 max force / atom convergence tol.              : ignored
 convergence tolerance window                   :          3   cycles
 max. number of SCF cycles                      :         50
 number of fixed-spin iterations                :         10
 smearing scheme                                : Gaussian
 smearing width                                 : 0.2000       eV
 Fermi energy convergence tolerance             : 0.2721E-13   eV
 periodic dipole correction                     : NONE

 ************************** Density Mixing Parameters **************************
  
 density-mixing scheme                          : Pulay
 max. length of mixing history                  :         15
 charge density mixing amplitude                : 0.5000    
 cut-off energy for mixing                      :  900.0       eV

 *********************** Population Analysis Parameters ************************
  
 Population analysis with cutoff                :  3.000       A
 Population analysis output                     : summary and pdos components

 ********************** Geometry Optimization Parameters ***********************
  
 optimization method                            : LBFGS
 max. no. of LBFGS updates                      : unbounded
 preconditioned LBFGS is activated
 preconditioner type                            : EXP
     stabilization constant                     :     0.1000
     parameter A                                :     3.0000
     nearest neighbor distance                  : automatic
     cut-off distance                           : automatic
     parameter mu                               : automatic
 variable cell method                           : fixed basis quality
 max. number of steps                           :         30
 estimated bulk modulus                         :  500.0       GPa
 estimated <frequency>                          :  1668.       cm-1
 geom line minimiser                            : on
 with line minimiser tolerance                  :     0.4000
 total energy convergence tolerance             : 0.2000E-04   eV/atom
        max ionic |force| tolerance             : 0.1000E-02   eV/A
 max ionic |displacement| tolerance             : 0.1000E-02   A
   max |stress component| tolerance             : 0.1000       GPa
 convergence tolerance window                   :          2   steps
 backup results every                           :          5   steps
 write geom trajectory file                     : on

 *******************************************************************************
  

                           -------------------------------
                                      Unit Cell
                           -------------------------------
        Real Lattice(A)                      Reciprocal Lattice(1/A)
     5.9067420    -0.0000040    -0.0000040        1.063731124   0.000000721   0.000000721
    -0.0000040     5.9008410     0.0029470        0.000000721   1.064795149  -0.000531780
    -0.0000040     0.0029470     5.9008410        0.000000721  -0.000531780   1.064795149

                       Lattice parameters(A)       Cell Angles
                    a =      5.906742          alpha =   89.942771
                    b =      5.900842          beta  =   90.000078
                    c =      5.900842          gamma =   90.000078

                       Current cell volume =           205.672259       A**3
                                   density =             2.835419   AMU/A**3
                                           =             4.708324     g/cm^3

                           -------------------------------
                                     Cell Contents
                           -------------------------------
                         Total number of ions in cell =    8
                      Total number of species in cell =    2
                        Max number of any one species =    4

            xxxxxxxxxxxxxxxxxxxxxxxxxxxxxxxxxxxxxxxxxxxxxxxxxxxxxxxxxxxx
            x  Element    Atom        Fractional coordinates of atoms  x
            x            Number           u          v          w      x
            x----------------------------------------------------------x
            x  P            1         0.250000   0.250000   0.750000   x 
            x  P            2         0.750000   0.250000   0.250000   x 
            x  P            3         0.250000   0.750000   0.250000   x 
            x  P            4         0.750000   0.750000   0.750000   x 
            x  In           1         0.000000   0.000000   0.000000   x 
            x  In           2         0.500000  -0.000000   0.500000   x 
            x  In           3        -0.000000   0.500000   0.500000   x 
            x  In           4         0.500000   0.500000  -0.000000   x 
            xxxxxxxxxxxxxxxxxxxxxxxxxxxxxxxxxxxxxxxxxxxxxxxxxxxxxxxxxxxx


                         No user defined ionic velocities

                           -------------------------------
                                   Details of Species
                           -------------------------------

                               Mass of species in AMU
                                    P   30.9737600
                                    In  114.8180000

                          Electric Quadrupole Moment (Barn)
                                    P    1.0000000 No Isotope Defined
                                    In    0.7700000 Isotope115

                          Files used for pseudopotentials:
                                    P 3|1.8|4|4|5|30:31:32
                                    In 3|2.5|2.5|1.5|7|8|9|50:51:42U2.2U2.2

                           -------------------------------
                              k-Points For BZ Sampling
                           -------------------------------
                       MP grid size for SCF calculation is  6  6  6
                            with an offset of   0.083  0.083  0.083
                       Number of kpoints used =           112

                           -------------------------------
                               Symmetry and Constraints
                           -------------------------------

                      Cell is a supercell containing 4 primitive cells
                      Maximum deviation from symmetry =  0.00000         ANG

                      Number of symmetry operations   =           1
                      Number of ionic constraints     =           3
                      Point group of crystal =     1: C1, 1, 1
                      Space group of crystal =    44: Imm2, I 2 -2

             Set iprint > 1 for details on symmetry rotations/translations

                         Centre of mass is constrained
             Set iprint > 1 for details of linear ionic constraints

                         Number of cell constraints= 6
                         Cell constraints are:  0 0 0 0 0 0

                         External pressure/stress (GPa)
                          0.00000   0.00000   0.00000
                                    0.00000   0.00000
                                              0.00000
 
+---------------- MEMORY AND SCRATCH DISK ESTIMATES PER PROCESS --------------+
|                                                     Memory          Disk    |
| Baseline code, static data and system overhead      708.0 MB         0.0 MB |
| BLAS internal memory storage                          0.0 MB         0.0 MB |
| Model and support data                             1412.4 MB         0.0 MB |
| Electronic energy minimisation requirements         110.4 MB         0.0 MB |
| Force calculation requirements                       31.3 MB         0.0 MB |
| Stress calculation requirements                      34.6 MB         0.0 MB |
|                                               ----------------------------- |
| Approx. total storage required per process         2230.8 MB         0.0 MB |
|                                                                             |
| Requirements will fluctuate during execution and may exceed these estimates |
+-----------------------------------------------------------------------------+
Calculating approximate eigenstates for fixed initial Hamiltonian
Cut-off for approx. calculation is   89.988 eV
Improving approx. states at cut-off of  450.000 eV
Resetting cut-off to  900.000 eV
Calculating total energy with cut-off of  900.000 eV.
------------------------------------------------------------------------ <-- SCF
SCF loop      Energy           Fermi           Energy gain       Timer   <-- SCF
                               energy          per atom          (sec)   <-- SCF
------------------------------------------------------------------------ <-- SCF
Initial  -7.87900082E+003  0.00000000E+000                        35.43  <-- SCF
      1  -7.85060960E+003  2.57085903E+000  -3.54890266E+000      46.04  <-- SCF
      2  -7.85062435E+003  2.57076307E+000   1.84387718E-003      55.03  <-- SCF
      3  -7.85904466E+003  2.86680689E+000   1.05253839E+000      67.13  <-- SCF
      4  -7.86053649E+003  2.94094141E+000   1.86479827E-001      80.34  <-- SCF
      5  -7.85970632E+003  3.29789803E+000  -1.03771252E-001      92.33  <-- SCF
      6  -7.85976649E+003  3.35055026E+000   7.52027904E-003     104.10  <-- SCF
      7  -7.85971146E+003  3.38772812E+000  -6.87856278E-003     116.45  <-- SCF
      8  -7.85992201E+003  3.45409945E+000   2.63187566E-002     128.27  <-- SCF
      9  -7.85993048E+003  3.41760602E+000   1.05939796E-003     140.38  <-- SCF
     10  -7.85993296E+003  3.40731257E+000   3.09534498E-004     152.58  <-- SCF
     11  -7.85993295E+003  3.41001061E+000  -6.14874417E-007     164.88  <-- SCF
     12  -7.85993301E+003  3.40745211E+000   6.64909052E-006     177.20  <-- SCF
     13  -7.85993302E+003  3.40744450E+000   1.13282244E-006     188.38  <-- SCF
     14  -7.85993302E+003  3.40725031E+000   3.62900103E-007     199.38  <-- SCF
     15  -7.85993302E+003  3.40736474E+000  -7.61754525E-009     208.69  <-- SCF
     16  -7.85993302E+003  3.40739191E+000  -2.70417249E-009     217.99  <-- SCF
     17  -7.85993302E+003  3.40740237E+000   3.95668425E-009     227.29  <-- SCF
------------------------------------------------------------------------ <-- SCF
 
Final energy, E             =  -7859.933015115     eV
Final free energy (E-TS)    =  -7859.933019257     eV
(energies not corrected for finite basis set)
 
NB est. 0K energy (E-0.5TS)      =  -7859.933017186     eV
 
 
+---------------- MEMORY AND SCRATCH DISK ESTIMATES PER PROCESS --------------+
|                                                     Memory          Disk    |
| Model and support data                              838.2 MB         0.0 MB |
| Electronic energy minimisation requirements         110.4 MB         0.0 MB |
| Geometry minimisation requirements                  130.6 MB         0.0 MB |
|                                               ----------------------------- |
| Approx. total storage required per process         1079.3 MB         0.0 MB |
|                                                                             |
| Requirements will fluctuate during execution and may exceed these estimates |
+-----------------------------------------------------------------------------+
 

 ************************************** Forces **************************************
 *                                                                                  *
 *                           Cartesian components (eV/A)                            *
 * -------------------------------------------------------------------------------- *
 *                         x                    y                    z              *
 *                                                                                  *
 * P               1      0.00758             -0.00001             -0.00001         *
 * P               2      0.00759             -0.00001             -0.00001         *
 * P               3      0.00758             -0.00001             -0.00001         *
 * P               4      0.00758             -0.00001             -0.00001         *
 * In              1     -0.00758              0.00001              0.00001         *
 * In              2     -0.00758              0.00001              0.00001         *
 * In              3     -0.00758              0.00001              0.00001         *
 * In              4     -0.00758              0.00000              0.00001         *
 *                                                                                  *
 ************************************************************************************
 EXP precond LBFGS => estimated nearest neighbor distance :  2.555       A
 EXP precond LBFGS => estimated cutoff distance :  5.110       A

 ************************************** Forces **************************************
 *                                                                                  *
 *                           Cartesian components (eV/A)                            *
 * -------------------------------------------------------------------------------- *
 *                         x                    y                    z              *
 *                                                                                  *
 * P               1      0.00758             -0.00001             -0.00001         *
 * P               2      0.00759             -0.00001             -0.00001         *
 * P               3      0.00758             -0.00001             -0.00001         *
 * P               4      0.00758             -0.00001             -0.00001         *
 * In              1     -0.00758              0.00001              0.00001         *
 * In              2     -0.00758              0.00001              0.00001         *
 * In              3     -0.00758              0.00001              0.00001         *
 * In              4     -0.00758              0.00000              0.00001         *
 *                                                                                  *
 ************************************************************************************
 doing test perturbation to get energy scale for EXP preconditioner

                           -------------------------------
                                     Cell Contents
                           -------------------------------

            xxxxxxxxxxxxxxxxxxxxxxxxxxxxxxxxxxxxxxxxxxxxxxxxxxxxxxxxxxxxxxxxx
            x  Element         Atom        Fractional coordinates of atoms  x
            x                 Number           u          v          w      x
            x---------------------------------------------------------------x
            x  P                 1         0.251415   0.251071   0.752951   x
            x  P                 2         0.753640   0.251071   0.251071   x
            x  P                 3         0.251415   0.752951   0.251071   x
            x  P                 4         0.753640   0.752951   0.752951   x
            x  In                1         0.000000   0.000000   0.000000   x
            x  In                2         0.502675   1.003643   0.502075   x
            x  In                3        -0.000000   0.502075   0.502075   x
            x  In                4         0.502675   0.502076   1.003643   x
            xxxxxxxxxxxxxxxxxxxxxxxxxxxxxxxxxxxxxxxxxxxxxxxxxxxxxxxxxxxxxxxxx


------------------------------------------------------------------------ <-- SCF
SCF loop      Energy           Fermi           Energy gain       Timer   <-- SCF
                               energy          per atom          (sec)   <-- SCF
------------------------------------------------------------------------ <-- SCF
Initial  -7.85962098E+003  0.00000000E+000                       245.22  <-- SCF
      1  -7.85989071E+003  3.40825062E+000   3.37162167E-002     254.80  <-- SCF
      2  -7.85992638E+003  3.40817046E+000   4.45775363E-003     269.27  <-- SCF
      3  -7.85992673E+003  3.40821509E+000   4.39892827E-005     281.98  <-- SCF
      4  -7.85992700E+003  3.40825814E+000   3.35429185E-005     294.74  <-- SCF
      5  -7.85992703E+003  3.40823782E+000   4.65074784E-006     308.53  <-- SCF
      6  -7.85992704E+003  3.40823140E+000   8.76519250E-007     321.17  <-- SCF
      7  -7.85992704E+003  3.40823626E+000   5.22091293E-008     332.01  <-- SCF
      8  -7.85992704E+003  3.40823679E+000   1.00885394E-008     341.52  <-- SCF
      9  -7.85992704E+003  3.40823633E+000   6.65505629E-010     351.02  <-- SCF
     10  -7.85992704E+003  3.40823577E+000   1.81167570E-010     360.53  <-- SCF
     11  -7.85992704E+003  3.40823574E+000   5.43309360E-011     369.92  <-- SCF
------------------------------------------------------------------------ <-- SCF
 
Final energy, E             =  -7859.927036077     eV
Final free energy (E-TS)    =  -7859.927040346     eV
(energies not corrected for finite basis set)
 
NB est. 0K energy (E-0.5TS)      =  -7859.927038212     eV
 

 ************************************** Forces **************************************
 *                                                                                  *
 *                           Cartesian components (eV/A)                            *
 * -------------------------------------------------------------------------------- *
 *                         x                    y                    z              *
 *                                                                                  *
 * P               1      0.03120              0.09797             -0.03026         *
 * P               2     -0.05011              0.02696              0.02696         *
 * P               3      0.03119             -0.03026              0.09797         *
 * P               4     -0.20220             -0.10996             -0.10996         *
 * In              1      0.15851              0.09409              0.09409         *
 * In              2     -0.05940             -0.06252             -0.00786         *
 * In              3      0.15021             -0.00841             -0.00840         *
 * In              4     -0.05940             -0.00787             -0.06252         *
 *                                                                                  *
 ************************************************************************************
 EXP precond LBFGS => estimated parameter mu :  2.074       eV/A**2
 LBFGS: finished iteration     0 with enthalpy= -7.85993302E+003 eV
  
 +-----------+-----------------+-----------------+------------+-----+ <-- LBFGS
 | Parameter |      value      |    tolerance    |    units   | OK? | <-- LBFGS
 +-----------+-----------------+-----------------+------------+-----+ <-- LBFGS
 |  dE/ion   |   0.000000E+000 |   2.000000E-005 |         eV | No  | <-- LBFGS
 |  |F|max   |   2.550832E-001 |   1.000000E-003 |       eV/A | No  | <-- LBFGS
 |  |dR|max  |   1.764949E-015 |   1.000000E-003 |          A | No  | <-- LBFGS
 +-----------+-----------------+-----------------+------------+-----+ <-- LBFGS
  

================================================================================
 Starting LBFGS iteration          1 ...
================================================================================
  
 +------------+-------------+-------------+-----------------+ <-- min LBFGS
 |    Step    |   lambda    |   F.delta'  |    enthalpy     | <-- min LBFGS
 +------------+-------------+-------------+-----------------+ <-- min LBFGS
 |  previous  |    0.000000 |    0.004656 |    -7859.933019 | <-- min LBFGS
 +------------+-------------+-------------+-----------------+ <-- min LBFGS
  

--------------------------------------------------------------------------------
 LBFGS: starting iteration         1 with trial guess (lambda=  1.000000)
--------------------------------------------------------------------------------

                           -------------------------------
                                     Cell Contents
                           -------------------------------

            xxxxxxxxxxxxxxxxxxxxxxxxxxxxxxxxxxxxxxxxxxxxxxxxxxxxxxxxxxxxxxxxx
            x  Element         Atom        Fractional coordinates of atoms  x
            x                 Number           u          v          w      x
            x---------------------------------------------------------------x
            x  P                 1         0.250077   0.250000   0.750000   x
            x  P                 2         0.750077   0.250000   0.250000   x
            x  P                 3         0.250077   0.750000   0.250000   x
            x  P                 4         0.750077   0.750000   0.750000   x
            x  In                1        -0.000076   0.000000   0.000000   x
            x  In                2         0.499923   0.000000   0.500000   x
            x  In                3        -0.000077   0.500000   0.500000   x
            x  In                4         0.499923   0.500000  -0.000000   x
            xxxxxxxxxxxxxxxxxxxxxxxxxxxxxxxxxxxxxxxxxxxxxxxxxxxxxxxxxxxxxxxxx


------------------------------------------------------------------------ <-- SCF
SCF loop      Energy           Fermi           Energy gain       Timer   <-- SCF
                               energy          per atom          (sec)   <-- SCF
------------------------------------------------------------------------ <-- SCF
Initial  -7.85959765E+003  0.00000000E+000                       381.56  <-- SCF
      1  -7.85989606E+003  3.40735161E+000   3.73017234E-002     391.16  <-- SCF
      2  -7.85993240E+003  3.40726758E+000   4.54238121E-003     405.61  <-- SCF
      3  -7.85993274E+003  3.40734081E+000   4.17073967E-005     418.17  <-- SCF
      4  -7.85993299E+003  3.40742074E+000   3.23019483E-005     430.88  <-- SCF
      5  -7.85993302E+003  3.40741872E+000   3.61235450E-006     444.82  <-- SCF
      6  -7.85993303E+003  3.40742064E+000   1.19815858E-006     457.36  <-- SCF
      7  -7.85993303E+003  3.40742532E+000   6.42607363E-008     468.60  <-- SCF
      8  -7.85993303E+003  3.40742633E+000   7.86019766E-009     477.99  <-- SCF
      9  -7.85993303E+003  3.40742663E+000   3.76449581E-010     487.37  <-- SCF
------------------------------------------------------------------------ <-- SCF
 
Final energy, E             =  -7859.933029828     eV
Final free energy (E-TS)    =  -7859.933033973     eV
(energies not corrected for finite basis set)
 
NB est. 0K energy (E-0.5TS)      =  -7859.933031901     eV
 

 ************************************** Forces **************************************
 *                                                                                  *
 *                           Cartesian components (eV/A)                            *
 * -------------------------------------------------------------------------------- *
 *                         x                    y                    z              *
 *                                                                                  *
 * P               1      0.00063              0.00007              0.00005         *
 * P               2      0.00061              0.00006              0.00006         *
 * P               3      0.00063              0.00005              0.00007         *
 * P               4      0.00060              0.00004              0.00004         *
 * In              1     -0.00074             -0.00003             -0.00003         *
 * In              2     -0.00050             -0.00011             -0.00004         *
 * In              3     -0.00073             -0.00004             -0.00004         *
 * In              4     -0.00050             -0.00004             -0.00011         *
 *                                                                                  *
 ************************************************************************************
  
 +------------+-------------+-------------+-----------------+ <-- min LBFGS
 |    Step    |   lambda    |   F.delta'  |    enthalpy     | <-- min LBFGS
 +------------+-------------+-------------+-----------------+ <-- min LBFGS
 |  previous  |    0.000000 |    0.004656 |    -7859.933019 | <-- min LBFGS
 | trial step |    1.000000 |    0.000379 |    -7859.933034 | <-- min LBFGS
 +------------+-------------+-------------+-----------------+ <-- min LBFGS
  
 LBFGS: finished iteration     1 with enthalpy= -7.85993303E+003 eV
  
 +-----------+-----------------+-----------------+------------+-----+ <-- LBFGS
 | Parameter |      value      |    tolerance    |    units   | OK? | <-- LBFGS
 +-----------+-----------------+-----------------+------------+-----+ <-- LBFGS
 |  dE/ion   |   1.839543E-006 |   2.000000E-005 |         eV | Yes | <-- LBFGS
 |  |F|max   |   7.394341E-004 |   1.000000E-003 |       eV/A | Yes | <-- LBFGS
 |  |dR|max  |   4.525205E-004 |   1.000000E-003 |          A | Yes | <-- LBFGS
 +-----------+-----------------+-----------------+------------+-----+ <-- LBFGS
  
 LBFGS: Geometry optimization completed successfully.

================================================================================
 LBFGS: Final Configuration:
================================================================================

                           -------------------------------
                                     Cell Contents
                           -------------------------------

            xxxxxxxxxxxxxxxxxxxxxxxxxxxxxxxxxxxxxxxxxxxxxxxxxxxxxxxxxxxxxxxxx
            x  Element         Atom        Fractional coordinates of atoms  x
            x                 Number           u          v          w      x
            x---------------------------------------------------------------x
            x  P                 1         0.250077   0.250000   0.750000   x
            x  P                 2         0.750077   0.250000   0.250000   x
            x  P                 3         0.250077   0.750000   0.250000   x
            x  P                 4         0.750077   0.750000   0.750000   x
            x  In                1        -0.000076   0.000000   0.000000   x
            x  In                2         0.499923   0.000000   0.500000   x
            x  In                3        -0.000077   0.500000   0.500000   x
            x  In                4         0.499923   0.500000  -0.000000   x
            xxxxxxxxxxxxxxxxxxxxxxxxxxxxxxxxxxxxxxxxxxxxxxxxxxxxxxxxxxxxxxxxx


 LBFGS: Final Enthalpy     = -7.85993303E+003 eV
 LBFGS: Final <frequency>  unchanged from initial value

 ************************************** Forces **************************************
 *                                                                                  *
 *                           Cartesian components (eV/A)                            *
 * -------------------------------------------------------------------------------- *
 *                         x                    y                    z              *
 *                                                                                  *
 * P               1      0.00063              0.00007              0.00005         *
 * P               2      0.00061              0.00006              0.00006         *
 * P               3      0.00063              0.00005              0.00007         *
 * P               4      0.00060              0.00004              0.00004         *
 * In              1     -0.00074             -0.00003             -0.00003         *
 * In              2     -0.00050             -0.00011             -0.00004         *
 * In              3     -0.00073             -0.00004             -0.00004         *
 * In              4     -0.00050             -0.00004             -0.00011         *
 *                                                                                  *
 ************************************************************************************

 ***************** Stress Tensor *****************
 *                                               *
 *          Cartesian components (GPa)           *
 * --------------------------------------------- *
 *             x             y             z     *
 *                                               *
 *  x      0.100415     -0.000121     -0.000120  *
 *  y     -0.000121      0.055639      0.047881  *
 *  z     -0.000120      0.047881      0.055639  *
 *                                               *
 *  Pressure:   -0.0706                          *
 *                                               *
 *************************************************

 Pseudo atomic calculation performed for P 3s2 3p3

 Converged in 23 iterations to a total energy of -208.0292 eV

 Pseudo atomic calculation performed for In 4d10 5s2 5p1

 Converged in 42 iterations to a total energy of -1747.4501 eV
Charge spilling parameter for spin component 1 = 0.15%

            Orbital Populations       
     Ion    Atom   Orbital             Charge
  -------------------------------------------
      P     1      S                    1.735
      P     1      Px                   1.313
      P     1      Py                   1.314
      P     1      Pz                   1.314
      P     2      S                    1.735
      P     2      Px                   1.313
      P     2      Py                   1.314
      P     2      Pz                   1.314
      P     3      S                    1.735
      P     3      Px                   1.313
      P     3      Py                   1.314
      P     3      Pz                   1.314
      P     4      S                    1.735
      P     4      Px                   1.313
      P     4      Py                   1.314
      P     4      Pz                   1.314
     In     1      Dzz                  1.999
     In     1      Dzy                  1.997
     In     1      Dzx                  1.997
     In     1      Dxx-yy               1.999
     In     1      Dxy                  1.997
     In     1      S                    1.434
     In     1      Px                   0.482
     In     1      Py                   0.482
     In     1      Pz                   0.482
     In     1      S                   -0.545
     In     2      Dzz                  1.999
     In     2      Dzy                  1.997
     In     2      Dzx                  1.997
     In     2      Dxx-yy               1.999
     In     2      Dxy                  1.997
     In     2      S                    1.434
     In     2      Px                   0.482
     In     2      Py                   0.482
     In     2      Pz                   0.482
     In     2      S                   -0.545
     In     3      Dzz                  1.999
     In     3      Dzy                  1.997
     In     3      Dzx                  1.997
     In     3      Dxx-yy               1.999
     In     3      Dxy                  1.997
     In     3      S                    1.434
     In     3      Px                   0.482
     In     3      Py                   0.482
     In     3      Pz                   0.482
     In     3      S                   -0.545
     In     4      Dzz                  1.999
     In     4      Dzy                  1.997
     In     4      Dzx                  1.997
     In     4      Dxx-yy               1.999
     In     4      Dxy                  1.997
     In     4      S                    1.434
     In     4      Px                   0.482
     In     4      Py                   0.482
     In     4      Pz                   0.482
     In     4      S                   -0.545
  -------------------------------------------
                           Total:      72.000
  -------------------------------------------

     Atomic Populations (Mulliken)
     -----------------------------
Species          Ion     s       p       d       f      Total   Charge (e)
==========================================================================
  P               1     1.735   3.940   0.000   0.000   5.676    -0.676
  P               2     1.735   3.940   0.000   0.000   5.676    -0.676
  P               3     1.735   3.940   0.000   0.000   5.676    -0.676
  P               4     1.735   3.940   0.000   0.000   5.676    -0.676
  In              1     0.889   1.446   9.989   0.000  12.324     0.676
  In              2     0.889   1.446   9.989   0.000  12.324     0.676
  In              3     0.889   1.446   9.989   0.000  12.324     0.676
  In              4     0.889   1.446   9.989   0.000  12.324     0.676
==========================================================================

                 Bond                   Population      Length (A)
======================================================================
               P 1 -- In 1                   0.56        2.55566
               P 3 -- In 3                   0.56        2.55566
               P 4 -- In 2                   0.56        2.55566
               P 4 -- In 4                   0.56        2.55566
               P 3 -- In 1                   0.56        2.55566
               P 2 -- In 4                   0.56        2.55566
               P 1 -- In 3                   0.56        2.55566
               P 2 -- In 2                   0.56        2.55566
               P 1 -- In 4                   0.56        2.55632
               P 2 -- In 3                   0.56        2.55632
               P 3 -- In 2                   0.56        2.55632
               P 4 -- In 1                   0.56        2.55632
               P 2 -- In 1                   0.56        2.55632
               P 4 -- In 3                   0.56        2.55632
               P 1 -- In 2                   0.56        2.55632
               P 3 -- In 4                   0.56        2.55632
======================================================================


     Hirshfeld Analysis
     ------------------
Species   Ion     Hirshfeld Charge (e)
======================================
  P        1                -0.24
  P        2                -0.24
  P        3                -0.24
  P        4                -0.24
  In       1                 0.24
  In       2                 0.24
  In       3                 0.24
  In       4                 0.24
======================================

 
 A BibTeX formatted list of references used in this run has been written to 
 Bulk_Elastic_7.bib
 
Initialisation time =     12.82 s
Calculation time    =    579.92 s
Finalisation time   =      0.82 s
Total time          =    593.55 s
Peak Memory Use     = 2586604 kB
 
Overall parallel efficiency rating: Excellent (95%)
 
Data was distributed by:-
k-point (56-way); efficiency rating: Excellent (95%)
 
Parallel notes:
1) Calculation only took 592.7 s, so efficiency estimates may be inaccurate.
