 +-------------------------------------------------+
 |                                                 |
 |      CCC   AA    SSS  TTTTT  EEEEE  PPPP        |
 |     C     A  A  S       T    E      P   P       |
 |     C     AAAA   SS     T    EEE    PPPP        |
 |     C     A  A     S    T    E      P           |
 |      CCC  A  A  SSS     T    EEEEE  P           |
 |                                                 |
 +-------------------------------------------------+
 |                                                 |
 | Welcome to Academic Release CASTEP version 20.11|          
 | Ab Initio Total Energy Program                  |
 |                                                 |
 | Authors:                                        |
 | M. Segall, M. Probert, C. Pickard, P. Hasnip,   |
 | S. Clark, K. Refson, J. R. Yates, M. Payne      |
 |                                                 |
 | Contributors:                                   |
 | P. Lindan, P. Haynes, J. White, V. Milman,      |
 | N. Govind, M. Gibson, P. Tulip, V. Cocula,      |
 | B. Montanari, D. Quigley, M. Glover,            |
 | L. Bernasconi, A. Perlov, M. Plummer,           |
 | E. McNellis, J. Meyer, J. Gale, D. Jochym       |
 | J. Aarons, B. Walker, R. Gillen, D. Jones       |
 | T. Green, I. J. Bush, C. J. Armstrong,          |
 | E. J. Higgins, E. L. Brown, M. S. McFly,        |
 | J. Wilkins, B-C. Shih, P. J. P. Byrne,          |
 | R. J. Maurer, J. C. Womack, J. Dziedzic,        |
 | J. R. Kermode, A. Bartok-Partay                 |
 |                                                 |
 | Copyright (c) 2000 - 2020                       |
 |                                                 |
 |     Distributed under license from Cambridge    |
 |     Enterprise for academic use only.           |
 |                                                 |
 | Please cite                                     |
 |                                                 |
 |     "First principles methods using CASTEP"     |
 |                                                 |
 |         Zeitschrift fuer Kristallographie       |
 |           220(5-6) pp. 567-570 (2005)           |
 |                                                 |
 | S. J. Clark, M. D. Segall, C. J. Pickard,       |
 | P. J. Hasnip, M. J. Probert, K. Refson,         |
 | M. C. Payne                                     |
 |                                                 |
 |       in all publications arising from          |
 |              your use of CASTEP                 |
 |                                                 |
 +-------------------------------------------------+
 |                                                 |
 |              http://www.castep.org              |
 |                                                 |
 +-------------------------------------------------+
 
 
 
 Compiled for linux_x86_64_ifort on Wed, 25 Aug 2021 18:50:38 +0100
 from code version e772bf432+  HEAD  Sat Apr 3 17:41:32 2021 +0100
 Compiler: Intel Fortran 19.0.5.281; Optimisation: fast
 MATHLIBS: Intel MKL(2019.0.5) (LAPACK version 3.7.0)
 FFT Lib : mkl
 Fundamental constants values: CODATA 2014
 
 Run started: Thu, 15 Dec 2022 15:44:06 +0000
 
 Atomic calculation performed for P: 1s2 2s2 2p6 3s2 3p3
 
 Exceeded max iterations: converged to -0.000003405 eV
 The ae energy is -9309.074 eV
 
   ============================================================                
   | Pseudopotential Report - Date of generation 15-12-2022   |                
   ------------------------------------------------------------                
   | Element: P Ionic charge:  5.00 Level of theory: RSCAN    |                
   | Atomic Solver: Koelling-Harmon                           |                
   |                                                          |                
   |               Reference Electronic Structure             |                
   |         Orbital         Occupation         Energy        |                
   |            3s              2.000           -0.535        |                
   |            3p              3.000           -0.209        |                
   |                                                          |                
   |                 Pseudopotential Definition               |                
   |        Beta     l      e      Rc     scheme   norm       |                
   |          1      0   -0.535   1.807     qc      0         |                
   |          2      0    0.250   1.807     qc      0         |                
   |          3      1   -0.209   1.807     qc      0         |                
   |          4      1    0.250   1.807     qc      0         |                
   |          5      2    0.000   1.807     qc      0         |                
   |          6      2    0.250   1.807     qc      0         |                
   |         loc     3    0.000   1.807     pn      0         |                
   |                                                          |                
   | Augmentation charge Rinner = 1.263                       |                
   | Partial core correction Rc = 1.263                       |                
   ------------------------------------------------------------                
   | "3|1.8|4|4|5|30:31:32"                                   |                
   ------------------------------------------------------------                
   |      Author: Chris J. Pickard, Cambridge University      |                
   ============================================================                
 Warning: ion_atom_output_psp cannot write out meta-GGA pseudopotentials present
 ly.
 
 Atomic calculation performed for In:
 1s2 2s2 2p6 3s2 3p6 3d10 4s2 4p6 4d10 5s2 5p1
 
 Exceeded max iterations: converged to -0.000725459 eV
 The ae energy is -160093.321 eV
 
   ============================================================                
   | Pseudopotential Report - Date of generation 15-12-2022   |                
   ------------------------------------------------------------                
   | Element: In Ionic charge: 13.00 Level of theory: RSCAN   |                
   | Atomic Solver: Koelling-Harmon                           |                
   |                                                          |                
   |               Reference Electronic Structure             |                
   |         Orbital         Occupation         Energy        |                
   |            4d             10.000           -0.711        |                
   |            5s              2.000           -0.313        |                
   |            5p              1.000           -0.095        |                
   |                                                          |                
   |                 Pseudopotential Definition               |                
   |        Beta     l      e      Rc     scheme   norm       |                
   |          1      0   -0.313   2.501     qc      0         |                
   |          2      0    0.250   2.501     qc      0         |                
   |          3      1   -0.095   2.501     qc      0         |                
   |          4      1    0.250   2.501     qc      0         |                
   |          5      2   -0.711   2.207     qc      0         |                
   |          6      2    0.250   2.207     qc      0         |                
   |         loc     3    0.000   2.501     pn      0         |                
   |                                                          |                
   | Augmentation charge Rinner = 1.504                       |                
   | Partial core correction Rc = 1.504                       |                
   ------------------------------------------------------------                
   | "3|2.5|2.5|1.5|7|8|9|50:51:42U2.2U2.2"                   |                
   ------------------------------------------------------------                
   |      Author: Chris J. Pickard, Cambridge University      |                
   ============================================================                
 Warning: ion_atom_output_psp cannot write out meta-GGA pseudopotentials present
 ly.
 
 Pseudo atomic calculation performed for P 3s2 3p3
 
 Converged in 23 iterations to a total energy of -208.0292 eV
 
 Pseudo atomic calculation performed for In 4d10 5s2 5p1
 
 Converged in 42 iterations to a total energy of -1747.4504 eV
 Calculation parallelised over 32 processes.
 Data is distributed by k-point(32-way)

 ************************************ Title ************************************
 

 ***************************** General Parameters ******************************
  
 output verbosity                               : normal  (1)
 write checkpoint data to                       : ZB_EOS_0.7684.check
 type of calculation                            : single point energy
 stress calculation                             : on
 density difference calculation                 : off
 electron localisation func (ELF) calculation   : off
 Hirshfeld analysis                             : off
 molecular orbital projected DOS                : off
 deltaSCF calculation                           : off
 unlimited duration calculation
 timing information                             : on
 memory usage estimate                          : on
 write extra output files                       : on
 write final potential to formatted file        : off
 write final density to formatted file          : off
 write BibTeX reference list                    : on
 write OTFG pseudopotential files               : on
 write electrostatic potential file             : on
 write bands file                               : on
 checkpoint writing                             : off
  
 output         length unit                     : A
 output           mass unit                     : amu
 output           time unit                     : ps
 output         charge unit                     : e
 output           spin unit                     : hbar/2
 output         energy unit                     : eV
 output          force unit                     : eV/A
 output       velocity unit                     : A/ps
 output       pressure unit                     : GPa
 output     inv_length unit                     : 1/A
 output      frequency unit                     : cm-1
 output force constant unit                     : eV/A**2
 output         volume unit                     : A**3
 output   IR intensity unit                     : (D/A)**2/amu
 output         dipole unit                     : D
 output         efield unit                     : eV/A/e
 output        entropy unit                     : J/mol/K
 output    efield chi2 unit                     : pm/V
  
 wavefunctions paging                           : none
 random number generator seed                   : randomised (154406715)
 data distribution                              : optimal for this architecture
 optimization strategy                          : balance speed and memory

 *********************** Exchange-Correlation Parameters ***********************
  
 using functional                               : RSCAN
 relativistic treatment                         : Koelling-Harmon
 DFT+D: Semi-empirical dispersion correction    : off

 ************************* Pseudopotential Parameters **************************
  
 pseudopotential representation                 : reciprocal space
 <beta|phi> representation                      : reciprocal space
 spin-orbit coupling                            : off

 **************************** Basis Set Parameters *****************************
  
 plane wave basis set cut-off                   :   900.0000   eV
 size of standard grid                          :     1.7500
 size of   fine   gmax                          :    26.8966   1/A
 finite basis set correction                    : automatic
 number of sample energies                      :          3
           sample  spacing                      :     5.0000   eV

 **************************** Electronic Parameters ****************************
  
 number of  electrons                           :  72.00    
 net charge of system                           :  0.000    
 treating system as non-spin-polarized
 number of bands                                :         43

 ********************* Electronic Minimization Parameters **********************
  
 Method: Treating system as metallic with density mixing treatment of electrons,
         and number of  SD  steps               :          1
         and number of  CG  steps               :          4
  
 total energy / atom convergence tol.           : 0.1000E-07   eV
 eigen-energy convergence tolerance             : 0.2222E-08   eV
 max force / atom convergence tol.              : ignored
 convergence tolerance window                   :          3   cycles
 max. number of SCF cycles                      :         30
 number of fixed-spin iterations                :         10
 smearing scheme                                : Gaussian
 smearing width                                 : 0.2000       eV
 Fermi energy convergence tolerance             : 0.2721E-13   eV
 periodic dipole correction                     : NONE

 ************************** Density Mixing Parameters **************************
  
 density-mixing scheme                          : Broyden
 max. length of mixing history                  :         20
 charge density mixing amplitude                : 0.8000    
 cut-off energy for mixing                      :  900.0       eV

 *********************** Population Analysis Parameters ************************
  
 Population analysis with cutoff                :  3.000       A
 Population analysis output                     : summary and pdos components

 *******************************************************************************
  
 
                           -------------------------------
                                      Unit Cell
                           -------------------------------
        Real Lattice(A)                      Reciprocal Lattice(1/A)
     4.5346910     0.0000000     0.0000000        1.385581798   0.000000000   0.000000000
     0.0000000     4.5346910     0.0000000        0.000000000   1.385581798   0.000000000
     0.0000000     0.0000000     4.5346910        0.000000000   0.000000000   1.385581798
 
                       Lattice parameters(A)       Cell Angles
                    a =      4.534691          alpha =   90.000000
                    b =      4.534691          beta  =   90.000000
                    c =      4.534691          gamma =   90.000000
 
                       Current cell volume =            93.248767       A**3
                                   density =             6.253885   AMU/A**3
                                           =            10.384820     g/cm^3
 
                           -------------------------------
                                     Cell Contents
                           -------------------------------
                         Total number of ions in cell =    8
                      Total number of species in cell =    2
                        Max number of any one species =    4
 
            xxxxxxxxxxxxxxxxxxxxxxxxxxxxxxxxxxxxxxxxxxxxxxxxxxxxxxxxxxxx
            x  Element    Atom        Fractional coordinates of atoms  x
            x            Number           u          v          w      x
            x----------------------------------------------------------x
            x  P            1         0.250000   0.250000   0.750000   x 
            x  P            2         0.750000   0.250000   0.250000   x 
            x  P            3         0.250000   0.750000   0.250000   x 
            x  P            4         0.750000   0.750000   0.750000   x 
            x  In           1         0.000000   0.000000   0.000000   x 
            x  In           2         0.500000   0.000000   0.500000   x 
            x  In           3         0.000000   0.500000   0.500000   x 
            x  In           4         0.500000   0.500000   0.000000   x 
            xxxxxxxxxxxxxxxxxxxxxxxxxxxxxxxxxxxxxxxxxxxxxxxxxxxxxxxxxxxx
 
 
                         No user defined ionic velocities
 
                           -------------------------------
                                   Details of Species
                           -------------------------------
 
                               Mass of species in AMU
                                    P   30.9737600
                                    In  114.8180000
 
                          Electric Quadrupole Moment (Barn)
                                    P    1.0000000 No Isotope Defined
                                    In    0.7700000 Isotope115
 
                          Files used for pseudopotentials:
                                    P 3|1.8|4|4|5|30:31:32
                                    In 3|2.5|2.5|1.5|7|8|9|50:51:42U2.2U2.2
 
                           -------------------------------
                              k-Points For BZ Sampling
                           -------------------------------
                       MP grid size for SCF calculation is  9  9  9
                            with an offset of   0.056  0.056  0.056
                       Number of kpoints used =           365
 
                           -------------------------------
                               Symmetry and Constraints
                           -------------------------------
 
                      Cell is a supercell containing 4 primitive cells
                      Maximum deviation from symmetry =  0.00000         ANG
 
                      Number of symmetry operations   =           1
                      Number of ionic constraints     =           3
                      Point group of crystal =     1: C1, 1, 1
                      Space group of crystal =   216: F-43m, F -4 2 3
 
             Set iprint > 1 for details on symmetry rotations/translations
 
                         Centre of mass is constrained
             Set iprint > 1 for details of linear ionic constraints
 
                         Number of cell constraints= 0
                         Cell constraints are:  1 2 3 4 5 6
 
                         External pressure/stress (GPa)
                          0.00000   0.00000   0.00000
                                    0.00000   0.00000
                                              0.00000
  
+---------------- MEMORY AND SCRATCH DISK ESTIMATES PER PROCESS --------------+
|                                                     Memory          Disk    |
| Baseline code, static data and system overhead      391.0 MB         0.0 MB |
| BLAS internal memory storage                          0.0 MB         0.0 MB |
| Model and support data                              257.9 MB       342.8 MB |
| Electronic energy minimisation requirements         129.8 MB         0.0 MB |
| Force calculation requirements                        9.3 MB         0.0 MB |
| Stress calculation requirements                      10.3 MB         0.0 MB |
|                                               ----------------------------- |
| Approx. total storage required per process          778.7 MB       342.8 MB |
|                                                                             |
| Requirements will fluctuate during execution and may exceed these estimates |
+-----------------------------------------------------------------------------+
Calculating finite basis set correction with  3 cut-off energies.
Calculating total energy with cut-off of  890.000 eV.
------------------------------------------------------------------------ <-- SCF
SCF loop      Energy           Fermi           Energy gain       Timer   <-- SCF
                               energy          per atom          (sec)   <-- SCF
------------------------------------------------------------------------ <-- SCF
Initial  -6.25732652E+003  0.00000000E+000                        20.53  <-- SCF
      1  -7.62327428E+003  1.34278478E+001   1.70743470E+002      50.34  <-- SCF
      2  -7.77824598E+003  1.38206233E+001   1.93714631E+001      72.42  <-- SCF
      3  -7.78064412E+003  1.35844812E+001   2.99767126E-001      95.67  <-- SCF
      4  -7.81039251E+003  1.39900377E+001   3.71854862E+000     120.50  <-- SCF
      5  -7.81040670E+003  1.39885774E+001   1.77407548E-003     145.81  <-- SCF
      6  -7.81030677E+003  1.40900301E+001  -1.24911459E-002     171.21  <-- SCF
      7  -7.80818047E+003  1.42940696E+001  -2.65787914E-001     197.12  <-- SCF
      8  -7.80825917E+003  1.43377300E+001   9.83777048E-003     224.43  <-- SCF
      9  -7.80825942E+003  1.43421313E+001   3.09408366E-005     252.70  <-- SCF
     10  -7.80825990E+003  1.43469320E+001   6.07771016E-005     278.96  <-- SCF
     11  -7.80825995E+003  1.43481279E+001   5.22749702E-006     306.79  <-- SCF
     12  -7.80825995E+003  1.43482756E+001   1.25288299E-007     327.94  <-- SCF
     13  -7.80825995E+003  1.43483441E+001   9.96421632E-009     345.88  <-- SCF
     14  -7.80825995E+003  1.43483424E+001   5.97253599E-010     363.57  <-- SCF
     15  -7.80825995E+003  1.43483438E+001   1.50425154E-010     380.92  <-- SCF
------------------------------------------------------------------------ <-- SCF
 
Final energy, E             =  -7808.249321104     eV
Final free energy (E-TS)    =  -7808.259946916     eV
(energies not corrected for finite basis set)
 
NB est. 0K energy (E-0.5TS)      =  -7808.254634010     eV
 
Calculating total energy with cut-off of  895.000 eV.
------------------------------------------------------------------------ <-- SCF
SCF loop      Energy           Fermi           Energy gain       Timer   <-- SCF
                               energy          per atom          (sec)   <-- SCF
------------------------------------------------------------------------ <-- SCF
Initial  -7.80824932E+003  0.00000000E+000                       386.25  <-- SCF
      1  -7.80825997E+003  1.43483420E+001   1.33117897E-003     411.10  <-- SCF
      2  -7.80825997E+003  1.43483420E+001   2.47486114E-011     428.39  <-- SCF
      3  -7.80825997E+003  1.43483435E+001   8.37972515E-010     445.48  <-- SCF
      4  -7.80825997E+003  1.43483429E+001   4.36967670E-011     462.71  <-- SCF
------------------------------------------------------------------------ <-- SCF
 
Final energy, E             =  -7808.249344784     eV
Final free energy (E-TS)    =  -7808.259970537     eV
(energies not corrected for finite basis set)
 
NB est. 0K energy (E-0.5TS)      =  -7808.254657661     eV
 
Calculating total energy with cut-off of  900.000 eV.
------------------------------------------------------------------------ <-- SCF
SCF loop      Energy           Fermi           Energy gain       Timer   <-- SCF
                               energy          per atom          (sec)   <-- SCF
------------------------------------------------------------------------ <-- SCF
Initial  -7.80824934E+003  0.00000000E+000                       467.89  <-- SCF
      1  -7.80825999E+003  1.43483433E+001   1.33092382E-003     492.93  <-- SCF
      2  -7.80825999E+003  1.43483433E+001   7.92728959E-012     510.40  <-- SCF
      3  -7.80825999E+003  1.43483429E+001   7.75134244E-010     528.36  <-- SCF
      4  -7.80825999E+003  1.43483433E+001   4.21499788E-011     545.69  <-- SCF
------------------------------------------------------------------------ <-- SCF
 
Final energy, E             =  -7808.249366458     eV
Final free energy (E-TS)    =  -7808.259992177     eV
(energies not corrected for finite basis set)
 
NB est. 0K energy (E-0.5TS)      =  -7808.254679317     eV
 
 For future reference: finite basis dEtot/dlog(Ecut) =      -0.004124eV
 Total energy corrected for finite basis set =   -7808.259992 eV
 
 ************************** Forces **************************
 *                                                          *
 *               Cartesian components (eV/A)                *
 * -------------------------------------------------------- *
 *                         x            y            z      *
 *                                                          *
 * P               1     -0.00003     -0.00003      0.00000 *
 * P               2      0.00000     -0.00003     -0.00003 *
 * P               3     -0.00003      0.00000     -0.00003 *
 * P               4      0.00000      0.00000      0.00000 *
 * In              1     -0.00000     -0.00000     -0.00000 *
 * In              2      0.00003     -0.00000      0.00003 *
 * In              3     -0.00000      0.00003      0.00003 *
 * In              4      0.00003      0.00003     -0.00000 *
 *                                                          *
 ************************************************************
 
 ***************** Stress Tensor *****************
 *                                               *
 *          Cartesian components (GPa)           *
 * --------------------------------------------- *
 *             x             y             z     *
 *                                               *
 *  x   -293.305115     -0.000143     -0.000143  *
 *  y     -0.000143   -293.305115     -0.000143  *
 *  z     -0.000143     -0.000143   -293.305115  *
 *                                               *
 *  Pressure:  293.3051                          *
 *                                               *
 *************************************************
 
 Pseudo atomic calculation performed for P 3s2 3p3
 
 Converged in 23 iterations to a total energy of -208.0292 eV
 
 Pseudo atomic calculation performed for In 4d10 5s2 5p1
 
 Converged in 42 iterations to a total energy of -1747.4504 eV
Charge spilling parameter for spin component 1 = 0.53%
 
            Orbital Populations       
     Ion    Atom   Orbital             Charge
  -------------------------------------------
      P     1      S                    1.502
      P     1      Px                   1.406
      P     1      Py                   1.406
      P     1      Pz                   1.406
      P     2      S                    1.502
      P     2      Px                   1.406
      P     2      Py                   1.406
      P     2      Pz                   1.406
      P     3      S                    1.502
      P     3      Px                   1.406
      P     3      Py                   1.406
      P     3      Pz                   1.406
      P     4      S                    1.502
      P     4      Px                   1.406
      P     4      Py                   1.406
      P     4      Pz                   1.406
     In     1      Dzz                  1.991
     In     1      Dzy                  1.971
     In     1      Dzx                  1.971
     In     1      Dxx-yy               1.991
     In     1      Dxy                  1.971
     In     1      S                    1.615
     In     1      Px                   0.635
     In     1      Py                   0.635
     In     1      Pz                   0.635
     In     1      S                   -1.137
     In     2      Dzz                  1.991
     In     2      Dzy                  1.971
     In     2      Dzx                  1.971
     In     2      Dxx-yy               1.991
     In     2      Dxy                  1.971
     In     2      S                    1.615
     In     2      Px                   0.635
     In     2      Py                   0.635
     In     2      Pz                   0.635
     In     2      S                   -1.137
     In     3      Dzz                  1.991
     In     3      Dzy                  1.971
     In     3      Dzx                  1.971
     In     3      Dxx-yy               1.991
     In     3      Dxy                  1.971
     In     3      S                    1.615
     In     3      Px                   0.635
     In     3      Py                   0.635
     In     3      Pz                   0.635
     In     3      S                   -1.137
     In     4      Dzz                  1.991
     In     4      Dzy                  1.971
     In     4      Dzx                  1.971
     In     4      Dxx-yy               1.991
     In     4      Dxy                  1.971
     In     4      S                    1.615
     In     4      Px                   0.635
     In     4      Py                   0.635
     In     4      Pz                   0.635
     In     4      S                   -1.137
  -------------------------------------------
                           Total:      72.000
  -------------------------------------------
 
     Atomic Populations (Mulliken)
     -----------------------------
Species          Ion     s      p      d      f     Total  Charge (e)
=====================================================================
  P               1     1.50   4.22   0.00   0.00   5.72    -0.72
  P               2     1.50   4.22   0.00   0.00   5.72    -0.72
  P               3     1.50   4.22   0.00   0.00   5.72    -0.72
  P               4     1.50   4.22   0.00   0.00   5.72    -0.72
  In              1     0.48   1.90   9.90   0.00  12.28     0.72
  In              2     0.48   1.90   9.90   0.00  12.28     0.72
  In              3     0.48   1.90   9.90   0.00  12.28     0.72
  In              4     0.48   1.90   9.90   0.00  12.28     0.72
=====================================================================
 
                 Bond                   Population      Length (A)
======================================================================
               P 3 -- In 2                   0.62        1.96358
               P 2 -- In 3                   0.62        1.96358
               P 1 -- In 4                   0.62        1.96358
               P 3 -- In 4                   0.62        1.96358
               P 3 -- In 3                   0.62        1.96358
               P 2 -- In 4                   0.62        1.96358
               P 2 -- In 2                   0.62        1.96358
               P 1 -- In 3                   0.62        1.96358
               P 1 -- In 2                   0.62        1.96358
               P 4 -- In 4                   0.62        1.96358
               P 4 -- In 3                   0.62        1.96358
               P 4 -- In 2                   0.62        1.96358
               P 4 -- In 1                   0.62        1.96358
               P 3 -- In 1                   0.62        1.96358
               P 2 -- In 1                   0.62        1.96358
               P 1 -- In 1                   0.62        1.96358
======================================================================
 
 
 A BibTeX formatted list of references used in this run has been written to 
 ZB_EOS_0.7684.bib
 
Initialisation time =     17.42 s
Calculation time    =    576.45 s
Finalisation time   =      0.18 s
Total time          =    594.06 s
Peak Memory Use     = 1482928 kB
  
Overall parallel efficiency rating: Excellent (96%)                             
  
Data was distributed by:-
k-point (32-way); efficiency rating: Excellent (96%)                            
  
Parallel notes:
1) Calculation only took 593.9 s, so efficiency estimates may be inaccurate.    
