 +-------------------------------------------------+
 |                                                 |
 |      CCC   AA    SSS  TTTTT  EEEEE  PPPP        |
 |     C     A  A  S       T    E      P   P       |
 |     C     AAAA   SS     T    EEE    PPPP        |
 |     C     A  A     S    T    E      P           |
 |      CCC  A  A  SSS     T    EEEEE  P           |
 |                                                 |
 +-------------------------------------------------+
 |                                                 |
 | Welcome to Academic Release CASTEP version 24.1 |
 | Ab Initio Total Energy Program                  |
 |                                                 |
 | Authors:                                        |
 | M. Segall, M. Probert, C. Pickard, P. Hasnip,   |
 | S. Clark, K. Refson, J. R. Yates,               |
 | A. Bartok-Partay, M. Payne                      |
 |                                                 |
 | Contributors:                                   |
 | P. Lindan, P. Haynes, J. White, V. Milman,      |
 | N. Govind, M. Gibson, P. Tulip, V. Cocula,      |
 | B. Montanari, D. Quigley, M. Glover,            |
 | L. Bernasconi, A. Perlov, M. Plummer,           |
 | E. McNellis, J. Meyer, J. Gale, D. Jochym       |
 | J. Aarons, B. Walker, R. Gillen, D. Jones       |
 | T. Green, I. J. Bush, C. J. Armstrong,          |
 | E. J. Higgins, E. L. Brown, M. S. McFly,        |
 | J. Wilkins, B-C. Shih, P. J. P. Byrne,          |
 | R. J. Maurer, J. C. Womack, J. Dziedzic,        |
 | L. LeBlanc, T. K. Stenczel, J. Kermode,         |
 | S. Sturniolo, B. Shi, B. Durham, M. Evans,      |
 | M. J. Smith, A. Tamerus, Z. Hawkhead,           |
 | V. Ravindran, T. Hollins, S. A. Joyce,          |
 | R. T. Strong, A. M. Reilly, S. J. Donaldson     |
 |                                                 |
 | Copyright (c) 2000 - 2023                       |
 |                                                 |
 |     Distributed under license from Cambridge    |
 |     Enterprise for academic use only.           |
 |                                                 |
 | Please cite                                     |
 |                                                 |
 |     "First principles methods using CASTEP"     |
 |                                                 |
 |         Zeitschrift fuer Kristallographie       |
 |           220(5-6) pp. 567-570 (2005)           |
 |                                                 |
 | S. J. Clark, M. D. Segall, C. J. Pickard,       |
 | P. J. Hasnip, M. J. Probert, K. Refson,         |
 | M. C. Payne                                     |
 |                                                 |
 |       in all publications arising from          |
 |              your use of CASTEP                 |
 |                                                 |
 +-------------------------------------------------+
 |                                                 |
 |              http://www.castep.org              |
 |                                                 |
 +-------------------------------------------------+



 Compiled for  GNU 11.2.0 on 04-04-2024 18:39:17
 from code version 6355fd106 Castep241_branch Thu Mar 7 17:56:19 2024 +0000
 Compiler: GNU Fortran 11.2.0; Optimisation: FAST
 Comms   : MPI VERSION : CRAY MPICH version 8.1.23.14 (ANL base 3.4a2)
 MATHLIBS: default (LAPACK version 3.10.1)
 FFT Lib : fftw3 version commercial-fftw-3.3.10-sse2-avx-avx2-avx2_128
 Fundamental constants values: CODATA 2018

 Run started: Tue, 29 Apr 2025 16:02:37 +0100

 Atomic calculation performed for P: 1s2 2s2 2p6 3s2 3p3

 Converged in 47 iterations to an ae energy of -9309.074 eV

   ============================================================                
   | Pseudopotential Report - Date of generation 29-04-2025   |                
   ------------------------------------------------------------                
   | Element: P Ionic charge:  5.00 Level of theory: RSCAN    |                
   | Atomic Solver: Koelling-Harmon                           |                
   |                                                          |                
   |               Reference Electronic Structure             |                
   |         Orbital         Occupation         Energy        |                
   |            3s              2.000           -0.535        |                
   |            3p              3.000           -0.209        |                
   |                                                          |                
   |                 Pseudopotential Definition               |                
   |        Beta     l      e      Rc     scheme   norm       |                
   |          1      0   -0.535   1.807     qc      0         |                
   |          2      0    0.250   1.807     qc      0         |                
   |          3      1   -0.209   1.807     qc      0         |                
   |          4      1    0.250   1.807     qc      0         |                
   |          5      2    0.000   1.807     qc      0         |                
   |          6      2    0.250   1.807     qc      0         |                
   |         loc     3    0.000   1.807     pn      0         |                
   |                                                          |                
   | Augmentation charge Rinner = 1.263                       |                
   | Partial core correction Rc = 1.263                       |                
   ------------------------------------------------------------                
   | "3|1.8|4|4|5|30:31:32"                                   |                
   ------------------------------------------------------------                
   |      Author: Chris J. Pickard, Cambridge University      |                
   ============================================================                
 Warning: otfg_output_psp cannot write out meta-GGA pseudopotentials presently.

 Atomic calculation performed for In:
 1s2 2s2 2p6 3s2 3p6 3d10 4s2 4p6 4d10 5s2 5p1

 Converged in 84 iterations to an ae energy of -160093.328 eV

   ============================================================                
   | Pseudopotential Report - Date of generation 29-04-2025   |                
   ------------------------------------------------------------                
   | Element: In Ionic charge: 13.00 Level of theory: RSCAN   |                
   | Atomic Solver: Koelling-Harmon                           |                
   |                                                          |                
   |               Reference Electronic Structure             |                
   |         Orbital         Occupation         Energy        |                
   |            4d             10.000           -0.711        |                
   |            5s              2.000           -0.313        |                
   |            5p              1.000           -0.095        |                
   |                                                          |                
   |                 Pseudopotential Definition               |                
   |        Beta     l      e      Rc     scheme   norm       |                
   |          1      0   -0.313   2.501     qc      0         |                
   |          2      0    0.250   2.501     qc      0         |                
   |          3      1   -0.095   2.501     qc      0         |                
   |          4      1    0.250   2.501     qc      0         |                
   |          5      2   -0.711   2.207     qc      0         |                
   |          6      2    0.250   2.207     qc      0         |                
   |         loc     3    0.000   2.501     pn      0         |                
   |                                                          |                
   | Augmentation charge Rinner = 1.504                       |                
   | Partial core correction Rc = 1.504                       |                
   ------------------------------------------------------------                
   | "3|2.5|2.5|1.5|7|8|9|50:51:42U2.2U2.2"                   |                
   ------------------------------------------------------------                
   |      Author: Chris J. Pickard, Cambridge University      |                
   ============================================================                
 Warning: otfg_output_psp cannot write out meta-GGA pseudopotentials presently.

 Pseudo atomic calculation performed for P 3s2 3p3

 Converged in 23 iterations to a total energy of -208.0292 eV

 Pseudo atomic calculation performed for In 4d10 5s2 5p1

 Converged in 42 iterations to a total energy of -1747.4501 eV
 Calculation parallelised over 108 processes.
 Data is distributed by G-vector(3-way) and k-point(36-way)
 Each process may use up to 16 threads.

 ************************************ Title ************************************
 

 ***************************** General Parameters ******************************
  
 output verbosity                               : normal  (1)
 write checkpoint data to                       : P_Interstitial_Migration_Dumbbell_Dumbbell+_Singlepoints_3.check
 type of calculation                            : single point energy
 stress calculation                             : off
 density difference calculation                 : off
 electron localisation func (ELF) calculation   : off
 Hirshfeld analysis                             : on
 polarisation (Berry phase) analysis            : off
 molecular orbital projected DOS                : off
 deltaSCF calculation                           : off
 unlimited duration calculation
 timing information                             : on
 memory usage estimate                          : on
 write extra output files                       : on
 write final potential to formatted file        : off
 write final density to formatted file          : off
 write BibTeX reference list                    : on
 write OTFG pseudopotential files               : on
 write electrostatic potential file             : on
 write bands file                               : on
 checkpoint writing                             : off
  
 output         length unit                     : A
 output           mass unit                     : amu
 output           time unit                     : ps
 output         charge unit                     : e
 output           spin unit                     : hbar/2
 output         energy unit                     : eV
 output          force unit                     : eV/A
 output       velocity unit                     : A/ps
 output       pressure unit                     : GPa
 output     inv_length unit                     : 1/A
 output      frequency unit                     : cm-1
 output force constant unit                     : eV/A**2
 output         volume unit                     : A**3
 output   IR intensity unit                     : (D/A)**2/amu
 output         dipole unit                     : D
 output         efield unit                     : eV/A/e
 output        entropy unit                     : J/mol/K
 output    efield chi2 unit                     : pm/V
  
 wavefunctions paging                           : none
 random number generator seed                   :  160237167
 data distribution                              : optimal for this architecture
 optimization strategy                          : balance speed and memory

 *********************** Exchange-Correlation Parameters ***********************
  
 using functional                               : RSCAN
 relativistic treatment                         : Koelling-Harmon
 DFT+D: Semi-empirical dispersion correction    : off

 ************************* Pseudopotential Parameters **************************
  
 pseudopotential representation                 : reciprocal space
 <beta|phi> representation                      : reciprocal space
 spin-orbit coupling                            : off

 **************************** Basis Set Parameters *****************************
  
 plane wave basis set cut-off                   :   900.0000   eV
 size of standard grid                          :     2.0000
 size of   fine   gmax                          :    30.7390   1/A
 finite basis set correction                    : none

 **************************** Electronic Parameters ****************************
  
 number of  electrons                           :  581.0    
 net charge of system                           :  0.000    
 net spin   of system                           :  1.000    
 number of  up  spins                           :  291.0    
 number of down spins                           :  290.0    
 treating system as spin-polarized
 number of bands                                :        349

 ********************* Electronic Minimization Parameters **********************
  
 Method: Treating system as metallic with density mixing treatment of electrons,
         and number of  SD  steps               :          1
         and number of  CG  steps               :          4
  
 total energy / atom convergence tol.           : 0.1000E-07   eV
 eigen-energy convergence tolerance             : 0.2234E-08   eV
 max force / atom convergence tol.              : ignored
 convergence tolerance window                   :          3   cycles
 max. number of SCF cycles                      :        100
 number of fixed-spin iterations                :         10
 smearing scheme                                : Gaussian
 smearing width                                 : 0.2000       eV
 Fermi energy convergence tolerance             : 0.2721E-13   eV
 periodic dipole correction                     : NONE

 ************************** Density Mixing Parameters **************************
  
 density-mixing scheme                          : Pulay
 max. length of mixing history                  :         20
 charge density mixing amplitude                : 0.5000    
   spin density mixing amplitude                :  2.000    
 cut-off energy for mixing                      :  900.0       eV

 *********************** Population Analysis Parameters ************************
  
 Population analysis with cutoff                :  3.000       A
 Population analysis output                     : summary and pdos components

 *******************************************************************************
  

                           -------------------------------
                                      Unit Cell
                           -------------------------------
        Real Lattice(A)                      Reciprocal Lattice(1/A)
    11.8016820    -0.0000080    -0.0000080        0.532397442   0.000000361   0.000000361
    -0.0000080    11.8016820    -0.0000080        0.000000361   0.532397442   0.000000361
    -0.0000080    -0.0000080    11.8016820        0.000000361   0.000000361   0.532397442

                       Lattice parameters(A)       Cell Angles
                    a =     11.801682          alpha =   90.000078
                    b =     11.801682          beta  =   90.000078
                    c =     11.801682          gamma =   90.000078

                       Current cell volume =          1643.734705       A**3
                                   density =             2.857097   AMU/A**3
                                           =             4.744322     g/cm^3

                           -------------------------------
                                     Cell Contents
                           -------------------------------
                         Total number of ions in cell =   65
                      Total number of species in cell =    2
                        Max number of any one species =   33

            xxxxxxxxxxxxxxxxxxxxxxxxxxxxxxxxxxxxxxxxxxxxxxxxxxxxxxxxxxxx
            x  Element    Atom        Fractional coordinates of atoms  x
            x            Number           u          v          w      x
            x----------------------------------------------------------x
            x  P            1         0.113045   0.123677   0.383551   x 
            x  P            2         0.369716   0.133917   0.216908   x 
            x  P            3         0.125787   0.371664   0.121482   x 
            x  P            4         0.376220   0.380760   0.378356   x 
            x  P            5         0.116361   0.123139   0.860778   x 
            x  P            6         0.373840   0.123820   0.620653   x 
            x  P            7         0.124233   0.374077   0.621372   x 
            x  P            8         0.376579   0.376066   0.869732   x 
            x  P            9         0.122878   0.621374   0.370516   x 
            x  P           10         0.373645   0.625413   0.122185   x 
            x  P           11         0.121901   0.871957   0.124318   x 
            x  P           12         0.374185   0.863753   0.382478   x 
            x  P           13         0.123704   0.624527   0.875189   x 
            x  P           14         0.371830   0.619947   0.625612   x 
            x  P           15         0.120536   0.870487   0.622070   x 
            x  P           16         0.373648   0.866712   0.861101   x 
            x  P           17         0.631936   0.124843   0.378624   x 
            x  P           18         0.875717   0.123620   0.122184   x 
            x  P           19         0.630105   0.379744   0.118370   x 
            x  P           20         0.875305   0.373792   0.372420   x 
            x  P           21         0.626804   0.126984   0.869363   x 
            x  P           22         0.869603   0.122197   0.625770   x 
            x  P           23         0.625448   0.375662   0.622364   x 
            x  P           24         0.874973   0.374901   0.872170   x 
            x  P           25         0.623843   0.625132   0.372502   x 
            x  P           26         0.873025   0.623026   0.121927   x 
            x  P           27         0.622112   0.875710   0.121940   x 
            x  P           28         0.871752   0.872310   0.370746   x 
            x  P           29         0.624628   0.624820   0.872298   x 
            x  P           30         0.873759   0.623736   0.622570   x 
            x  P           31         0.623922   0.874174   0.621491   x 
            x  P           32         0.874313   0.873520   0.875047   x 
            x  P           33         0.329982   0.077517   0.053885   x 
            x  In           1         0.001766   0.000341  -0.003282   x 
            x  In           2         0.231138  -0.018766   0.274865   x 
            x  In           3         0.000379   0.247793   0.247736   x 
            x  In           4         0.239132   0.254724  -0.020369   x 
            x  In           5        -0.010067  -0.004902   0.503063   x 
            x  In           6         0.247322  -0.002997   0.743077   x 
            x  In           7        -0.005561   0.250923   0.741779   x 
            x  In           8         0.250070   0.248949   0.495290   x 
            x  In           9        -0.000442   0.498483  -0.000758   x 
            x  In          10         0.251042   0.497576   0.246724   x 
            x  In          11        -0.003277   0.746345   0.246548   x 
            x  In          12         0.250679   0.752007  -0.003150   x 
            x  In          13        -0.000835   0.498791   0.497651   x 
            x  In          14         0.245845   0.498315   0.749521   x 
            x  In          15        -0.002381   0.747489   0.749783   x 
            x  In          16         0.245261   0.740689   0.502305   x 
            x  In          17         0.506900  -0.011195  -0.020967   x 
            x  In          18         0.748739   0.000410   0.246597   x 
            x  In          19         0.521553   0.269108   0.263648   x 
            x  In          20         0.752602   0.248176  -0.003122   x 
            x  In          21         0.498785   0.000024   0.495367   x 
            x  In          22         0.748413  -0.004185   0.749331   x 
            x  In          23         0.499465   0.249511   0.744247   x 
            x  In          24         0.753485   0.250605   0.501251   x 
            x  In          25         0.498041   0.502012  -0.003067   x 
            x  In          26         0.751478   0.501364   0.250006   x 
            x  In          27         0.497998   0.749803   0.247472   x 
            x  In          28         0.748506   0.749304  -0.000916   x 
            x  In          29         0.500073   0.503566   0.501205   x 
            x  In          30         0.749266   0.499353   0.748597   x 
            x  In          31         0.500668   0.744356   0.741847   x 
            x  In          32         0.748639   0.749082   0.497767   x 
            xxxxxxxxxxxxxxxxxxxxxxxxxxxxxxxxxxxxxxxxxxxxxxxxxxxxxxxxxxxx


                         No user defined ionic velocities

                           -------------------------------
                                   Details of Species
                           -------------------------------

                               Mass of species in AMU
                                    P   30.9737600
                                    In  114.8180000

                          Electric Quadrupole Moment (Barn)
                                    P    1.0000000 No Isotope Defined
                                    In    0.7700000 Isotope115

                          Files used for pseudopotentials:
                                    P 3|1.8|4|4|5|30:31:32
                                    In 3|2.5|2.5|1.5|7|8|9|50:51:42U2.2U2.2

                           -------------------------------
                              k-Points For BZ Sampling
                           -------------------------------
                       MP grid size for SCF calculation is  4  4  4
                            with an offset of   0.125  0.125  0.125
                       Number of kpoints used =            36

                           -------------------------------
                               Symmetry and Constraints
                           -------------------------------

                      Maximum deviation from symmetry =  0.00000         ANG

                      Number of symmetry operations   =           1
                      Number of ionic constraints     =           3
                      Point group of crystal =     1: C1, 1, 1
                      Space group of crystal =     1: P1, P 1

             Set iprint > 1 for details on symmetry rotations/translations

                         Centre of mass is constrained
             Set iprint > 1 for details of linear ionic constraints

                         Number of cell constraints= 0
                         Cell constraints are:  1 2 3 4 5 6

                         External pressure/stress (GPa)
                          0.00000   0.00000   0.00000
                                    0.00000   0.00000
                                              0.00000
 
+---------------- MEMORY AND SCRATCH DISK ESTIMATES PER PROCESS --------------+
|                                                     Memory          Disk    |
| Baseline code, static data and system overhead      368.0 MB         0.0 MB |
| BLAS internal memory storage                          0.0 MB         0.0 MB |
| Model and support data                             4327.0 MB         0.0 MB |
| Electronic energy minimisation requirements        1337.1 MB         0.0 MB |
| Force calculation requirements                      127.4 MB         0.0 MB |
|                                               ----------------------------- |
| Approx. total storage required per process         6032.2 MB         0.0 MB |
|                                                                             |
| Requirements will fluctuate during execution and may exceed these estimates |
+-----------------------------------------------------------------------------+
Calculating approximate eigenstates for fixed initial Hamiltonian
Cut-off for approx. calculation is   89.988 eV
Improving approx. states at cut-off of  450.000 eV
Resetting cut-off to  900.000 eV
Calculating total energy with cut-off of  900.000 eV.
------------------------------------------------------------------------ <-- SCF
SCF loop      Energy           Fermi           Energy gain       Timer   <-- SCF
                               energy          per atom          (sec)   <-- SCF
------------------------------------------------------------------------ <-- SCF
Initial  -6.32529975E+004  0.00000000E+000                       451.41  <-- SCF
      1  -6.30177920E+004  2.91496339E+000  -3.61854590E+000     905.81  <-- SCF
      2  -6.30180610E+004  2.91467427E+000   4.13824908E-003    1220.11  <-- SCF
      3  -6.30839390E+004  3.25603620E+000   1.01350816E+000    1568.78  <-- SCF
      4  -6.30955320E+004  3.34289526E+000   1.78353253E-001    2069.57  <-- SCF
      5  -6.31017838E+004  3.51975784E+000   9.61823838E-002    2417.29  <-- SCF
      6  -6.30901672E+004  3.74112899E+000  -1.78716937E-001    2770.74  <-- SCF
      7  -6.30888357E+004  3.79940852E+000  -2.04855137E-002    3134.02  <-- SCF
      8  -6.30889510E+004  3.84291937E+000   1.77514399E-003    3509.18  <-- SCF
      9  -6.30898050E+004  3.87031991E+000   1.31375876E-002    3867.45  <-- SCF
     10  -6.30900689E+004  3.85853484E+000   4.06064774E-003    4218.58  <-- SCF
     11  -6.30900741E+004  3.85026361E+000   7.98831358E-005    4597.62  <-- SCF
     12  -6.30900764E+004  3.84421609E+000   3.52418881E-005    4952.55  <-- SCF
     13  -6.30900774E+004  3.84342614E+000   1.59260325E-005    5313.99  <-- SCF
     14  -6.30900777E+004  3.84256078E+000   3.76307456E-006    5688.26  <-- SCF
     15  -6.30900777E+004  3.84192126E+000   9.49377872E-007    6044.11  <-- SCF
     16  -6.30900778E+004  3.84184617E+000   2.94387971E-007    6354.44  <-- SCF
     17  -6.30900778E+004  3.84176550E+000   8.51205651E-008    6647.61  <-- SCF
     18  -6.30900778E+004  3.84184156E+000   2.95884881E-008    6898.61  <-- SCF
     19  -6.30900778E+004  3.84191390E+000   1.05215867E-008    7144.82  <-- SCF
     20  -6.30900778E+004  3.84192418E+000   3.35115238E-009    7401.73  <-- SCF
     21  -6.30900778E+004  3.84192402E+000   7.26847685E-010    7652.70  <-- SCF
------------------------------------------------------------------------ <-- SCF
 
Integrated Spin Density     =    0.999063     hbar/2
Integrated |Spin Density|   =     1.18510     hbar/2
 
Final energy, E             =  -63090.06982480     eV
Final free energy (E-TS)    =  -63090.07777421     eV
(energies not corrected for finite basis set)
 
NB est. 0K energy (E-0.5TS)      =  -63090.07379951     eV
 

 ************************** Forces **************************
 *                                                          *
 *               Cartesian components (eV/A)                *
 * -------------------------------------------------------- *
 *                         x            y            z      *
 *                                                          *
 * P               1     -0.05800     -0.04565      0.01208 *
 * P               2     -0.03924     -0.02203     -0.04313 *
 * P               3      0.04458     -0.01694      0.04899 *
 * P               4      0.01427      0.01266     -0.00161 *
 * P               5     -0.03833      0.01608      0.04801 *
 * P               6     -0.00653     -0.00532      0.02262 *
 * P               7     -0.00924     -0.01245     -0.01346 *
 * P               8     -0.02945      0.10000     -0.01607 *
 * P               9     -0.00792      0.00022     -0.00160 *
 * P              10     -0.01258     -0.02117      0.00583 *
 * P              11     -0.00289     -0.01487      0.05334 *
 * P              12     -0.01008     -0.00459     -0.02749 *
 * P              13     -0.02063     -0.01612      0.00780 *
 * P              14     -0.00289      0.03129     -0.01945 *
 * P              15      0.01568      0.01303     -0.02200 *
 * P              16      0.00623     -0.04470      0.05255 *
 * P              17     -0.02111     -0.00081     -0.01761 *
 * P              18     -0.01116     -0.00552      0.00691 *
 * P              19     -0.05862     -0.05873      0.05025 *
 * P              20      0.00804      0.00572     -0.01162 *
 * P              21      0.11892     -0.03491     -0.03404 *
 * P              22      0.02036     -0.00840     -0.01091 *
 * P              23      0.00052      0.00896     -0.01325 *
 * P              24      0.02904      0.00965      0.00622 *
 * P              25     -0.00361      0.00728     -0.00530 *
 * P              26      0.00347     -0.01124      0.02062 *
 * P              27      0.00396      0.00747      0.02400 *
 * P              28      0.00060     -0.01731      0.00425 *
 * P              29      0.00431      0.01767      0.00047 *
 * P              30     -0.00819     -0.00704     -0.00406 *
 * P              31     -0.01469     -0.01598     -0.02200 *
 * P              32     -0.00652     -0.02691      0.00012 *
 * P              33     -0.18167     -0.17915     -0.05841 *
 * In              1      0.01628     -0.00380      0.01639 *
 * In              2     -0.01178      0.05115     -0.02747 *
 * In              3     -0.04593     -0.02805      0.00535 *
 * In              4      0.13293     -0.02875     -0.05906 *
 * In              5      0.01350      0.08071     -0.02406 *
 * In              6      0.02638      0.03937      0.00661 *
 * In              7      0.00898     -0.03795      0.00852 *
 * In              8     -0.02325      0.00066      0.06370 *
 * In              9     -0.01468      0.00246     -0.04109 *
 * In             10     -0.00067      0.03554     -0.00333 *
 * In             11      0.02445      0.02849     -0.02079 *
 * In             12     -0.00945      0.01339      0.01526 *
 * In             13     -0.00681      0.02461      0.00026 *
 * In             14      0.07613     -0.00214      0.00802 *
 * In             15     -0.01939     -0.02110      0.00809 *
 * In             16      0.04448     -0.00412     -0.00284 *
 * In             17     -0.01755      0.18188     -0.02614 *
 * In             18      0.04917     -0.01162     -0.00429 *
 * In             19      0.06991      0.07276     -0.01052 *
 * In             20     -0.03348      0.01392     -0.03033 *
 * In             21      0.02115     -0.01122      0.08479 *
 * In             22     -0.00533      0.09813      0.00940 *
 * In             23     -0.01990     -0.03398      0.04449 *
 * In             24     -0.00542     -0.02542      0.01184 *
 * In             25      0.01887     -0.03403     -0.02142 *
 * In             26     -0.01475     -0.01406     -0.03965 *
 * In             27     -0.00371     -0.04775     -0.01049 *
 * In             28     -0.00544     -0.00706     -0.02340 *
 * In             29     -0.01511     -0.01688      0.00537 *
 * In             30      0.02245      0.02024      0.00886 *
 * In             31     -0.02457      0.01155      0.01067 *
 * In             32      0.02592     -0.00717     -0.00481 *
 *                                                          *
 ************************************************************

 Pseudo atomic calculation performed for P 3s2 3p3

 Converged in 23 iterations to a total energy of -208.0292 eV

 Pseudo atomic calculation performed for In 4d10 5s2 5p1

 Converged in 42 iterations to a total energy of -1747.4501 eV
Charge spilling parameter for spin component 1 = 0.17%
Charge spilling parameter for spin component 2 = 0.18%

                   Orbital Populations                  
  ---------------------------------------------------------------
     Ion    Atom   Orbital              Up        Down      Spin
  ---------------------------------------------------------------
      P     1      S                    0.867     0.867     0.001
      P     1      Px                   0.662     0.661     0.001
      P     1      Py                   0.644     0.645    -0.001
      P     1      Pz                   0.659     0.657     0.001
      P     2      S                    0.884     0.857     0.028
      P     2      Px                   0.798     0.484     0.314
      P     2      Py                   0.796     0.441     0.356
      P     2      Pz                   0.578     0.561     0.016
      P     3      S                    0.868     0.869    -0.000
      P     3      Px                   0.657     0.658    -0.001
      P     3      Py                   0.657     0.658    -0.001
      P     3      Pz                   0.650     0.651    -0.001
      P     4      S                    0.868     0.865     0.003
      P     4      Px                   0.646     0.645     0.001
      P     4      Py                   0.663     0.658     0.005
      P     4      Pz                   0.661     0.656     0.005
      P     5      S                    0.868     0.864     0.004
      P     5      Px                   0.666     0.650     0.017
      P     5      Py                   0.653     0.646     0.007
      P     5      Pz                   0.661     0.649     0.012
      P     6      S                    0.867     0.867    -0.000
      P     6      Px                   0.658     0.658     0.000
      P     6      Py                   0.657     0.657     0.000
      P     6      Pz                   0.656     0.656    -0.000
      P     7      S                    0.867     0.867    -0.000
      P     7      Px                   0.655     0.656    -0.000
      P     7      Py                   0.658     0.658    -0.000
      P     7      Pz                   0.656     0.656    -0.000
      P     8      S                    0.867     0.867     0.001
      P     8      Px                   0.651     0.651     0.001
      P     8      Py                   0.662     0.657     0.005
      P     8      Pz                   0.662     0.659     0.002
      P     9      S                    0.867     0.867    -0.000
      P     9      Px                   0.657     0.657     0.000
      P     9      Py                   0.658     0.658     0.000
      P     9      Pz                   0.655     0.655    -0.000
      P    10      S                    0.867     0.867    -0.000
      P    10      Px                   0.658     0.658    -0.000
      P    10      Py                   0.656     0.656    -0.000
      P    10      Pz                   0.658     0.658    -0.000
      P    11      S                    0.871     0.871    -0.000
      P    11      Px                   0.652     0.653    -0.000
      P    11      Py                   0.653     0.653    -0.000
      P    11      Pz                   0.641     0.641    -0.000
      P    12      S                    0.868     0.866     0.002
      P    12      Px                   0.647     0.645     0.002
      P    12      Py                   0.665     0.658     0.008
      P    12      Pz                   0.662     0.657     0.005
      P    13      S                    0.867     0.867    -0.000
      P    13      Px                   0.658     0.658     0.000
      P    13      Py                   0.655     0.655    -0.000
      P    13      Pz                   0.657     0.657    -0.000
      P    14      S                    0.863     0.862     0.001
      P    14      Px                   0.652     0.650     0.002
      P    14      Py                   0.667     0.661     0.006
      P    14      Pz                   0.666     0.660     0.006
      P    15      S                    0.866     0.867    -0.000
      P    15      Px                   0.656     0.656    -0.000
      P    15      Py                   0.656     0.656    -0.000
      P    15      Pz                   0.659     0.659    -0.000
      P    16      S                    0.868     0.864     0.003
      P    16      Px                   0.652     0.646     0.005
      P    16      Py                   0.665     0.652     0.013
      P    16      Pz                   0.662     0.649     0.013
      P    17      S                    0.868     0.864     0.003
      P    17      Px                   0.666     0.657     0.009
      P    17      Py                   0.648     0.645     0.003
      P    17      Pz                   0.663     0.656     0.007
      P    18      S                    0.867     0.867    -0.000
      P    18      Px                   0.656     0.656    -0.000
      P    18      Py                   0.658     0.658    -0.000
      P    18      Pz                   0.658     0.658    -0.000
      P    19      S                    0.868     0.868    -0.000
      P    19      Px                   0.662     0.662    -0.000
      P    19      Py                   0.661     0.661    -0.000
      P    19      Pz                   0.646     0.646    -0.000
      P    20      S                    0.867     0.867    -0.000
      P    20      Px                   0.657     0.657     0.000
      P    20      Py                   0.658     0.657     0.000
      P    20      Pz                   0.656     0.656     0.000
      P    21      S                    0.867     0.867     0.000
      P    21      Px                   0.661     0.659     0.002
      P    21      Py                   0.650     0.650    -0.000
      P    21      Pz                   0.662     0.661     0.001
      P    22      S                    0.863     0.862     0.001
      P    22      Px                   0.667     0.662     0.005
      P    22      Py                   0.651     0.650     0.002
      P    22      Pz                   0.666     0.661     0.005
      P    23      S                    0.866     0.866    -0.000
      P    23      Px                   0.656     0.656     0.000
      P    23      Py                   0.656     0.656     0.000
      P    23      Pz                   0.658     0.659    -0.000
      P    24      S                    0.866     0.866    -0.000
      P    24      Px                   0.658     0.658    -0.000
      P    24      Py                   0.658     0.658     0.000
      P    24      Pz                   0.655     0.655    -0.000
      P    25      S                    0.867     0.867     0.000
      P    25      Px                   0.658     0.657     0.001
      P    25      Py                   0.657     0.657     0.000
      P    25      Pz                   0.656     0.656     0.000
      P    26      S                    0.865     0.865    -0.000
      P    26      Px                   0.659     0.659    -0.000
      P    26      Py                   0.659     0.659    -0.000
      P    26      Pz                   0.657     0.657     0.000
      P    27      S                    0.868     0.868    -0.000
      P    27      Px                   0.659     0.658     0.000
      P    27      Py                   0.658     0.658     0.000
      P    27      Pz                   0.650     0.651    -0.000
      P    28      S                    0.867     0.867     0.000
      P    28      Px                   0.659     0.658     0.000
      P    28      Py                   0.658     0.657     0.000
      P    28      Pz                   0.654     0.655    -0.000
      P    29      S                    0.867     0.867    -0.000
      P    29      Px                   0.658     0.658     0.000
      P    29      Py                   0.658     0.658    -0.000
      P    29      Pz                   0.655     0.655    -0.000
      P    30      S                    0.868     0.868    -0.000
      P    30      Px                   0.657     0.657    -0.000
      P    30      Py                   0.657     0.657    -0.000
      P    30      Pz                   0.656     0.656    -0.000
      P    31      S                    0.867     0.867    -0.000
      P    31      Px                   0.658     0.658     0.000
      P    31      Py                   0.656     0.656    -0.000
      P    31      Pz                   0.656     0.656    -0.000
      P    32      S                    0.867     0.867    -0.000
      P    32      Px                   0.655     0.655    -0.000
      P    32      Py                   0.658     0.658     0.000
      P    32      Pz                   0.657     0.657    -0.000
      P    33      S                    0.879     0.878     0.001
      P    33      Px                   0.701     0.680     0.020
      P    33      Py                   0.698     0.644     0.054
      P    33      Pz                   0.511     0.527    -0.016
     In     1      Dzz                  1.000     1.000     0.000
     In     1      Dzy                  0.998     0.998     0.000
     In     1      Dzx                  0.999     0.999     0.000
     In     1      Dxx-yy               1.000     1.000    -0.000
     In     1      Dxy                  0.999     0.999     0.000
     In     1      S                    0.707     0.707    -0.001
     In     1      Px                   0.233     0.233    -0.000
     In     1      Py                   0.238     0.238    -0.000
     In     1      Pz                   0.242     0.242    -0.001
     In     1      S                   -0.258    -0.256    -0.002
     In     2      Dzz                  0.999     0.999     0.000
     In     2      Dzy                  0.999     0.998     0.000
     In     2      Dzx                  0.999     0.998     0.000
     In     2      Dxx-yy               1.000     0.999     0.000
     In     2      Dxy                  0.998     0.998     0.000
     In     2      S                    0.684     0.690    -0.006
     In     2      Px                   0.237     0.248    -0.010
     In     2      Py                   0.234     0.246    -0.012
     In     2      Pz                   0.219     0.221    -0.002
     In     2      S                   -0.256    -0.258     0.002
     In     3      Dzz                  1.000     1.000     0.000
     In     3      Dzy                  0.998     0.998    -0.000
     In     3      Dzx                  0.998     0.998     0.000
     In     3      Dxx-yy               1.000     1.000    -0.000
     In     3      Dxy                  0.999     0.999     0.000
     In     3      S                    0.710     0.709     0.001
     In     3      Px                   0.237     0.238    -0.000
     In     3      Py                   0.240     0.240    -0.000
     In     3      Pz                   0.242     0.242    -0.000
     In     3      S                   -0.264    -0.270     0.006
     In     4      Dzz                  0.999     0.999     0.000
     In     4      Dzy                  0.998     0.998     0.000
     In     4      Dzx                  0.999     0.999    -0.000
     In     4      Dxx-yy               0.999     0.999     0.000
     In     4      Dxy                  0.998     0.998     0.000
     In     4      S                    0.714     0.694     0.020
     In     4      Px                   0.251     0.245     0.006
     In     4      Py                   0.257     0.239     0.018
     In     4      Pz                   0.226     0.231    -0.004
     In     4      S                   -0.265    -0.262    -0.003
     In     5      Dzz                  1.000     1.000     0.000
     In     5      Dzy                  0.998     0.998     0.000
     In     5      Dzx                  0.998     0.998    -0.000
     In     5      Dxx-yy               1.000     1.000     0.000
     In     5      Dxy                  0.998     0.998     0.000
     In     5      S                    0.712     0.709     0.003
     In     5      Px                   0.239     0.238     0.001
     In     5      Py                   0.251     0.249     0.002
     In     5      Pz                   0.241     0.240     0.001
     In     5      S                   -0.270    -0.267    -0.003
     In     6      Dzz                  1.000     1.000     0.000
     In     6      Dzy                  0.999     0.999     0.000
     In     6      Dzx                  0.999     0.999     0.000
     In     6      Dxx-yy               1.000     1.000     0.000
     In     6      Dxy                  0.998     0.998     0.000
     In     6      S                    0.707     0.708    -0.001
     In     6      Px                   0.242     0.242    -0.001
     In     6      Py                   0.241     0.242    -0.000
     In     6      Pz                   0.232     0.232    -0.001
     In     6      S                   -0.260    -0.259    -0.001
     In     7      Dzz                  0.999     0.999     0.000
     In     7      Dzy                  0.998     0.998     0.000
     In     7      Dzx                  0.998     0.998     0.000
     In     7      Dxx-yy               0.999     0.999     0.000
     In     7      Dxy                  0.998     0.998     0.000
     In     7      S                    0.713     0.713     0.000
     In     7      Px                   0.241     0.241    -0.000
     In     7      Py                   0.253     0.249     0.004
     In     7      Pz                   0.239     0.239     0.000
     In     7      S                   -0.273    -0.271    -0.002
     In     8      Dzz                  1.000     1.000     0.000
     In     8      Dzy                  0.999     0.999     0.000
     In     8      Dzx                  0.999     0.999     0.000
     In     8      Dxx-yy               1.000     1.000    -0.000
     In     8      Dxy                  0.998     0.998     0.000
     In     8      S                    0.708     0.708     0.000
     In     8      Px                   0.242     0.242    -0.000
     In     8      Py                   0.239     0.240    -0.001
     In     8      Pz                   0.231     0.233    -0.002
     In     8      S                   -0.255    -0.266     0.011
     In     9      Dzz                  1.000     1.000     0.000
     In     9      Dzy                  0.998     0.998    -0.000
     In     9      Dzx                  0.998     0.998    -0.000
     In     9      Dxx-yy               1.000     1.000    -0.000
     In     9      Dxy                  0.998     0.998     0.000
     In     9      S                    0.709     0.708     0.001
     In     9      Px                   0.241     0.241     0.000
     In     9      Py                   0.241     0.241     0.000
     In     9      Pz                   0.241     0.241    -0.000
     In     9      S                   -0.265    -0.265     0.000
     In    10      Dzz                  1.000     1.000    -0.000
     In    10      Dzy                  0.999     0.999     0.000
     In    10      Dzx                  0.998     0.998     0.000
     In    10      Dxx-yy               1.000     1.000     0.000
     In    10      Dxy                  0.999     0.999    -0.000
     In    10      S                    0.710     0.710     0.000
     In    10      Px                   0.240     0.240    -0.000
     In    10      Py                   0.237     0.238    -0.001
     In    10      Pz                   0.240     0.240    -0.000
     In    10      S                   -0.264    -0.267     0.003
     In    11      Dzz                  1.000     1.000     0.000
     In    11      Dzy                  0.998     0.998    -0.000
     In    11      Dzx                  0.998     0.998     0.000
     In    11      Dxx-yy               1.000     1.000     0.000
     In    11      Dxy                  0.998     0.998    -0.000
     In    11      S                    0.717     0.717    -0.000
     In    11      Px                   0.242     0.242    -0.000
     In    11      Py                   0.242     0.242     0.000
     In    11      Pz                   0.248     0.248    -0.000
     In    11      S                   -0.263    -0.262    -0.001
     In    12      Dzz                  1.000     1.000     0.000
     In    12      Dzy                  0.999     0.999     0.000
     In    12      Dzx                  0.998     0.998    -0.000
     In    12      Dxx-yy               1.000     1.000    -0.000
     In    12      Dxy                  0.999     0.999     0.000
     In    12      S                    0.707     0.707    -0.001
     In    12      Px                   0.238     0.238    -0.000
     In    12      Py                   0.233     0.233    -0.000
     In    12      Pz                   0.241     0.242    -0.001
     In    12      S                   -0.259    -0.254    -0.005
     In    13      Dzz                  1.000     1.000    -0.000
     In    13      Dzy                  0.998     0.998     0.000
     In    13      Dzx                  0.998     0.998     0.000
     In    13      Dxx-yy               1.000     1.000    -0.000
     In    13      Dxy                  0.998     0.998     0.000
     In    13      S                    0.705     0.705    -0.000
     In    13      Px                   0.242     0.242    -0.000
     In    13      Py                   0.240     0.240    -0.000
     In    13      Pz                   0.243     0.243     0.000
     In    13      S                   -0.266    -0.265    -0.001
     In    14      Dzz                  1.000     1.000     0.000
     In    14      Dzy                  0.998     0.998     0.000
     In    14      Dzx                  0.998     0.998     0.000
     In    14      Dxx-yy               1.000     1.000     0.000
     In    14      Dxy                  0.998     0.998     0.000
     In    14      S                    0.709     0.709     0.000
     In    14      Px                   0.247     0.246     0.001
     In    14      Py                   0.239     0.239    -0.000
     In    14      Pz                   0.240     0.240    -0.000
     In    14      S                   -0.266    -0.266    -0.000
     In    15      Dzz                  1.000     1.000    -0.000
     In    15      Dzy                  0.998     0.998     0.000
     In    15      Dzx                  0.998     0.998     0.000
     In    15      Dxx-yy               1.000     1.000     0.000
     In    15      Dxy                  0.999     0.999    -0.000
     In    15      S                    0.706     0.706     0.000
     In    15      Px                   0.241     0.241    -0.000
     In    15      Py                   0.241     0.241    -0.000
     In    15      Pz                   0.242     0.242    -0.000
     In    15      S                   -0.265    -0.266     0.001
     In    16      Dzz                  1.000     1.000     0.000
     In    16      Dzy                  0.998     0.998    -0.000
     In    16      Dzx                  0.998     0.998     0.000
     In    16      Dxx-yy               1.000     1.000     0.000
     In    16      Dxy                  0.998     0.998     0.000
     In    16      S                    0.712     0.708     0.004
     In    16      Px                   0.250     0.247     0.004
     In    16      Py                   0.239     0.238     0.001
     In    16      Pz                   0.241     0.239     0.001
     In    16      S                   -0.269    -0.266    -0.002
     In    17      Dzz                  0.999     0.999     0.000
     In    17      Dzy                  0.999     0.999    -0.000
     In    17      Dzx                  0.998     0.998     0.000
     In    17      Dxx-yy               0.999     0.999     0.000
     In    17      Dxy                  0.998     0.998     0.000
     In    17      S                    0.718     0.700     0.018
     In    17      Px                   0.256     0.241     0.016
     In    17      Py                   0.250     0.248     0.003
     In    17      Pz                   0.233     0.229     0.003
     In    17      S                   -0.269    -0.265    -0.004
     In    18      Dzz                  1.000     1.000     0.000
     In    18      Dzy                  0.998     0.998    -0.000
     In    18      Dzx                  0.998     0.998     0.000
     In    18      Dxx-yy               1.000     1.000     0.000
     In    18      Dxy                  0.999     0.999     0.000
     In    18      S                    0.711     0.711     0.000
     In    18      Px                   0.238     0.238    -0.000
     In    18      Py                   0.240     0.240    -0.000
     In    18      Pz                   0.241     0.241     0.000
     In    18      S                   -0.266    -0.270     0.004
     In    19      Dzz                  0.999     0.999     0.000
     In    19      Dzy                  0.998     0.998     0.000
     In    19      Dzx                  0.998     0.998     0.000
     In    19      Dxx-yy               0.999     0.999     0.000
     In    19      Dxy                  0.998     0.998     0.000
     In    19      S                    0.712     0.720    -0.008
     In    19      Px                   0.240     0.253    -0.013
     In    19      Py                   0.242     0.254    -0.012
     In    19      Pz                   0.242     0.246    -0.004
     In    19      S                   -0.268    -0.274     0.005
     In    20      Dzz                  1.000     1.000     0.000
     In    20      Dzy                  0.998     0.998     0.000
     In    20      Dzx                  0.998     0.998     0.000
     In    20      Dxx-yy               1.000     1.000     0.000
     In    20      Dxy                  0.998     0.998    -0.000
     In    20      S                    0.714     0.714     0.000
     In    20      Px                   0.240     0.239     0.000
     In    20      Py                   0.241     0.241    -0.000
     In    20      Pz                   0.240     0.241    -0.000
     In    20      S                   -0.266    -0.265    -0.001
     In    21      Dzz                  1.000     1.000     0.000
     In    21      Dzy                  0.999     0.999     0.000
     In    21      Dzx                  0.999     0.999     0.000
     In    21      Dxx-yy               1.000     1.000     0.000
     In    21      Dxy                  0.998     0.998     0.000
     In    21      S                    0.709     0.709    -0.001
     In    21      Px                   0.239     0.240    -0.001
     In    21      Py                   0.241     0.242    -0.001
     In    21      Pz                   0.232     0.234    -0.002
     In    21      S                   -0.261    -0.265     0.004
     In    22      Dzz                  1.000     1.000     0.000
     In    22      Dzy                  0.998     0.998     0.000
     In    22      Dzx                  0.998     0.998     0.000
     In    22      Dxx-yy               1.000     1.000     0.000
     In    22      Dxy                  0.998     0.998     0.000
     In    22      S                    0.708     0.709    -0.000
     In    22      Px                   0.239     0.239    -0.000
     In    22      Py                   0.248     0.247     0.000
     In    22      Pz                   0.240     0.240    -0.000
     In    22      S                   -0.264    -0.266     0.002
     In    23      Dzz                  1.000     1.000     0.000
     In    23      Dzy                  0.998     0.998     0.000
     In    23      Dzx                  0.998     0.998     0.000
     In    23      Dxx-yy               1.000     1.000     0.000
     In    23      Dxy                  0.998     0.998    -0.000
     In    23      S                    0.710     0.710    -0.000
     In    23      Px                   0.239     0.240    -0.000
     In    23      Py                   0.239     0.240    -0.000
     In    23      Pz                   0.237     0.237    -0.000
     In    23      S                   -0.275    -0.273    -0.003
     In    24      Dzz                  1.000     1.000     0.000
     In    24      Dzy                  0.998     0.998     0.000
     In    24      Dzx                  0.998     0.998    -0.000
     In    24      Dxx-yy               1.000     1.000     0.000
     In    24      Dxy                  0.998     0.998     0.000
     In    24      S                    0.713     0.708     0.005
     In    24      Px                   0.238     0.237     0.002
     In    24      Py                   0.252     0.247     0.005
     In    24      Pz                   0.242     0.240     0.002
     In    24      S                   -0.267    -0.263    -0.004
     In    25      Dzz                  1.000     1.000     0.000
     In    25      Dzy                  0.998     0.998     0.000
     In    25      Dzx                  0.998     0.998     0.000
     In    25      Dxx-yy               1.000     1.000     0.000
     In    25      Dxy                  0.998     0.998     0.000
     In    25      S                    0.714     0.714    -0.000
     In    25      Px                   0.240     0.240    -0.000
     In    25      Py                   0.240     0.240     0.000
     In    25      Pz                   0.240     0.240    -0.000
     In    25      S                   -0.265    -0.265    -0.000
     In    26      Dzz                  1.000     1.000     0.000
     In    26      Dzy                  0.998     0.998    -0.000
     In    26      Dzx                  0.998     0.998    -0.000
     In    26      Dxx-yy               1.000     1.000     0.000
     In    26      Dxy                  0.998     0.998     0.000
     In    26      S                    0.705     0.706    -0.000
     In    26      Px                   0.240     0.240    -0.000
     In    26      Py                   0.240     0.240    -0.000
     In    26      Pz                   0.246     0.246    -0.000
     In    26      S                   -0.261    -0.260    -0.002
     In    27      Dzz                  1.000     1.000     0.000
     In    27      Dzy                  0.998     0.998    -0.000
     In    27      Dzx                  0.998     0.998     0.000
     In    27      Dxx-yy               1.000     1.000     0.000
     In    27      Dxy                  0.999     0.999     0.000
     In    27      S                    0.711     0.710     0.001
     In    27      Px                   0.240     0.240    -0.000
     In    27      Py                   0.238     0.239    -0.000
     In    27      Pz                   0.242     0.242     0.000
     In    27      S                   -0.266    -0.272     0.006
     In    28      Dzz                  1.000     1.000     0.000
     In    28      Dzy                  0.998     0.998     0.000
     In    28      Dzx                  0.998     0.998     0.000
     In    28      Dxx-yy               1.000     1.000     0.000
     In    28      Dxy                  0.998     0.998     0.000
     In    28      S                    0.707     0.707     0.000
     In    28      Px                   0.240     0.240    -0.000
     In    28      Py                   0.240     0.240    -0.000
     In    28      Pz                   0.241     0.241    -0.000
     In    28      S                   -0.264    -0.265     0.001
     In    29      Dzz                  0.999     0.999     0.000
     In    29      Dzy                  0.998     0.998    -0.000
     In    29      Dzx                  0.998     0.998     0.000
     In    29      Dxx-yy               1.000     1.000    -0.000
     In    29      Dxy                  0.998     0.998     0.000
     In    29      S                    0.714     0.708     0.006
     In    29      Px                   0.252     0.247     0.005
     In    29      Py                   0.239     0.237     0.002
     In    29      Pz                   0.242     0.240     0.002
     In    29      S                   -0.268    -0.262    -0.005
     In    30      Dzz                  1.000     1.000     0.000
     In    30      Dzy                  0.998     0.998     0.000
     In    30      Dzx                  0.998     0.998     0.000
     In    30      Dxx-yy               1.000     1.000     0.000
     In    30      Dxy                  0.998     0.998    -0.000
     In    30      S                    0.707     0.707    -0.000
     In    30      Px                   0.241     0.241    -0.000
     In    30      Py                   0.241     0.241    -0.000
     In    30      Pz                   0.243     0.243    -0.000
     In    30      S                   -0.265    -0.265    -0.000
     In    31      Dzz                  0.999     0.999     0.000
     In    31      Dzy                  0.998     0.998    -0.000
     In    31      Dzx                  0.998     0.998     0.000
     In    31      Dxx-yy               0.999     0.999     0.000
     In    31      Dxy                  0.998     0.998     0.000
     In    31      S                    0.713     0.712     0.001
     In    31      Px                   0.252     0.248     0.004
     In    31      Py                   0.241     0.241     0.000
     In    31      Pz                   0.239     0.239     0.000
     In    31      S                   -0.271    -0.271    -0.001
     In    32      Dzz                  1.000     1.000     0.000
     In    32      Dzy                  0.998     0.998     0.000
     In    32      Dzx                  0.998     0.998     0.000
     In    32      Dxx-yy               1.000     1.000    -0.000
     In    32      Dxy                  0.998     0.998     0.000
     In    32      S                    0.706     0.706    -0.000
     In    32      Px                   0.240     0.241    -0.000
     In    32      Py                   0.242     0.242    -0.000
     In    32      Pz                   0.243     0.243     0.000
     In    32      S                   -0.265    -0.266     0.001
  ---------------------------------------------------------------
                           Total:     290.999   290.000     0.999
  ---------------------------------------------------------------

     Atomic Populations (Mulliken)
     -----------------------------
Species          Ion Spin      s       p       d       f      Total   Charge(e)   Spin(hbar/2)
==============================================================================================
  P               1   up:     0.867   1.965   0.000   0.000   2.832    -0.662        0.003
                  1   dn:     0.867   1.963   0.000   0.000   2.830
  P               2   up:     0.884   2.172   0.000   0.000   3.056    -0.398        0.714
                  2   dn:     0.857   1.486   0.000   0.000   2.342
  P               3   up:     0.868   1.964   0.000   0.000   2.833    -0.668       -0.003
                  3   dn:     0.869   1.967   0.000   0.000   2.835
  P               4   up:     0.868   1.970   0.000   0.000   2.838    -0.662        0.014
                  4   dn:     0.865   1.959   0.000   0.000   2.824
  P               5   up:     0.868   1.980   0.000   0.000   2.848    -0.657        0.040
                  5   dn:     0.864   1.944   0.000   0.000   2.809
  P               6   up:     0.867   1.971   0.000   0.000   2.838    -0.676       -0.000
                  6   dn:     0.867   1.971   0.000   0.000   2.838
  P               7   up:     0.867   1.969   0.000   0.000   2.836    -0.673       -0.000
                  7   dn:     0.867   1.970   0.000   0.000   2.837
  P               8   up:     0.867   1.975   0.000   0.000   2.842    -0.676        0.009
                  8   dn:     0.867   1.967   0.000   0.000   2.834
  P               9   up:     0.867   1.970   0.000   0.000   2.837    -0.674        0.000
                  9   dn:     0.867   1.970   0.000   0.000   2.837
  P              10   up:     0.867   1.972   0.000   0.000   2.839    -0.678       -0.000
                 10   dn:     0.867   1.972   0.000   0.000   2.839
  P              11   up:     0.871   1.946   0.000   0.000   2.817    -0.634       -0.000
                 11   dn:     0.871   1.946   0.000   0.000   2.817
  P              12   up:     0.868   1.975   0.000   0.000   2.843    -0.668        0.017
                 12   dn:     0.866   1.960   0.000   0.000   2.826
  P              13   up:     0.867   1.970   0.000   0.000   2.837    -0.674        0.000
                 13   dn:     0.867   1.970   0.000   0.000   2.837
  P              14   up:     0.863   1.985   0.000   0.000   2.848    -0.681        0.015
                 14   dn:     0.862   1.971   0.000   0.000   2.833
  P              15   up:     0.866   1.970   0.000   0.000   2.837    -0.674       -0.001
                 15   dn:     0.867   1.971   0.000   0.000   2.837
  P              16   up:     0.868   1.979   0.000   0.000   2.847    -0.659        0.034
                 16   dn:     0.864   1.948   0.000   0.000   2.812
  P              17   up:     0.868   1.977   0.000   0.000   2.844    -0.666        0.023
                 17   dn:     0.864   1.957   0.000   0.000   2.822
  P              18   up:     0.867   1.972   0.000   0.000   2.839    -0.678       -0.000
                 18   dn:     0.867   1.972   0.000   0.000   2.839
  P              19   up:     0.868   1.969   0.000   0.000   2.837    -0.673       -0.000
                 19   dn:     0.868   1.969   0.000   0.000   2.837
  P              20   up:     0.867   1.971   0.000   0.000   2.837    -0.674        0.001
                 20   dn:     0.867   1.970   0.000   0.000   2.837
  P              21   up:     0.867   1.973   0.000   0.000   2.840    -0.676        0.003
                 21   dn:     0.867   1.970   0.000   0.000   2.837
  P              22   up:     0.863   1.984   0.000   0.000   2.847    -0.681        0.013
                 22   dn:     0.862   1.972   0.000   0.000   2.834
  P              23   up:     0.866   1.971   0.000   0.000   2.837    -0.675        0.000
                 23   dn:     0.866   1.971   0.000   0.000   2.837
  P              24   up:     0.866   1.971   0.000   0.000   2.837    -0.675        0.000
                 24   dn:     0.866   1.971   0.000   0.000   2.837
  P              25   up:     0.867   1.971   0.000   0.000   2.838    -0.674        0.001
                 25   dn:     0.867   1.970   0.000   0.000   2.837
  P              26   up:     0.865   1.974   0.000   0.000   2.839    -0.678       -0.000
                 26   dn:     0.865   1.974   0.000   0.000   2.839
  P              27   up:     0.868   1.967   0.000   0.000   2.835    -0.671       -0.000
                 27   dn:     0.868   1.967   0.000   0.000   2.836
  P              28   up:     0.867   1.971   0.000   0.000   2.837    -0.674        0.000
                 28   dn:     0.867   1.970   0.000   0.000   2.837
  P              29   up:     0.867   1.971   0.000   0.000   2.837    -0.675       -0.000
                 29   dn:     0.867   1.971   0.000   0.000   2.838
  P              30   up:     0.868   1.969   0.000   0.000   2.837    -0.674       -0.000
                 30   dn:     0.868   1.969   0.000   0.000   2.837
  P              31   up:     0.867   1.970   0.000   0.000   2.837    -0.673       -0.000
                 31   dn:     0.867   1.970   0.000   0.000   2.837
  P              32   up:     0.867   1.970   0.000   0.000   2.837    -0.674       -0.000
                 32   dn:     0.867   1.970   0.000   0.000   2.837
  P              33   up:     0.879   1.910   0.000   0.000   2.789    -0.518        0.059
                 33   dn:     0.878   1.851   0.000   0.000   2.729
  In              1   up:     0.449   0.713   4.995   0.000   6.156     0.683       -0.004
                  1   dn:     0.452   0.714   4.995   0.000   6.160
  In              2   up:     0.428   0.691   4.994   0.000   6.114     0.745       -0.028
                  2   dn:     0.433   0.715   4.994   0.000   6.142
  In              3   up:     0.446   0.719   4.995   0.000   6.159     0.687        0.006
                  3   dn:     0.439   0.720   4.995   0.000   6.153
  In              4   up:     0.449   0.734   4.994   0.000   6.177     0.683        0.037
                  4   dn:     0.432   0.715   4.993   0.000   6.140
  In              5   up:     0.442   0.731   4.994   0.000   6.168     0.669        0.004
                  5   dn:     0.443   0.727   4.994   0.000   6.164
  In              6   up:     0.447   0.715   4.995   0.000   6.156     0.685       -0.003
                  6   dn:     0.448   0.716   4.995   0.000   6.159
  In              7   up:     0.440   0.733   4.994   0.000   6.167     0.668        0.003
                  7   dn:     0.442   0.729   4.994   0.000   6.165
  In              8   up:     0.453   0.711   4.995   0.000   6.159     0.689        0.008
                  8   dn:     0.442   0.715   4.995   0.000   6.151
  In              9   up:     0.444   0.723   4.995   0.000   6.161     0.679        0.001
                  9   dn:     0.443   0.723   4.995   0.000   6.160
  In             10   up:     0.446   0.717   4.995   0.000   6.158     0.686        0.002
                 10   dn:     0.443   0.718   4.995   0.000   6.156
  In             11   up:     0.454   0.733   4.994   0.000   6.181     0.637       -0.001
                 11   dn:     0.455   0.733   4.994   0.000   6.182
  In             12   up:     0.447   0.712   4.995   0.000   6.154     0.684       -0.007
                 12   dn:     0.453   0.714   4.995   0.000   6.161
  In             13   up:     0.439   0.725   4.995   0.000   6.159     0.681       -0.001
                 13   dn:     0.441   0.725   4.994   0.000   6.160
  In             14   up:     0.443   0.726   4.994   0.000   6.163     0.674        0.001
                 14   dn:     0.443   0.725   4.994   0.000   6.162
  In             15   up:     0.440   0.724   4.995   0.000   6.159     0.683        0.000
                 15   dn:     0.440   0.724   4.995   0.000   6.159
  In             16   up:     0.443   0.730   4.994   0.000   6.167     0.673        0.007
                 16   dn:     0.442   0.724   4.994   0.000   6.160
  In             17   up:     0.449   0.739   4.994   0.000   6.182     0.672        0.036
                 17   dn:     0.435   0.718   4.993   0.000   6.146
  In             18   up:     0.445   0.719   4.995   0.000   6.159     0.687        0.004
                 18   dn:     0.441   0.719   4.995   0.000   6.154
  In             19   up:     0.444   0.724   4.993   0.000   6.161     0.647       -0.031
                 19   dn:     0.446   0.753   4.992   0.000   6.192
  In             20   up:     0.448   0.720   4.995   0.000   6.163     0.674       -0.001
                 20   dn:     0.448   0.721   4.995   0.000   6.164
  In             21   up:     0.447   0.712   4.995   0.000   6.154     0.692       -0.000
                 21   dn:     0.444   0.715   4.995   0.000   6.154
  In             22   up:     0.444   0.726   4.994   0.000   6.164     0.673        0.001
                 22   dn:     0.443   0.726   4.994   0.000   6.163
  In             23   up:     0.435   0.716   4.995   0.000   6.146     0.706       -0.003
                 23   dn:     0.438   0.717   4.995   0.000   6.149
  In             24   up:     0.446   0.732   4.994   0.000   6.172     0.666        0.010
                 24   dn:     0.445   0.723   4.994   0.000   6.162
  In             25   up:     0.448   0.720   4.995   0.000   6.163     0.673       -0.001
                 25   dn:     0.449   0.721   4.995   0.000   6.164
  In             26   up:     0.444   0.725   4.994   0.000   6.163     0.671       -0.002
                 26   dn:     0.446   0.725   4.994   0.000   6.166
  In             27   up:     0.445   0.720   4.995   0.000   6.159     0.688        0.006
                 27   dn:     0.438   0.720   4.995   0.000   6.153
  In             28   up:     0.443   0.722   4.995   0.000   6.160     0.682        0.001
                 28   dn:     0.442   0.722   4.995   0.000   6.159
  In             29   up:     0.446   0.734   4.994   0.000   6.174     0.663        0.010
                 29   dn:     0.446   0.724   4.994   0.000   6.163
  In             30   up:     0.442   0.724   4.995   0.000   6.160     0.679       -0.000
                 30   dn:     0.442   0.724   4.995   0.000   6.161
  In             31   up:     0.441   0.733   4.994   0.000   6.168     0.668        0.005
                 31   dn:     0.441   0.729   4.994   0.000   6.164
  In             32   up:     0.440   0.725   4.994   0.000   6.160     0.680        0.000
                 32   dn:     0.440   0.725   4.994   0.000   6.160
==============================================================================================

                 Bond                   Population        Spin       Length (A)
================================================================================
              P 2  -- P 33                   0.52        -0.09          2.08913
              P 2  -- In 19                  0.73        -0.02          2.46188
              P 33 -- In 17                  0.72         0.04          2.49718
              P 19 -- In 19                  0.69         0.00          2.50712
              P 33 -- In 4                   0.71         0.05          2.50824
              P 16 -- In 31                  0.67         0.00          2.51259
              P 5  -- In 7                   0.66         0.00          2.51335
              P 14 -- In 29                  0.67        -0.00          2.51650
              P 22 -- In 24                  0.67        -0.00          2.51676
              P 21 -- In 17                  0.65        -0.00          2.51732
              P 4  -- In 29                  0.65        -0.00          2.51773
              P 14 -- In 31                  0.67        -0.00          2.51980
              P 22 -- In 7                   0.67        -0.00          2.52049
              P 17 -- In 24                  0.65        -0.00          2.52091
              P 22 -- In 5                   0.67        -0.00          2.52265
              P 8  -- In 4                   0.65        -0.01          2.52273
              P 14 -- In 16                  0.67        -0.00          2.52575
              P 12 -- In 2                   0.64         0.00          2.52690
              P 2  -- In 2                   0.63        -0.02          2.52773
              P 22 -- In 22                  0.67        -0.00          2.52916
              P 1  -- In 5                   0.63        -0.00          2.53041
              P 26 -- In 26                  0.68        -0.00          2.53062
              P 14 -- In 14                  0.67        -0.00          2.53173
              P 26 -- In 11                  0.64        -0.00          2.53225
              P 1  -- In 2                   0.63         0.01          2.53252
              P 12 -- In 16                  0.63        -0.00          2.53461
              P 17 -- In 19                  0.60         0.00          2.53712
              P 18 -- In 20                  0.66         0.00          2.54141
              P 11 -- In 11                  0.59         0.00          2.54184
              P 10 -- In 25                  0.66         0.00          2.54189
              P 21 -- In 22                  0.63         0.00          2.54222
              P 28 -- In 32                  0.67         0.00          2.54426
              P 8  -- In 14                  0.63         0.00          2.54453
              P 27 -- In 17                  0.66        -0.00          2.54454
              P 9  -- In 13                  0.67         0.00          2.54476
              P 7  -- In 13                  0.67         0.00          2.54497
              P 31 -- In 32                  0.67         0.00          2.54517
              P 7  -- In 7                   0.65        -0.00          2.54522
              P 5  -- In 4                   0.60        -0.03          2.54526
              P 31 -- In 31                  0.65        -0.00          2.54571
              P 11 -- In 2                   0.68         0.00          2.54595
              P 12 -- In 27                  0.67        -0.00          2.54602
              P 26 -- In 28                  0.67         0.00          2.54604
              P 1  -- In 3                   0.68        -0.00          2.54611
              P 15 -- In 15                  0.66         0.00          2.54621
              P 28 -- In 5                   0.66        -0.00          2.54630
              P 17 -- In 18                  0.67        -0.00          2.54647
              P 24 -- In 30                  0.67        -0.00          2.54656
              P 23 -- In 30                  0.66         0.00          2.54668
              P 16 -- In 17                  0.59        -0.02          2.54682
              P 26 -- In 9                   0.67         0.00          2.54690
              P 29 -- In 30                  0.67        -0.00          2.54705
              P 9  -- In 16                  0.66        -0.00          2.54713
              P 24 -- In 20                  0.66         0.00          2.54725
              P 20 -- In 26                  0.66         0.00          2.54744
              P 32 -- In 22                  0.67        -0.00          2.54795
              P 20 -- In 24                  0.66        -0.00          2.54797
              P 25 -- In 26                  0.66         0.00          2.54803
              P 25 -- In 32                  0.66         0.00          2.54842
              P 10 -- In 27                  0.65        -0.00          2.54854
              P 6  -- In 21                  0.65         0.00          2.54854
              P 31 -- In 22                  0.67        -0.00          2.54866
              P 29 -- In 25                  0.66         0.00          2.54872
              P 13 -- In 14                  0.67         0.00          2.54874
              P 23 -- In 23                  0.67         0.00          2.54877
              P 4  -- In 10                  0.68        -0.00          2.54879
              P 32 -- In 28                  0.66        -0.00          2.54880
              P 3  -- In 4                   0.66         0.00          2.54883
              P 24 -- In 7                   0.66         0.00          2.54885
              P 7  -- In 14                  0.67        -0.00          2.54890
              P 20 -- In 13                  0.66         0.00          2.54896
              P 25 -- In 29                  0.66        -0.00          2.54932
              P 29 -- In 31                  0.66         0.00          2.54962
              P 13 -- In 9                   0.66        -0.00          2.55005
              P 5  -- In 1                   0.68         0.00          2.55012
              P 6  -- In 8                   0.65         0.00          2.55015
              P 23 -- In 24                  0.66         0.00          2.55040
              P 16 -- In 12                  0.68         0.00          2.55054
              P 18 -- In 3                   0.65         0.00          2.55098
              P 15 -- In 6                   0.66         0.00          2.55100
              P 13 -- In 15                  0.67        -0.00          2.55156
              P 4  -- In 19                  0.58         0.00          2.55162
              P 15 -- In 16                  0.67         0.00          2.55167
              P 15 -- In 5                   0.66        -0.00          2.55168
              P 23 -- In 29                  0.65        -0.00          2.55194
              P 21 -- In 20                  0.65         0.00          2.55235
              P 32 -- In 15                  0.67        -0.00          2.55252
              P 18 -- In 18                  0.66         0.00          2.55263
              P 8  -- In 25                  0.65         0.00          2.55297
              P 18 -- In 1                   0.65         0.00          2.55386
              P 12 -- In 21                  0.65         0.00          2.55415
              P 30 -- In 15                  0.66        -0.00          2.55416
              P 19 -- In 26                  0.62        -0.00          2.55447
              P 30 -- In 30                  0.66        -0.00          2.55453
              P 6  -- In 23                  0.66        -0.00          2.55461
              P 10 -- In 12                  0.64        -0.00          2.55461
              P 8  -- In 23                  0.69        -0.00          2.55483
              P 16 -- In 6                   0.66        -0.00          2.55483
              P 21 -- In 23                  0.69        -0.00          2.55533
              P 10 -- In 10                  0.65         0.00          2.55537
              P 9  -- In 11                  0.65         0.00          2.55585
              P 28 -- In 11                  0.65         0.00          2.55610
              P 5  -- In 6                   0.65        -0.00          2.55622
              P 29 -- In 28                  0.66        -0.00          2.55627
              P 17 -- In 21                  0.67         0.00          2.55686
              P 24 -- In 9                   0.65        -0.00          2.55694
              P 30 -- In 13                  0.66         0.00          2.55697
              P 30 -- In 32                  0.66        -0.00          2.55698
              P 1  -- In 8                   0.65        -0.00          2.55731
              P 28 -- In 18                  0.66         0.00          2.55731
              P 3  -- In 9                   0.64        -0.00          2.55744
              P 4  -- In 8                   0.66        -0.00          2.55750
              P 3  -- In 3                   0.66        -0.00          2.55885
              P 25 -- In 27                  0.66        -0.00          2.55888
              P 27 -- In 27                  0.66         0.00          2.55896
              P 27 -- In 28                  0.64         0.00          2.55983
              P 20 -- In 3                   0.66         0.00          2.56033
              P 19 -- In 20                  0.65        -0.00          2.56061
              P 9  -- In 10                  0.65         0.00          2.56063
              P 6  -- In 6                   0.65        -0.00          2.56065
              P 27 -- In 18                  0.65         0.00          2.56191
              P 32 -- In 1                   0.64         0.00          2.56212
              P 19 -- In 25                  0.65        -0.00          2.56228
              P 13 -- In 12                  0.64         0.00          2.56331
              P 11 -- In 1                   0.66        -0.00          2.56389
              P 11 -- In 12                  0.65         0.00          2.56453
              P 3  -- In 10                  0.65         0.00          2.56474
              P 7  -- In 8                   0.64         0.00          2.56909
              P 31 -- In 21                  0.64         0.00          2.56954
================================================================================

 Hirshfeld supercell size:           2           2           2
Standard grid dimensions: 240 240 240
Fine grid dimensions:     240 240 240


     Hirshfeld Analysis
     ------------------
Species   Ion     Hirshfeld Charge (e)  Spin (hbar/2)
===================================================
  P        1                -0.24        0.01
  P        2                -0.13        0.52
  P        3                -0.23        0.00
  P        4                -0.24        0.02
  P        5                -0.24        0.03
  P        6                -0.23       -0.00
  P        7                -0.24       -0.00
  P        8                -0.24        0.01
  P        9                -0.24        0.00
  P       10                -0.24       -0.00
  P       11                -0.23       -0.00
  P       12                -0.23        0.02
  P       13                -0.24        0.00
  P       14                -0.24        0.01
  P       15                -0.24        0.00
  P       16                -0.24        0.03
  P       17                -0.24        0.03
  P       18                -0.24       -0.00
  P       19                -0.23       -0.00
  P       20                -0.24        0.00
  P       21                -0.24        0.00
  P       22                -0.24        0.01
  P       23                -0.24        0.00
  P       24                -0.24        0.00
  P       25                -0.24        0.00
  P       26                -0.24       -0.00
  P       27                -0.23        0.00
  P       28                -0.24        0.00
  P       29                -0.24        0.00
  P       30                -0.24       -0.00
  P       31                -0.24        0.00
  P       32                -0.24        0.00
  P       33                -0.20        0.10
  In       1                 0.25        0.00
  In       2                 0.25        0.02
  In       3                 0.25        0.00
  In       4                 0.24        0.04
  In       5                 0.23        0.00
  In       6                 0.25        0.00
  In       7                 0.23        0.01
  In       8                 0.25        0.00
  In       9                 0.24        0.00
  In      10                 0.25        0.00
  In      11                 0.23       -0.00
  In      12                 0.25        0.00
  In      13                 0.23        0.00
  In      14                 0.24        0.00
  In      15                 0.24        0.00
  In      16                 0.23        0.01
  In      17                 0.23        0.04
  In      18                 0.24        0.00
  In      19                 0.23        0.02
  In      20                 0.24        0.00
  In      21                 0.25        0.00
  In      22                 0.23        0.00
  In      23                 0.25        0.00
  In      24                 0.23        0.01
  In      25                 0.25        0.00
  In      26                 0.23       -0.00
  In      27                 0.25        0.00
  In      28                 0.24        0.00
  In      29                 0.23        0.01
  In      30                 0.24        0.00
  In      31                 0.23        0.01
  In      32                 0.23        0.00
===================================================

 
 A BibTeX formatted list of references used in this run has been written to 
 P_Interstitial_Migration_Dumbbell_Dumbbell+_Singlepoints_3.bib
 
Initialisation time =     31.29 s
Calculation time    =   7885.66 s
Finalisation time   =    173.57 s
Total time          =   8090.51 s
Peak Memory Use     = 9665472 kB
 
Overall parallel efficiency rating: Poor (36%)
 
Data was distributed by:-
G-vector (3-way); efficiency rating: Poor (39%)
k-point (36-way); efficiency rating: Very good (83%)
