 +-------------------------------------------------+
 |                                                 |
 |      CCC   AA    SSS  TTTTT  EEEEE  PPPP        |
 |     C     A  A  S       T    E      P   P       |
 |     C     AAAA   SS     T    EEE    PPPP        |
 |     C     A  A     S    T    E      P           |
 |      CCC  A  A  SSS     T    EEEEE  P           |
 |                                                 |
 +-------------------------------------------------+
 |                                                 |
 | Welcome to Academic Release CASTEP version 24.1 |
 | Ab Initio Total Energy Program                  |
 |                                                 |
 | Authors:                                        |
 | M. Segall, M. Probert, C. Pickard, P. Hasnip,   |
 | S. Clark, K. Refson, J. R. Yates,               |
 | A. Bartok-Partay, M. Payne                      |
 |                                                 |
 | Contributors:                                   |
 | P. Lindan, P. Haynes, J. White, V. Milman,      |
 | N. Govind, M. Gibson, P. Tulip, V. Cocula,      |
 | B. Montanari, D. Quigley, M. Glover,            |
 | L. Bernasconi, A. Perlov, M. Plummer,           |
 | E. McNellis, J. Meyer, J. Gale, D. Jochym       |
 | J. Aarons, B. Walker, R. Gillen, D. Jones       |
 | T. Green, I. J. Bush, C. J. Armstrong,          |
 | E. J. Higgins, E. L. Brown, M. S. McFly,        |
 | J. Wilkins, B-C. Shih, P. J. P. Byrne,          |
 | R. J. Maurer, J. C. Womack, J. Dziedzic,        |
 | L. LeBlanc, T. K. Stenczel, J. Kermode,         |
 | S. Sturniolo, B. Shi, B. Durham, M. Evans,      |
 | M. J. Smith, A. Tamerus, Z. Hawkhead,           |
 | V. Ravindran, T. Hollins, S. A. Joyce,          |
 | R. T. Strong, A. M. Reilly, S. J. Donaldson     |
 |                                                 |
 | Copyright (c) 2000 - 2023                       |
 |                                                 |
 |     Distributed under license from Cambridge    |
 |     Enterprise for academic use only.           |
 |                                                 |
 | Please cite                                     |
 |                                                 |
 |     "First principles methods using CASTEP"     |
 |                                                 |
 |         Zeitschrift fuer Kristallographie       |
 |           220(5-6) pp. 567-570 (2005)           |
 |                                                 |
 | S. J. Clark, M. D. Segall, C. J. Pickard,       |
 | P. J. Hasnip, M. J. Probert, K. Refson,         |
 | M. C. Payne                                     |
 |                                                 |
 |       in all publications arising from          |
 |              your use of CASTEP                 |
 |                                                 |
 +-------------------------------------------------+
 |                                                 |
 |              http://www.castep.org              |
 |                                                 |
 +-------------------------------------------------+



 Compiled for  GNU 11.2.0 on 04-04-2024 18:39:17
 from code version 6355fd106 Castep241_branch Thu Mar 7 17:56:19 2024 +0000
 Compiler: GNU Fortran 11.2.0; Optimisation: FAST
 Comms   : MPI VERSION : CRAY MPICH version 8.1.23.14 (ANL base 3.4a2)
 MATHLIBS: default (LAPACK version 3.10.1)
 FFT Lib : fftw3 version commercial-fftw-3.3.10-sse2-avx-avx2-avx2_128
 Fundamental constants values: CODATA 2018

 Run started: Wed, 30 Jul 2025 15:26:24 +0100

 Atomic calculation performed for P: 1s2 2s2 2p6 3s2 3p3

 Converged in 47 iterations to an ae energy of -9309.074 eV

   ============================================================                
   | Pseudopotential Report - Date of generation 30-07-2025   |                
   ------------------------------------------------------------                
   | Element: P Ionic charge:  5.00 Level of theory: RSCAN    |                
   | Atomic Solver: Koelling-Harmon                           |                
   |                                                          |                
   |               Reference Electronic Structure             |                
   |         Orbital         Occupation         Energy        |                
   |            3s              2.000           -0.535        |                
   |            3p              3.000           -0.209        |                
   |                                                          |                
   |                 Pseudopotential Definition               |                
   |        Beta     l      e      Rc     scheme   norm       |                
   |          1      0   -0.535   1.807     qc      0         |                
   |          2      0    0.250   1.807     qc      0         |                
   |          3      1   -0.209   1.807     qc      0         |                
   |          4      1    0.250   1.807     qc      0         |                
   |          5      2    0.000   1.807     qc      0         |                
   |          6      2    0.250   1.807     qc      0         |                
   |         loc     3    0.000   1.807     pn      0         |                
   |                                                          |                
   | Augmentation charge Rinner = 1.263                       |                
   | Partial core correction Rc = 1.263                       |                
   ------------------------------------------------------------                
   | "3|1.8|4|4|5|30:31:32"                                   |                
   ------------------------------------------------------------                
   |      Author: Chris J. Pickard, Cambridge University      |                
   ============================================================                
 Warning: otfg_output_psp cannot write out meta-GGA pseudopotentials presently.

 Atomic calculation performed for In:
 1s2 2s2 2p6 3s2 3p6 3d10 4s2 4p6 4d10 5s2 5p1

 Converged in 84 iterations to an ae energy of -160093.328 eV

   ============================================================                
   | Pseudopotential Report - Date of generation 30-07-2025   |                
   ------------------------------------------------------------                
   | Element: In Ionic charge: 13.00 Level of theory: RSCAN   |                
   | Atomic Solver: Koelling-Harmon                           |                
   |                                                          |                
   |               Reference Electronic Structure             |                
   |         Orbital         Occupation         Energy        |                
   |            4d             10.000           -0.711        |                
   |            5s              2.000           -0.313        |                
   |            5p              1.000           -0.095        |                
   |                                                          |                
   |                 Pseudopotential Definition               |                
   |        Beta     l      e      Rc     scheme   norm       |                
   |          1      0   -0.313   2.501     qc      0         |                
   |          2      0    0.250   2.501     qc      0         |                
   |          3      1   -0.095   2.501     qc      0         |                
   |          4      1    0.250   2.501     qc      0         |                
   |          5      2   -0.711   2.207     qc      0         |                
   |          6      2    0.250   2.207     qc      0         |                
   |         loc     3    0.000   2.501     pn      0         |                
   |                                                          |                
   | Augmentation charge Rinner = 1.504                       |                
   | Partial core correction Rc = 1.504                       |                
   ------------------------------------------------------------                
   | "3|2.5|2.5|1.5|7|8|9|50:51:42U2.2U2.2"                   |                
   ------------------------------------------------------------                
   |      Author: Chris J. Pickard, Cambridge University      |                
   ============================================================                
 Warning: otfg_output_psp cannot write out meta-GGA pseudopotentials presently.

 Pseudo atomic calculation performed for P 3s2 3p3

 Converged in 23 iterations to a total energy of -208.0292 eV

 Pseudo atomic calculation performed for In 4d10 5s2 5p1

 Converged in 42 iterations to a total energy of -1747.4501 eV
 Calculation parallelised over 108 processes.
 Data is distributed by G-vector(3-way) and k-point(36-way)
 Each process may use up to 16 threads.

 ************************************ Title ************************************
 

 ***************************** General Parameters ******************************
  
 output verbosity                               : normal  (1)
 write checkpoint data to                       : P_Interstitial_Migration_Dumbbell_Dumbbell+_Singlepoints_3.check
 type of calculation                            : single point energy
 stress calculation                             : off
 density difference calculation                 : off
 electron localisation func (ELF) calculation   : off
 Hirshfeld analysis                             : on
 polarisation (Berry phase) analysis            : off
 molecular orbital projected DOS                : off
 deltaSCF calculation                           : off
 unlimited duration calculation
 timing information                             : on
 memory usage estimate                          : on
 write extra output files                       : on
 write final potential to formatted file        : off
 write final density to formatted file          : off
 write BibTeX reference list                    : on
 write OTFG pseudopotential files               : on
 write electrostatic potential file             : on
 write bands file                               : on
 checkpoint writing                             : off
  
 output         length unit                     : A
 output           mass unit                     : amu
 output           time unit                     : ps
 output         charge unit                     : e
 output           spin unit                     : hbar/2
 output         energy unit                     : eV
 output          force unit                     : eV/A
 output       velocity unit                     : A/ps
 output       pressure unit                     : GPa
 output     inv_length unit                     : 1/A
 output      frequency unit                     : cm-1
 output force constant unit                     : eV/A**2
 output         volume unit                     : A**3
 output   IR intensity unit                     : (D/A)**2/amu
 output         dipole unit                     : D
 output         efield unit                     : eV/A/e
 output        entropy unit                     : J/mol/K
 output    efield chi2 unit                     : pm/V
  
 wavefunctions paging                           : none
 random number generator seed                   :  152624559
 data distribution                              : optimal for this architecture
 optimization strategy                          : balance speed and memory

 *********************** Exchange-Correlation Parameters ***********************
  
 using functional                               : RSCAN
 relativistic treatment                         : Koelling-Harmon
 DFT+D: Semi-empirical dispersion correction    : off

 ************************* Pseudopotential Parameters **************************
  
 pseudopotential representation                 : reciprocal space
 <beta|phi> representation                      : reciprocal space
 spin-orbit coupling                            : off

 **************************** Basis Set Parameters *****************************
  
 plane wave basis set cut-off                   :   900.0000   eV
 size of standard grid                          :     2.0000
 size of   fine   gmax                          :    30.7390   1/A
 finite basis set correction                    : none

 **************************** Electronic Parameters ****************************
  
 number of  electrons                           :  581.0    
 net charge of system                           :  0.000    
 net spin   of system                           :  1.000    
 number of  up  spins                           :  291.0    
 number of down spins                           :  290.0    
 treating system as spin-polarized
 number of bands                                :        349

 ********************* Electronic Minimization Parameters **********************
  
 Method: Treating system as metallic with density mixing treatment of electrons,
         and number of  SD  steps               :          1
         and number of  CG  steps               :          4
  
 total energy / atom convergence tol.           : 0.1000E-07   eV
 eigen-energy convergence tolerance             : 0.2234E-08   eV
 max force / atom convergence tol.              : ignored
 convergence tolerance window                   :          3   cycles
 max. number of SCF cycles                      :        100
 number of fixed-spin iterations                :         10
 smearing scheme                                : Gaussian
 smearing width                                 : 0.2000       eV
 Fermi energy convergence tolerance             : 0.2721E-13   eV
 periodic dipole correction                     : NONE

 ************************** Density Mixing Parameters **************************
  
 density-mixing scheme                          : Pulay
 max. length of mixing history                  :         20
 charge density mixing amplitude                : 0.5000    
   spin density mixing amplitude                :  2.000    
 cut-off energy for mixing                      :  900.0       eV

 *********************** Population Analysis Parameters ************************
  
 Population analysis with cutoff                :  3.000       A
 Population analysis output                     : summary and pdos components

 *******************************************************************************
  

                           -------------------------------
                                      Unit Cell
                           -------------------------------
        Real Lattice(A)                      Reciprocal Lattice(1/A)
    11.8016820    -0.0000080    -0.0000080        0.532397442   0.000000361   0.000000361
    -0.0000080    11.8016820    -0.0000080        0.000000361   0.532397442   0.000000361
    -0.0000080    -0.0000080    11.8016820        0.000000361   0.000000361   0.532397442

                       Lattice parameters(A)       Cell Angles
                    a =     11.801682          alpha =   90.000078
                    b =     11.801682          beta  =   90.000078
                    c =     11.801682          gamma =   90.000078

                       Current cell volume =          1643.734705       A**3
                                   density =             2.857097   AMU/A**3
                                           =             4.744322     g/cm^3

                           -------------------------------
                                     Cell Contents
                           -------------------------------
                         Total number of ions in cell =   65
                      Total number of species in cell =    2
                        Max number of any one species =   33

            xxxxxxxxxxxxxxxxxxxxxxxxxxxxxxxxxxxxxxxxxxxxxxxxxxxxxxxxxxxx
            x  Element    Atom        Fractional coordinates of atoms  x
            x            Number           u          v          w      x
            x----------------------------------------------------------x
            x  P            1         0.113012   0.123737   0.383608   x 
            x  P            2         0.369267   0.134136   0.216515   x 
            x  P            3         0.125839   0.371513   0.121613   x 
            x  P            4         0.376303   0.380800   0.378453   x 
            x  P            5         0.116371   0.123111   0.860731   x 
            x  P            6         0.373884   0.123859   0.620586   x 
            x  P            7         0.124248   0.374065   0.621347   x 
            x  P            8         0.376541   0.376082   0.869678   x 
            x  P            9         0.122936   0.621394   0.370482   x 
            x  P           10         0.373638   0.625368   0.122119   x 
            x  P           11         0.122019   0.872100   0.124403   x 
            x  P           12         0.374275   0.863736   0.382548   x 
            x  P           13         0.123702   0.624445   0.875231   x 
            x  P           14         0.371851   0.619959   0.625587   x 
            x  P           15         0.120531   0.870489   0.622060   x 
            x  P           16         0.373570   0.866642   0.860980   x 
            x  P           17         0.632002   0.124907   0.378722   x 
            x  P           18         0.875689   0.123593   0.122100   x 
            x  P           19         0.629859   0.379525   0.118471   x 
            x  P           20         0.875254   0.373856   0.372428   x 
            x  P           21         0.626845   0.126930   0.869259   x 
            x  P           22         0.869655   0.122231   0.625741   x 
            x  P           23         0.625465   0.375680   0.622481   x 
            x  P           24         0.875001   0.374929   0.872243   x 
            x  P           25         0.623926   0.625073   0.372504   x 
            x  P           26         0.873005   0.623022   0.121936   x 
            x  P           27         0.621914   0.875811   0.122063   x 
            x  P           28         0.871768   0.872342   0.370706   x 
            x  P           29         0.624692   0.624891   0.872363   x 
            x  P           30         0.873809   0.623774   0.622579   x 
            x  P           31         0.623934   0.874180   0.621475   x 
            x  P           32         0.874229   0.873516   0.875097   x 
            x  P           33         0.330135   0.077524   0.053438   x 
            x  In           1         0.001767   0.000268  -0.003341   x 
            x  In           2         0.231162  -0.018767   0.275169   x 
            x  In           3         0.000206   0.247776   0.247791   x 
            x  In           4         0.239085   0.254774  -0.020362   x 
            x  In           5        -0.010031  -0.004895   0.503066   x 
            x  In           6         0.247361  -0.002936   0.742953   x 
            x  In           7        -0.005549   0.250959   0.741793   x 
            x  In           8         0.250123   0.248992   0.495248   x 
            x  In           9        -0.000345   0.498396  -0.000603   x 
            x  In          10         0.251124   0.497468   0.246742   x 
            x  In          11        -0.003220   0.746386   0.246501   x 
            x  In          12         0.250604   0.751999  -0.003152   x 
            x  In          13        -0.000803   0.498839   0.497645   x 
            x  In          14         0.245846   0.498321   0.749446   x 
            x  In          15        -0.002365   0.747508   0.749852   x 
            x  In          16         0.245282   0.740739   0.502315   x 
            x  In          17         0.506992  -0.011380  -0.021195   x 
            x  In          18         0.748676   0.000483   0.246606   x 
            x  In          19         0.521339   0.268887   0.263845   x 
            x  In          20         0.752529   0.248193  -0.003144   x 
            x  In          21         0.498872   0.000071   0.495364   x 
            x  In          22         0.748474  -0.004179   0.749228   x 
            x  In          23         0.499436   0.249485   0.744312   x 
            x  In          24         0.753503   0.250696   0.501339   x 
            x  In          25         0.498089   0.502008  -0.003139   x 
            x  In          26         0.751384   0.501247   0.249885   x 
            x  In          27         0.497983   0.749614   0.247540   x 
            x  In          28         0.748413   0.749435  -0.000726   x 
            x  In          29         0.500168   0.503592   0.501295   x 
            x  In          30         0.749337   0.499415   0.748623   x 
            x  In          31         0.500712   0.744324   0.741813   x 
            x  In          32         0.748696   0.749098   0.497765   x 
            xxxxxxxxxxxxxxxxxxxxxxxxxxxxxxxxxxxxxxxxxxxxxxxxxxxxxxxxxxxx


                         No user defined ionic velocities

                           -------------------------------
                                   Details of Species
                           -------------------------------

                               Mass of species in AMU
                                    P   30.9737600
                                    In  114.8180000

                          Electric Quadrupole Moment (Barn)
                                    P    1.0000000 No Isotope Defined
                                    In    0.7700000 Isotope115

                          Files used for pseudopotentials:
                                    P 3|1.8|4|4|5|30:31:32
                                    In 3|2.5|2.5|1.5|7|8|9|50:51:42U2.2U2.2

                           -------------------------------
                              k-Points For BZ Sampling
                           -------------------------------
                       MP grid size for SCF calculation is  4  4  4
                            with an offset of   0.125  0.125  0.125
                       Number of kpoints used =            36

                           -------------------------------
                               Symmetry and Constraints
                           -------------------------------

                      Maximum deviation from symmetry =  0.00000         ANG

                      Number of symmetry operations   =           1
                      Number of ionic constraints     =           3
                      Point group of crystal =     1: C1, 1, 1
                      Space group of crystal =     1: P1, P 1

             Set iprint > 1 for details on symmetry rotations/translations

                         Centre of mass is constrained
             Set iprint > 1 for details of linear ionic constraints

                         Number of cell constraints= 0
                         Cell constraints are:  1 2 3 4 5 6

                         External pressure/stress (GPa)
                          0.00000   0.00000   0.00000
                                    0.00000   0.00000
                                              0.00000
 
+---------------- MEMORY AND SCRATCH DISK ESTIMATES PER PROCESS --------------+
|                                                     Memory          Disk    |
| Baseline code, static data and system overhead      368.0 MB         0.0 MB |
| BLAS internal memory storage                          0.0 MB         0.0 MB |
| Model and support data                             4327.0 MB         0.0 MB |
| Electronic energy minimisation requirements        1337.1 MB         0.0 MB |
| Force calculation requirements                      127.4 MB         0.0 MB |
|                                               ----------------------------- |
| Approx. total storage required per process         6032.2 MB         0.0 MB |
|                                                                             |
| Requirements will fluctuate during execution and may exceed these estimates |
+-----------------------------------------------------------------------------+
Calculating approximate eigenstates for fixed initial Hamiltonian
Cut-off for approx. calculation is   89.988 eV
Improving approx. states at cut-off of  450.000 eV
Resetting cut-off to  900.000 eV
Calculating total energy with cut-off of  900.000 eV.
------------------------------------------------------------------------ <-- SCF
SCF loop      Energy           Fermi           Energy gain       Timer   <-- SCF
                               energy          per atom          (sec)   <-- SCF
------------------------------------------------------------------------ <-- SCF
Initial  -6.32535477E+004  0.00000000E+000                       459.82  <-- SCF
      1  -6.30178086E+004  2.91396721E+000  -3.62675519E+000     924.71  <-- SCF
      2  -6.30180723E+004  2.91333207E+000   4.05753330E-003    1240.53  <-- SCF
      3  -6.30839388E+004  3.25578978E+000   1.01333093E+000    1602.45  <-- SCF
      4  -6.30955369E+004  3.34278043E+000   1.78431667E-001    2097.84  <-- SCF
      5  -6.31018519E+004  3.51708391E+000   9.71540524E-002    2467.57  <-- SCF
      6  -6.30901688E+004  3.74135188E+000  -1.79739707E-001    2812.11  <-- SCF
      7  -6.30888387E+004  3.79993967E+000  -2.04642417E-002    3171.15  <-- SCF
      8  -6.30889490E+004  3.84346991E+000   1.69788190E-003    3537.14  <-- SCF
      9  -6.30898062E+004  3.87105622E+000   1.31870955E-002    3896.78  <-- SCF
     10  -6.30900700E+004  3.85900979E+000   4.05873368E-003    4252.36  <-- SCF
     11  -6.30900744E+004  3.85070199E+000   6.83763535E-005    4620.78  <-- SCF
     12  -6.30900765E+004  3.84456995E+000   3.19604933E-005    4978.38  <-- SCF
     13  -6.30900775E+004  3.84382220E+000   1.51952397E-005    5352.16  <-- SCF
     14  -6.30900777E+004  3.84296957E+000   3.51501199E-006    5706.65  <-- SCF
     15  -6.30900778E+004  3.84232088E+000   9.13074134E-007    6061.55  <-- SCF
     16  -6.30900778E+004  3.84225554E+000   2.88442784E-007    6382.76  <-- SCF
     17  -6.30900778E+004  3.84217298E+000   8.44403590E-008    6663.16  <-- SCF
     18  -6.30900778E+004  3.84225010E+000   2.92926471E-008    6914.92  <-- SCF
     19  -6.30900778E+004  3.84232413E+000   1.05634689E-008    7165.08  <-- SCF
     20  -6.30900778E+004  3.84233380E+000   3.33478022E-009    7412.06  <-- SCF
     21  -6.30900778E+004  3.84233369E+000   6.85155793E-010    7654.55  <-- SCF
------------------------------------------------------------------------ <-- SCF
 
Integrated Spin Density     =    0.998933     hbar/2
Integrated |Spin Density|   =     1.18463     hbar/2
 
Final energy, E             =  -63090.06964510     eV
Final free energy (E-TS)    =  -63090.07782701     eV
(energies not corrected for finite basis set)
 
NB est. 0K energy (E-0.5TS)      =  -63090.07373605     eV
 

 ************************** Forces **************************
 *                                                          *
 *               Cartesian components (eV/A)                *
 * -------------------------------------------------------- *
 *                         x            y            z      *
 *                                                          *
 * P               1     -0.06041     -0.04534      0.01487 *
 * P               2     -0.04679     -0.03322     -0.04578 *
 * P               3      0.03951     -0.01046      0.04819 *
 * P               4      0.01060      0.01367     -0.00062 *
 * P               5     -0.03957      0.01920      0.04938 *
 * P               6     -0.00605     -0.00526      0.02333 *
 * P               7     -0.01108     -0.01056     -0.01458 *
 * P               8     -0.02934      0.10211     -0.01261 *
 * P               9     -0.00667     -0.00148     -0.00156 *
 * P              10     -0.01394     -0.02224      0.00868 *
 * P              11     -0.00275     -0.01664      0.04974 *
 * P              12     -0.00739     -0.00302     -0.02840 *
 * P              13     -0.02216     -0.01387      0.00582 *
 * P              14     -0.00383      0.03170     -0.01949 *
 * P              15      0.01502      0.01219     -0.01862 *
 * P              16      0.00753     -0.04614      0.05446 *
 * P              17     -0.02337     -0.00515     -0.02044 *
 * P              18     -0.01216     -0.00515      0.00982 *
 * P              19     -0.05265     -0.05345      0.04644 *
 * P              20      0.00894      0.00592     -0.00928 *
 * P              21      0.12122     -0.03507     -0.03174 *
 * P              22      0.01942     -0.00899     -0.01042 *
 * P              23      0.00053      0.00952     -0.01281 *
 * P              24      0.02848      0.00939      0.00457 *
 * P              25     -0.00411      0.00782     -0.00239 *
 * P              26      0.00522     -0.01146      0.02165 *
 * P              27      0.01226     -0.00002      0.02354 *
 * P              28     -0.00046     -0.01631      0.00482 *
 * P              29      0.00451      0.01664     -0.00242 *
 * P              30     -0.00819     -0.00708     -0.00418 *
 * P              31     -0.01248     -0.01869     -0.02276 *
 * P              32     -0.00371     -0.02923     -0.00319 *
 * P              33     -0.18414     -0.18323     -0.04847 *
 * In              1      0.01944      0.00137      0.01950 *
 * In              2     -0.00605      0.06023     -0.03768 *
 * In              3     -0.04137     -0.03282      0.00385 *
 * In              4      0.13423     -0.03170     -0.06679 *
 * In              5      0.01004      0.08110     -0.02550 *
 * In              6      0.02477      0.03776      0.01053 *
 * In              7      0.00830     -0.03929      0.01084 *
 * In              8     -0.02792      0.00048      0.06674 *
 * In              9     -0.01851      0.00494     -0.04381 *
 * In             10     -0.00196      0.04210     -0.00361 *
 * In             11      0.02290      0.02749     -0.01949 *
 * In             12     -0.00547      0.01615      0.01663 *
 * In             13     -0.00565      0.02395     -0.00183 *
 * In             14      0.07607     -0.00132      0.01049 *
 * In             15     -0.01993     -0.02197      0.01036 *
 * In             16      0.04279     -0.00821     -0.00305 *
 * In             17     -0.01848      0.18910     -0.02622 *
 * In             18      0.05376     -0.01351     -0.00529 *
 * In             19      0.07387      0.07264     -0.01913 *
 * In             20     -0.03440      0.01261     -0.02925 *
 * In             21      0.01978     -0.01446      0.08695 *
 * In             22     -0.00490      0.09931      0.01177 *
 * In             23     -0.01913     -0.03369      0.04228 *
 * In             24     -0.00407     -0.02424      0.01146 *
 * In             25      0.01670     -0.03765     -0.01869 *
 * In             26     -0.01420     -0.01301     -0.04039 *
 * In             27     -0.00651     -0.04211     -0.01352 *
 * In             28     -0.00395     -0.00976     -0.02507 *
 * In             29     -0.01448     -0.01753      0.00309 *
 * In             30      0.02252      0.02007      0.01317 *
 * In             31     -0.02547      0.01196      0.01342 *
 * In             32      0.02533     -0.00609     -0.00731 *
 *                                                          *
 ************************************************************

 Pseudo atomic calculation performed for P 3s2 3p3

 Converged in 23 iterations to a total energy of -208.0292 eV

 Pseudo atomic calculation performed for In 4d10 5s2 5p1

 Converged in 42 iterations to a total energy of -1747.4501 eV
Charge spilling parameter for spin component 1 = 0.17%
Charge spilling parameter for spin component 2 = 0.18%

                   Orbital Populations                  
  ---------------------------------------------------------------
     Ion    Atom   Orbital              Up        Down      Spin
  ---------------------------------------------------------------
      P     1      S                    0.867     0.867     0.001
      P     1      Px                   0.662     0.661     0.001
      P     1      Py                   0.644     0.645    -0.001
      P     1      Pz                   0.659     0.658     0.001
      P     2      S                    0.884     0.856     0.028
      P     2      Px                   0.798     0.485     0.313
      P     2      Py                   0.796     0.441     0.355
      P     2      Pz                   0.577     0.561     0.017
      P     3      S                    0.868     0.869    -0.000
      P     3      Px                   0.657     0.658    -0.001
      P     3      Py                   0.657     0.658    -0.001
      P     3      Pz                   0.650     0.651    -0.001
      P     4      S                    0.868     0.865     0.003
      P     4      Px                   0.646     0.645     0.001
      P     4      Py                   0.663     0.658     0.005
      P     4      Pz                   0.661     0.656     0.005
      P     5      S                    0.868     0.865     0.004
      P     5      Px                   0.666     0.649     0.017
      P     5      Py                   0.653     0.646     0.007
      P     5      Pz                   0.661     0.649     0.012
      P     6      S                    0.867     0.867    -0.000
      P     6      Px                   0.658     0.658     0.000
      P     6      Py                   0.657     0.657     0.000
      P     6      Pz                   0.656     0.656    -0.000
      P     7      S                    0.867     0.867    -0.000
      P     7      Px                   0.655     0.656    -0.000
      P     7      Py                   0.658     0.658    -0.000
      P     7      Pz                   0.656     0.656    -0.000
      P     8      S                    0.867     0.867     0.001
      P     8      Px                   0.651     0.651     0.001
      P     8      Py                   0.662     0.657     0.005
      P     8      Pz                   0.662     0.659     0.003
      P     9      S                    0.867     0.867    -0.000
      P     9      Px                   0.657     0.657     0.000
      P     9      Py                   0.658     0.658     0.000
      P     9      Pz                   0.655     0.655    -0.000
      P    10      S                    0.867     0.867    -0.000
      P    10      Px                   0.658     0.658    -0.000
      P    10      Py                   0.656     0.656    -0.000
      P    10      Pz                   0.658     0.658    -0.000
      P    11      S                    0.871     0.871    -0.000
      P    11      Px                   0.652     0.653    -0.000
      P    11      Py                   0.653     0.653    -0.000
      P    11      Pz                   0.641     0.641    -0.000
      P    12      S                    0.868     0.866     0.002
      P    12      Px                   0.647     0.645     0.002
      P    12      Py                   0.665     0.657     0.008
      P    12      Pz                   0.662     0.657     0.005
      P    13      S                    0.867     0.867    -0.000
      P    13      Px                   0.658     0.658     0.000
      P    13      Py                   0.655     0.655    -0.000
      P    13      Pz                   0.657     0.657     0.000
      P    14      S                    0.863     0.862     0.001
      P    14      Px                   0.652     0.650     0.002
      P    14      Py                   0.667     0.661     0.006
      P    14      Pz                   0.666     0.660     0.006
      P    15      S                    0.866     0.867    -0.000
      P    15      Px                   0.656     0.656     0.000
      P    15      Py                   0.656     0.656    -0.000
      P    15      Pz                   0.659     0.659    -0.000
      P    16      S                    0.868     0.864     0.003
      P    16      Px                   0.652     0.646     0.005
      P    16      Py                   0.665     0.652     0.013
      P    16      Pz                   0.662     0.649     0.013
      P    17      S                    0.868     0.864     0.003
      P    17      Px                   0.666     0.657     0.010
      P    17      Py                   0.648     0.645     0.003
      P    17      Pz                   0.663     0.656     0.007
      P    18      S                    0.867     0.867    -0.000
      P    18      Px                   0.656     0.656    -0.000
      P    18      Py                   0.658     0.658    -0.000
      P    18      Pz                   0.658     0.658    -0.000
      P    19      S                    0.868     0.868    -0.000
      P    19      Px                   0.662     0.662    -0.000
      P    19      Py                   0.661     0.661    -0.000
      P    19      Pz                   0.646     0.646    -0.000
      P    20      S                    0.867     0.867    -0.000
      P    20      Px                   0.657     0.657     0.000
      P    20      Py                   0.658     0.657     0.000
      P    20      Pz                   0.656     0.656     0.000
      P    21      S                    0.867     0.867    -0.000
      P    21      Px                   0.661     0.659     0.002
      P    21      Py                   0.650     0.650    -0.000
      P    21      Pz                   0.662     0.661     0.001
      P    22      S                    0.863     0.862     0.001
      P    22      Px                   0.667     0.662     0.005
      P    22      Py                   0.651     0.650     0.002
      P    22      Pz                   0.666     0.661     0.005
      P    23      S                    0.866     0.866    -0.000
      P    23      Px                   0.656     0.656     0.000
      P    23      Py                   0.656     0.656     0.000
      P    23      Pz                   0.658     0.659    -0.000
      P    24      S                    0.866     0.867    -0.000
      P    24      Px                   0.658     0.658    -0.000
      P    24      Py                   0.658     0.658     0.000
      P    24      Pz                   0.655     0.655    -0.000
      P    25      S                    0.867     0.867     0.000
      P    25      Px                   0.658     0.657     0.001
      P    25      Py                   0.657     0.657     0.000
      P    25      Pz                   0.656     0.656     0.000
      P    26      S                    0.865     0.865    -0.000
      P    26      Px                   0.658     0.659    -0.000
      P    26      Py                   0.659     0.659    -0.000
      P    26      Pz                   0.657     0.657     0.000
      P    27      S                    0.868     0.868    -0.000
      P    27      Px                   0.659     0.658     0.000
      P    27      Py                   0.658     0.658     0.000
      P    27      Pz                   0.650     0.651    -0.000
      P    28      S                    0.867     0.867     0.000
      P    28      Px                   0.658     0.658     0.000
      P    28      Py                   0.658     0.657     0.000
      P    28      Pz                   0.654     0.654    -0.000
      P    29      S                    0.867     0.867    -0.000
      P    29      Px                   0.658     0.658     0.000
      P    29      Py                   0.658     0.658    -0.000
      P    29      Pz                   0.655     0.655    -0.000
      P    30      S                    0.868     0.868    -0.000
      P    30      Px                   0.657     0.657    -0.000
      P    30      Py                   0.657     0.657    -0.000
      P    30      Pz                   0.656     0.656    -0.000
      P    31      S                    0.867     0.867    -0.000
      P    31      Px                   0.658     0.658     0.000
      P    31      Py                   0.656     0.656    -0.000
      P    31      Pz                   0.656     0.656    -0.000
      P    32      S                    0.867     0.867    -0.000
      P    32      Px                   0.655     0.655    -0.000
      P    32      Py                   0.658     0.658     0.000
      P    32      Pz                   0.657     0.657    -0.000
      P    33      S                    0.879     0.878     0.001
      P    33      Px                   0.701     0.681     0.020
      P    33      Py                   0.698     0.643     0.055
      P    33      Pz                   0.511     0.527    -0.016
     In     1      Dzz                  1.000     1.000     0.000
     In     1      Dzy                  0.998     0.998     0.000
     In     1      Dzx                  0.999     0.999     0.000
     In     1      Dxx-yy               1.000     1.000    -0.000
     In     1      Dxy                  0.999     0.999     0.000
     In     1      S                    0.707     0.707    -0.001
     In     1      Px                   0.233     0.233    -0.000
     In     1      Py                   0.238     0.238    -0.000
     In     1      Pz                   0.242     0.242    -0.001
     In     1      S                   -0.258    -0.256    -0.002
     In     2      Dzz                  0.999     0.999     0.000
     In     2      Dzy                  0.999     0.998     0.000
     In     2      Dzx                  0.999     0.998     0.000
     In     2      Dxx-yy               1.000     0.999     0.000
     In     2      Dxy                  0.998     0.998     0.000
     In     2      S                    0.684     0.691    -0.006
     In     2      Px                   0.238     0.248    -0.010
     In     2      Py                   0.235     0.246    -0.012
     In     2      Pz                   0.219     0.221    -0.002
     In     2      S                   -0.256    -0.258     0.002
     In     3      Dzz                  1.000     1.000     0.000
     In     3      Dzy                  0.998     0.998    -0.000
     In     3      Dzx                  0.998     0.998    -0.000
     In     3      Dxx-yy               1.000     1.000    -0.000
     In     3      Dxy                  0.999     0.999     0.000
     In     3      S                    0.710     0.709     0.001
     In     3      Px                   0.237     0.238    -0.000
     In     3      Py                   0.240     0.240    -0.000
     In     3      Pz                   0.242     0.242    -0.000
     In     3      S                   -0.264    -0.270     0.006
     In     4      Dzz                  0.999     0.999     0.000
     In     4      Dzy                  0.998     0.998     0.000
     In     4      Dzx                  0.999     0.999    -0.000
     In     4      Dxx-yy               0.999     0.999     0.000
     In     4      Dxy                  0.998     0.998     0.000
     In     4      S                    0.714     0.694     0.020
     In     4      Px                   0.251     0.245     0.006
     In     4      Py                   0.257     0.239     0.018
     In     4      Pz                   0.226     0.231    -0.005
     In     4      S                   -0.265    -0.262    -0.003
     In     5      Dzz                  1.000     1.000     0.000
     In     5      Dzy                  0.998     0.998     0.000
     In     5      Dzx                  0.998     0.998    -0.000
     In     5      Dxx-yy               1.000     1.000     0.000
     In     5      Dxy                  0.998     0.998     0.000
     In     5      S                    0.712     0.709     0.003
     In     5      Px                   0.239     0.238     0.001
     In     5      Py                   0.251     0.249     0.002
     In     5      Pz                   0.241     0.240     0.001
     In     5      S                   -0.270    -0.267    -0.003
     In     6      Dzz                  1.000     1.000    -0.000
     In     6      Dzy                  0.999     0.999     0.000
     In     6      Dzx                  0.999     0.999     0.000
     In     6      Dxx-yy               1.000     1.000     0.000
     In     6      Dxy                  0.998     0.998     0.000
     In     6      S                    0.707     0.708    -0.001
     In     6      Px                   0.242     0.242    -0.001
     In     6      Py                   0.241     0.242    -0.000
     In     6      Pz                   0.232     0.232    -0.001
     In     6      S                   -0.260    -0.259    -0.001
     In     7      Dzz                  0.999     0.999     0.000
     In     7      Dzy                  0.998     0.998     0.000
     In     7      Dzx                  0.998     0.998     0.000
     In     7      Dxx-yy               0.999     0.999     0.000
     In     7      Dxy                  0.998     0.998     0.000
     In     7      S                    0.713     0.713     0.000
     In     7      Px                   0.241     0.241    -0.000
     In     7      Py                   0.253     0.249     0.004
     In     7      Pz                   0.239     0.239     0.000
     In     7      S                   -0.273    -0.271    -0.002
     In     8      Dzz                  1.000     1.000     0.000
     In     8      Dzy                  0.999     0.999    -0.000
     In     8      Dzx                  0.999     0.999     0.000
     In     8      Dxx-yy               1.000     1.000    -0.000
     In     8      Dxy                  0.998     0.998    -0.000
     In     8      S                    0.708     0.708     0.000
     In     8      Px                   0.242     0.242    -0.000
     In     8      Py                   0.239     0.240    -0.001
     In     8      Pz                   0.230     0.233    -0.002
     In     8      S                   -0.255    -0.266     0.011
     In     9      Dzz                  1.000     1.000    -0.000
     In     9      Dzy                  0.998     0.998    -0.000
     In     9      Dzx                  0.998     0.998    -0.000
     In     9      Dxx-yy               1.000     1.000    -0.000
     In     9      Dxy                  0.998     0.998     0.000
     In     9      S                    0.709     0.708     0.001
     In     9      Px                   0.241     0.241     0.000
     In     9      Py                   0.241     0.241     0.000
     In     9      Pz                   0.241     0.241    -0.000
     In     9      S                   -0.265    -0.265     0.000
     In    10      Dzz                  1.000     1.000     0.000
     In    10      Dzy                  0.999     0.999     0.000
     In    10      Dzx                  0.998     0.998    -0.000
     In    10      Dxx-yy               1.000     1.000     0.000
     In    10      Dxy                  0.999     0.999    -0.000
     In    10      S                    0.710     0.710     0.000
     In    10      Px                   0.240     0.240    -0.000
     In    10      Py                   0.237     0.238    -0.001
     In    10      Pz                   0.240     0.240    -0.000
     In    10      S                   -0.264    -0.267     0.003
     In    11      Dzz                  1.000     1.000     0.000
     In    11      Dzy                  0.998     0.998     0.000
     In    11      Dzx                  0.998     0.998    -0.000
     In    11      Dxx-yy               1.000     1.000     0.000
     In    11      Dxy                  0.998     0.998     0.000
     In    11      S                    0.717     0.717    -0.000
     In    11      Px                   0.242     0.242    -0.000
     In    11      Py                   0.242     0.242     0.000
     In    11      Pz                   0.248     0.248    -0.000
     In    11      S                   -0.263    -0.262    -0.001
     In    12      Dzz                  1.000     1.000     0.000
     In    12      Dzy                  0.999     0.999     0.000
     In    12      Dzx                  0.998     0.998    -0.000
     In    12      Dxx-yy               1.000     1.000    -0.000
     In    12      Dxy                  0.999     0.999     0.000
     In    12      S                    0.707     0.707    -0.001
     In    12      Px                   0.238     0.238    -0.000
     In    12      Py                   0.233     0.233    -0.000
     In    12      Pz                   0.241     0.242    -0.001
     In    12      S                   -0.259    -0.254    -0.005
     In    13      Dzz                  1.000     1.000     0.000
     In    13      Dzy                  0.998     0.998     0.000
     In    13      Dzx                  0.998     0.998     0.000
     In    13      Dxx-yy               1.000     1.000    -0.000
     In    13      Dxy                  0.998     0.998     0.000
     In    13      S                    0.705     0.705    -0.000
     In    13      Px                   0.242     0.242    -0.000
     In    13      Py                   0.240     0.240    -0.000
     In    13      Pz                   0.243     0.243     0.000
     In    13      S                   -0.266    -0.265    -0.001
     In    14      Dzz                  1.000     1.000     0.000
     In    14      Dzy                  0.998     0.998     0.000
     In    14      Dzx                  0.998     0.998     0.000
     In    14      Dxx-yy               1.000     1.000     0.000
     In    14      Dxy                  0.998     0.998     0.000
     In    14      S                    0.709     0.709     0.000
     In    14      Px                   0.247     0.246     0.001
     In    14      Py                   0.239     0.239    -0.000
     In    14      Pz                   0.240     0.240    -0.000
     In    14      S                   -0.266    -0.266    -0.000
     In    15      Dzz                  1.000     1.000    -0.000
     In    15      Dzy                  0.998     0.998     0.000
     In    15      Dzx                  0.998     0.998    -0.000
     In    15      Dxx-yy               1.000     1.000     0.000
     In    15      Dxy                  0.999     0.999    -0.000
     In    15      S                    0.706     0.706     0.000
     In    15      Px                   0.241     0.241    -0.000
     In    15      Py                   0.241     0.241    -0.000
     In    15      Pz                   0.242     0.242    -0.000
     In    15      S                   -0.265    -0.266     0.001
     In    16      Dzz                  1.000     1.000     0.000
     In    16      Dzy                  0.998     0.998    -0.000
     In    16      Dzx                  0.998     0.998     0.000
     In    16      Dxx-yy               1.000     1.000     0.000
     In    16      Dxy                  0.998     0.998     0.000
     In    16      S                    0.712     0.708     0.004
     In    16      Px                   0.250     0.247     0.004
     In    16      Py                   0.239     0.238     0.001
     In    16      Pz                   0.241     0.239     0.001
     In    16      S                   -0.269    -0.266    -0.002
     In    17      Dzz                  0.999     0.999     0.000
     In    17      Dzy                  0.998     0.999    -0.000
     In    17      Dzx                  0.998     0.998     0.000
     In    17      Dxx-yy               0.999     0.999     0.000
     In    17      Dxy                  0.998     0.998     0.000
     In    17      S                    0.718     0.700     0.018
     In    17      Px                   0.256     0.241     0.016
     In    17      Py                   0.251     0.248     0.003
     In    17      Pz                   0.233     0.230     0.003
     In    17      S                   -0.269    -0.265    -0.004
     In    18      Dzz                  1.000     1.000     0.000
     In    18      Dzy                  0.998     0.998    -0.000
     In    18      Dzx                  0.998     0.998     0.000
     In    18      Dxx-yy               1.000     1.000     0.000
     In    18      Dxy                  0.999     0.999     0.000
     In    18      S                    0.711     0.711     0.000
     In    18      Px                   0.238     0.238    -0.000
     In    18      Py                   0.240     0.240    -0.000
     In    18      Pz                   0.241     0.241     0.000
     In    18      S                   -0.266    -0.270     0.004
     In    19      Dzz                  0.999     0.999     0.000
     In    19      Dzy                  0.998     0.998     0.000
     In    19      Dzx                  0.998     0.998     0.000
     In    19      Dxx-yy               0.999     0.999     0.000
     In    19      Dxy                  0.998     0.998     0.000
     In    19      S                    0.712     0.720    -0.008
     In    19      Px                   0.240     0.253    -0.013
     In    19      Py                   0.242     0.254    -0.012
     In    19      Pz                   0.242     0.246    -0.004
     In    19      S                   -0.269    -0.274     0.005
     In    20      Dzz                  1.000     1.000     0.000
     In    20      Dzy                  0.998     0.998     0.000
     In    20      Dzx                  0.998     0.998     0.000
     In    20      Dxx-yy               1.000     1.000     0.000
     In    20      Dxy                  0.998     0.998     0.000
     In    20      S                    0.714     0.714     0.000
     In    20      Px                   0.240     0.239     0.000
     In    20      Py                   0.241     0.241    -0.000
     In    20      Pz                   0.240     0.241    -0.000
     In    20      S                   -0.266    -0.265    -0.001
     In    21      Dzz                  1.000     1.000     0.000
     In    21      Dzy                  0.999     0.999     0.000
     In    21      Dzx                  0.999     0.999     0.000
     In    21      Dxx-yy               1.000     1.000    -0.000
     In    21      Dxy                  0.998     0.998     0.000
     In    21      S                    0.709     0.709    -0.001
     In    21      Px                   0.239     0.240    -0.001
     In    21      Py                   0.241     0.242    -0.001
     In    21      Pz                   0.232     0.233    -0.002
     In    21      S                   -0.262    -0.265     0.004
     In    22      Dzz                  1.000     1.000     0.000
     In    22      Dzy                  0.998     0.998     0.000
     In    22      Dzx                  0.998     0.998     0.000
     In    22      Dxx-yy               1.000     1.000     0.000
     In    22      Dxy                  0.998     0.998     0.000
     In    22      S                    0.708     0.709    -0.000
     In    22      Px                   0.239     0.239    -0.000
     In    22      Py                   0.248     0.247     0.000
     In    22      Pz                   0.240     0.240    -0.000
     In    22      S                   -0.264    -0.266     0.002
     In    23      Dzz                  1.000     1.000     0.000
     In    23      Dzy                  0.998     0.998     0.000
     In    23      Dzx                  0.998     0.998     0.000
     In    23      Dxx-yy               1.000     1.000     0.000
     In    23      Dxy                  0.998     0.998     0.000
     In    23      S                    0.710     0.710    -0.000
     In    23      Px                   0.239     0.240    -0.000
     In    23      Py                   0.240     0.240    -0.000
     In    23      Pz                   0.237     0.237    -0.000
     In    23      S                   -0.275    -0.273    -0.003
     In    24      Dzz                  1.000     1.000     0.000
     In    24      Dzy                  0.998     0.998     0.000
     In    24      Dzx                  0.998     0.998    -0.000
     In    24      Dxx-yy               1.000     1.000     0.000
     In    24      Dxy                  0.998     0.998     0.000
     In    24      S                    0.713     0.708     0.005
     In    24      Px                   0.238     0.237     0.001
     In    24      Py                   0.252     0.247     0.005
     In    24      Pz                   0.242     0.240     0.002
     In    24      S                   -0.267    -0.263    -0.004
     In    25      Dzz                  1.000     1.000     0.000
     In    25      Dzy                  0.998     0.998     0.000
     In    25      Dzx                  0.998     0.998     0.000
     In    25      Dxx-yy               1.000     1.000     0.000
     In    25      Dxy                  0.998     0.998     0.000
     In    25      S                    0.714     0.714    -0.000
     In    25      Px                   0.240     0.240    -0.000
     In    25      Py                   0.240     0.240     0.000
     In    25      Pz                   0.240     0.240    -0.000
     In    25      S                   -0.265    -0.265    -0.000
     In    26      Dzz                  1.000     1.000     0.000
     In    26      Dzy                  0.998     0.998     0.000
     In    26      Dzx                  0.998     0.998    -0.000
     In    26      Dxx-yy               1.000     1.000     0.000
     In    26      Dxy                  0.998     0.998     0.000
     In    26      S                    0.705     0.706    -0.000
     In    26      Px                   0.240     0.240    -0.000
     In    26      Py                   0.240     0.240    -0.000
     In    26      Pz                   0.246     0.246    -0.000
     In    26      S                   -0.261    -0.260    -0.002
     In    27      Dzz                  1.000     1.000     0.000
     In    27      Dzy                  0.998     0.998     0.000
     In    27      Dzx                  0.998     0.998     0.000
     In    27      Dxx-yy               1.000     1.000     0.000
     In    27      Dxy                  0.999     0.999     0.000
     In    27      S                    0.711     0.710     0.001
     In    27      Px                   0.240     0.240    -0.000
     In    27      Py                   0.238     0.239    -0.000
     In    27      Pz                   0.242     0.242     0.000
     In    27      S                   -0.266    -0.272     0.006
     In    28      Dzz                  1.000     1.000     0.000
     In    28      Dzy                  0.998     0.998     0.000
     In    28      Dzx                  0.998     0.998     0.000
     In    28      Dxx-yy               1.000     1.000    -0.000
     In    28      Dxy                  0.998     0.998     0.000
     In    28      S                    0.707     0.707     0.000
     In    28      Px                   0.240     0.240    -0.000
     In    28      Py                   0.240     0.240    -0.000
     In    28      Pz                   0.241     0.241    -0.000
     In    28      S                   -0.264    -0.265     0.001
     In    29      Dzz                  0.999     0.999    -0.000
     In    29      Dzy                  0.998     0.998    -0.000
     In    29      Dzx                  0.998     0.998     0.000
     In    29      Dxx-yy               1.000     1.000    -0.000
     In    29      Dxy                  0.998     0.998     0.000
     In    29      S                    0.714     0.708     0.006
     In    29      Px                   0.252     0.247     0.005
     In    29      Py                   0.239     0.237     0.002
     In    29      Pz                   0.242     0.240     0.002
     In    29      S                   -0.268    -0.262    -0.005
     In    30      Dzz                  1.000     1.000    -0.000
     In    30      Dzy                  0.998     0.998     0.000
     In    30      Dzx                  0.998     0.998     0.000
     In    30      Dxx-yy               1.000     1.000     0.000
     In    30      Dxy                  0.998     0.998    -0.000
     In    30      S                    0.707     0.707    -0.000
     In    30      Px                   0.241     0.241    -0.000
     In    30      Py                   0.241     0.241    -0.000
     In    30      Pz                   0.243     0.243    -0.000
     In    30      S                   -0.265    -0.265    -0.000
     In    31      Dzz                  0.999     0.999     0.000
     In    31      Dzy                  0.998     0.998    -0.000
     In    31      Dzx                  0.998     0.998     0.000
     In    31      Dxx-yy               0.999     0.999     0.000
     In    31      Dxy                  0.998     0.998     0.000
     In    31      S                    0.713     0.712     0.001
     In    31      Px                   0.252     0.248     0.004
     In    31      Py                   0.241     0.241     0.000
     In    31      Pz                   0.239     0.239     0.000
     In    31      S                   -0.271    -0.271    -0.001
     In    32      Dzz                  1.000     1.000     0.000
     In    32      Dzy                  0.998     0.998     0.000
     In    32      Dzx                  0.998     0.998     0.000
     In    32      Dxx-yy               1.000     1.000    -0.000
     In    32      Dxy                  0.998     0.998     0.000
     In    32      S                    0.706     0.706    -0.000
     In    32      Px                   0.240     0.241    -0.000
     In    32      Py                   0.242     0.242    -0.000
     In    32      Pz                   0.243     0.243     0.000
     In    32      S                   -0.265    -0.266     0.001
  ---------------------------------------------------------------
                           Total:     290.999   290.000     0.999
  ---------------------------------------------------------------

     Atomic Populations (Mulliken)
     -----------------------------
Species          Ion Spin      s       p       d       f      Total   Charge(e)   Spin(hbar/2)
==============================================================================================
  P               1   up:     0.867   1.965   0.000   0.000   2.832    -0.662        0.002
                  1   dn:     0.867   1.963   0.000   0.000   2.830
  P               2   up:     0.884   2.171   0.000   0.000   3.055    -0.398        0.712
                  2   dn:     0.856   1.487   0.000   0.000   2.343
  P               3   up:     0.868   1.964   0.000   0.000   2.833    -0.668       -0.003
                  3   dn:     0.869   1.967   0.000   0.000   2.835
  P               4   up:     0.868   1.970   0.000   0.000   2.838    -0.662        0.014
                  4   dn:     0.865   1.959   0.000   0.000   2.824
  P               5   up:     0.868   1.980   0.000   0.000   2.848    -0.657        0.040
                  5   dn:     0.865   1.944   0.000   0.000   2.808
  P               6   up:     0.867   1.971   0.000   0.000   2.838    -0.676       -0.000
                  6   dn:     0.867   1.971   0.000   0.000   2.838
  P               7   up:     0.867   1.969   0.000   0.000   2.836    -0.673       -0.000
                  7   dn:     0.867   1.970   0.000   0.000   2.837
  P               8   up:     0.867   1.975   0.000   0.000   2.842    -0.676        0.009
                  8   dn:     0.867   1.967   0.000   0.000   2.833
  P               9   up:     0.867   1.970   0.000   0.000   2.837    -0.674        0.000
                  9   dn:     0.867   1.970   0.000   0.000   2.837
  P              10   up:     0.867   1.972   0.000   0.000   2.839    -0.678       -0.000
                 10   dn:     0.867   1.972   0.000   0.000   2.839
  P              11   up:     0.871   1.946   0.000   0.000   2.817    -0.634       -0.000
                 11   dn:     0.871   1.946   0.000   0.000   2.817
  P              12   up:     0.868   1.975   0.000   0.000   2.843    -0.668        0.017
                 12   dn:     0.866   1.960   0.000   0.000   2.825
  P              13   up:     0.867   1.970   0.000   0.000   2.837    -0.674        0.000
                 13   dn:     0.867   1.970   0.000   0.000   2.837
  P              14   up:     0.863   1.985   0.000   0.000   2.848    -0.681        0.015
                 14   dn:     0.862   1.971   0.000   0.000   2.833
  P              15   up:     0.866   1.970   0.000   0.000   2.837    -0.674       -0.001
                 15   dn:     0.867   1.971   0.000   0.000   2.837
  P              16   up:     0.868   1.979   0.000   0.000   2.846    -0.659        0.034
                 16   dn:     0.864   1.948   0.000   0.000   2.812
  P              17   up:     0.868   1.977   0.000   0.000   2.845    -0.666        0.023
                 17   dn:     0.864   1.957   0.000   0.000   2.822
  P              18   up:     0.867   1.972   0.000   0.000   2.839    -0.678       -0.000
                 18   dn:     0.867   1.972   0.000   0.000   2.839
  P              19   up:     0.868   1.969   0.000   0.000   2.837    -0.673       -0.000
                 19   dn:     0.868   1.969   0.000   0.000   2.837
  P              20   up:     0.867   1.971   0.000   0.000   2.837    -0.674        0.001
                 20   dn:     0.867   1.970   0.000   0.000   2.837
  P              21   up:     0.867   1.973   0.000   0.000   2.840    -0.676        0.003
                 21   dn:     0.867   1.970   0.000   0.000   2.837
  P              22   up:     0.863   1.984   0.000   0.000   2.847    -0.681        0.013
                 22   dn:     0.862   1.972   0.000   0.000   2.834
  P              23   up:     0.866   1.971   0.000   0.000   2.837    -0.675        0.000
                 23   dn:     0.866   1.971   0.000   0.000   2.837
  P              24   up:     0.866   1.971   0.000   0.000   2.837    -0.675        0.000
                 24   dn:     0.867   1.971   0.000   0.000   2.837
  P              25   up:     0.867   1.971   0.000   0.000   2.838    -0.674        0.001
                 25   dn:     0.867   1.970   0.000   0.000   2.837
  P              26   up:     0.865   1.974   0.000   0.000   2.839    -0.678       -0.000
                 26   dn:     0.865   1.974   0.000   0.000   2.839
  P              27   up:     0.868   1.967   0.000   0.000   2.835    -0.671       -0.000
                 27   dn:     0.868   1.967   0.000   0.000   2.836
  P              28   up:     0.867   1.970   0.000   0.000   2.837    -0.674        0.000
                 28   dn:     0.867   1.970   0.000   0.000   2.837
  P              29   up:     0.867   1.971   0.000   0.000   2.837    -0.675       -0.000
                 29   dn:     0.867   1.971   0.000   0.000   2.837
  P              30   up:     0.868   1.969   0.000   0.000   2.837    -0.674       -0.000
                 30   dn:     0.868   1.970   0.000   0.000   2.837
  P              31   up:     0.867   1.970   0.000   0.000   2.837    -0.673       -0.000
                 31   dn:     0.867   1.970   0.000   0.000   2.837
  P              32   up:     0.867   1.970   0.000   0.000   2.837    -0.674       -0.000
                 32   dn:     0.867   1.970   0.000   0.000   2.837
  P              33   up:     0.879   1.911   0.000   0.000   2.789    -0.518        0.061
                 33   dn:     0.878   1.851   0.000   0.000   2.729
  In              1   up:     0.449   0.713   4.995   0.000   6.156     0.683       -0.004
                  1   dn:     0.452   0.714   4.995   0.000   6.160
  In              2   up:     0.429   0.691   4.994   0.000   6.114     0.744       -0.028
                  2   dn:     0.433   0.716   4.994   0.000   6.142
  In              3   up:     0.446   0.719   4.995   0.000   6.160     0.687        0.006
                  3   dn:     0.439   0.720   4.995   0.000   6.154
  In              4   up:     0.449   0.734   4.994   0.000   6.177     0.684        0.037
                  4   dn:     0.432   0.715   4.993   0.000   6.140
  In              5   up:     0.442   0.731   4.994   0.000   6.168     0.669        0.004
                  5   dn:     0.443   0.727   4.994   0.000   6.164
  In              6   up:     0.447   0.715   4.995   0.000   6.156     0.685       -0.003
                  6   dn:     0.448   0.716   4.995   0.000   6.159
  In              7   up:     0.440   0.733   4.994   0.000   6.167     0.668        0.003
                  7   dn:     0.442   0.729   4.994   0.000   6.165
  In              8   up:     0.453   0.711   4.995   0.000   6.159     0.689        0.008
                  8   dn:     0.442   0.715   4.995   0.000   6.151
  In              9   up:     0.444   0.723   4.995   0.000   6.161     0.679        0.001
                  9   dn:     0.443   0.723   4.995   0.000   6.160
  In             10   up:     0.446   0.717   4.995   0.000   6.158     0.686        0.002
                 10   dn:     0.443   0.718   4.995   0.000   6.156
  In             11   up:     0.454   0.733   4.994   0.000   6.181     0.637       -0.001
                 11   dn:     0.455   0.733   4.994   0.000   6.182
  In             12   up:     0.447   0.712   4.995   0.000   6.154     0.684       -0.007
                 12   dn:     0.453   0.714   4.995   0.000   6.161
  In             13   up:     0.439   0.725   4.995   0.000   6.159     0.681       -0.002
                 13   dn:     0.441   0.725   4.995   0.000   6.160
  In             14   up:     0.443   0.726   4.994   0.000   6.163     0.674        0.001
                 14   dn:     0.443   0.725   4.994   0.000   6.162
  In             15   up:     0.440   0.724   4.995   0.000   6.159     0.683        0.000
                 15   dn:     0.440   0.724   4.995   0.000   6.159
  In             16   up:     0.443   0.730   4.994   0.000   6.167     0.673        0.007
                 16   dn:     0.442   0.724   4.994   0.000   6.160
  In             17   up:     0.449   0.740   4.994   0.000   6.182     0.671        0.036
                 17   dn:     0.435   0.718   4.993   0.000   6.146
  In             18   up:     0.445   0.719   4.995   0.000   6.159     0.687        0.004
                 18   dn:     0.441   0.719   4.995   0.000   6.154
  In             19   up:     0.444   0.724   4.993   0.000   6.161     0.648       -0.031
                 19   dn:     0.446   0.753   4.992   0.000   6.192
  In             20   up:     0.448   0.720   4.995   0.000   6.163     0.674       -0.001
                 20   dn:     0.448   0.721   4.995   0.000   6.164
  In             21   up:     0.447   0.712   4.995   0.000   6.154     0.692       -0.000
                 21   dn:     0.444   0.715   4.995   0.000   6.154
  In             22   up:     0.444   0.726   4.994   0.000   6.164     0.673        0.001
                 22   dn:     0.442   0.726   4.994   0.000   6.163
  In             23   up:     0.435   0.716   4.995   0.000   6.146     0.706       -0.003
                 23   dn:     0.437   0.716   4.995   0.000   6.149
  In             24   up:     0.446   0.732   4.994   0.000   6.172     0.666        0.010
                 24   dn:     0.445   0.723   4.994   0.000   6.162
  In             25   up:     0.448   0.720   4.995   0.000   6.163     0.673       -0.001
                 25   dn:     0.449   0.721   4.995   0.000   6.164
  In             26   up:     0.444   0.725   4.994   0.000   6.163     0.671       -0.002
                 26   dn:     0.446   0.725   4.994   0.000   6.166
  In             27   up:     0.445   0.720   4.995   0.000   6.159     0.688        0.006
                 27   dn:     0.438   0.720   4.995   0.000   6.153
  In             28   up:     0.443   0.722   4.995   0.000   6.160     0.681        0.001
                 28   dn:     0.442   0.722   4.995   0.000   6.159
  In             29   up:     0.446   0.734   4.994   0.000   6.173     0.663        0.010
                 29   dn:     0.446   0.724   4.994   0.000   6.163
  In             30   up:     0.442   0.724   4.995   0.000   6.160     0.679       -0.000
                 30   dn:     0.442   0.724   4.995   0.000   6.161
  In             31   up:     0.441   0.733   4.994   0.000   6.168     0.668        0.005
                 31   dn:     0.441   0.729   4.994   0.000   6.164
  In             32   up:     0.441   0.725   4.995   0.000   6.160     0.680        0.000
                 32   dn:     0.440   0.725   4.994   0.000   6.160
==============================================================================================

                 Bond                   Population        Spin       Length (A)
================================================================================
              P 2  -- P 33                   0.53        -0.09          2.08894
              P 2  -- In 19                  0.73        -0.02          2.46211
              P 33 -- In 17                  0.72         0.04          2.49663
              P 19 -- In 19                  0.69         0.00          2.50771
              P 33 -- In 4                   0.71         0.05          2.50779
              P 16 -- In 31                  0.66         0.00          2.51262
              P 5  -- In 7                   0.66         0.00          2.51340
              P 14 -- In 29                  0.67        -0.00          2.51614
              P 22 -- In 24                  0.67        -0.00          2.51656
              P 21 -- In 17                  0.65        -0.00          2.51725
              P 4  -- In 29                  0.65        -0.00          2.51768
              P 14 -- In 31                  0.67        -0.00          2.51961
              P 22 -- In 7                   0.66        -0.00          2.52051
              P 17 -- In 24                  0.65        -0.00          2.52070
              P 22 -- In 5                   0.67        -0.00          2.52251
              P 8  -- In 4                   0.65        -0.01          2.52293
              P 14 -- In 16                  0.67        -0.00          2.52576
              P 12 -- In 2                   0.64         0.00          2.52615
              P 2  -- In 2                   0.63        -0.02          2.52822
              P 22 -- In 22                  0.67        -0.00          2.52880
              P 1  -- In 5                   0.63        -0.00          2.52998
              P 26 -- In 26                  0.68        -0.00          2.53096
              P 14 -- In 14                  0.67        -0.00          2.53156
              P 1  -- In 2                   0.63         0.01          2.53188
              P 26 -- In 11                  0.64        -0.00          2.53270
              P 12 -- In 16                  0.63        -0.00          2.53425
              P 17 -- In 19                  0.60         0.00          2.53594
              P 18 -- In 20                  0.66         0.00          2.54160
              P 21 -- In 22                  0.62         0.00          2.54190
              P 10 -- In 25                  0.66         0.00          2.54203
              P 11 -- In 11                  0.59         0.00          2.54207
              P 27 -- In 17                  0.66        -0.00          2.54370
              P 8  -- In 14                  0.63         0.00          2.54433
              P 28 -- In 32                  0.67         0.00          2.54435
              P 9  -- In 13                  0.67         0.00          2.54494
              P 7  -- In 13                  0.67         0.00          2.54514
              P 7  -- In 7                   0.65        -0.00          2.54516
              P 31 -- In 32                  0.67         0.00          2.54531
              P 31 -- In 31                  0.65        -0.00          2.54565
              P 5  -- In 4                   0.60        -0.03          2.54579
              P 17 -- In 18                  0.67        -0.00          2.54623
              P 26 -- In 28                  0.67         0.00          2.54625
              P 11 -- In 2                   0.68         0.00          2.54634
              P 12 -- In 27                  0.67        -0.00          2.54640
              P 1  -- In 3                   0.68        -0.00          2.54646
              P 15 -- In 15                  0.66         0.00          2.54649
              P 28 -- In 5                   0.66        -0.00          2.54657
              P 16 -- In 17                  0.59        -0.02          2.54660
              P 23 -- In 30                  0.66         0.00          2.54671
              P 24 -- In 30                  0.67        -0.00          2.54683
              P 26 -- In 9                   0.67         0.00          2.54730
              P 20 -- In 26                  0.66         0.00          2.54734
              P 24 -- In 20                  0.66         0.00          2.54735
              P 9  -- In 16                  0.66        -0.00          2.54741
              P 29 -- In 30                  0.67        -0.00          2.54742
              P 3  -- In 4                   0.67         0.00          2.54789
              P 20 -- In 24                  0.66        -0.00          2.54791
              P 25 -- In 26                  0.66         0.00          2.54801
              P 32 -- In 22                  0.67        -0.00          2.54806
              P 6  -- In 21                  0.65         0.00          2.54835
              P 31 -- In 22                  0.67        -0.00          2.54838
              P 29 -- In 25                  0.66         0.00          2.54841
              P 4  -- In 10                  0.68        -0.00          2.54842
              P 10 -- In 27                  0.65        -0.00          2.54842
              P 7  -- In 14                  0.67        -0.00          2.54859
              P 25 -- In 32                  0.66         0.00          2.54873
              P 32 -- In 28                  0.66        -0.00          2.54888
              P 13 -- In 14                  0.67         0.00          2.54896
              P 23 -- In 23                  0.67         0.00          2.54903
              P 24 -- In 7                   0.66         0.00          2.54911
              P 25 -- In 29                  0.66        -0.00          2.54929
              P 20 -- In 13                  0.66         0.00          2.54933
              P 29 -- In 31                  0.66         0.00          2.54977
              P 6  -- In 8                   0.65         0.00          2.54994
              P 23 -- In 24                  0.66         0.00          2.55009
              P 13 -- In 9                   0.66        -0.00          2.55018
              P 4  -- In 19                  0.58         0.00          2.55022
              P 5  -- In 1                   0.68         0.00          2.55039
              P 15 -- In 6                   0.66         0.00          2.55098
              P 18 -- In 3                   0.65         0.00          2.55102
              P 16 -- In 12                  0.68         0.00          2.55102
              P 15 -- In 5                   0.66        -0.00          2.55133
              P 15 -- In 16                  0.67         0.00          2.55137
              P 23 -- In 29                  0.65        -0.00          2.55164
              P 13 -- In 15                  0.67        -0.00          2.55193
              P 21 -- In 20                  0.65         0.00          2.55260
              P 18 -- In 18                  0.65        -0.00          2.55283
              P 32 -- In 15                  0.67        -0.00          2.55292
              P 8  -- In 25                  0.65         0.00          2.55328
              P 12 -- In 21                  0.65         0.00          2.55414
              P 18 -- In 1                   0.64         0.00          2.55419
              P 30 -- In 15                  0.66        -0.00          2.55422
              P 30 -- In 30                  0.66        -0.00          2.55433
              P 8  -- In 23                  0.69        -0.00          2.55437
              P 6  -- In 23                  0.66        -0.00          2.55455
              P 19 -- In 26                  0.62        -0.00          2.55456
              P 21 -- In 23                  0.69        -0.00          2.55485
              P 10 -- In 12                  0.64        -0.00          2.55488
              P 16 -- In 6                   0.66        -0.00          2.55498
              P 10 -- In 10                  0.65         0.00          2.55581
              P 9  -- In 11                  0.65         0.00          2.55608
              P 17 -- In 21                  0.67         0.00          2.55618
              P 5  -- In 6                   0.65        -0.00          2.55630
              P 28 -- In 11                  0.65         0.00          2.55636
              P 29 -- In 28                  0.65        -0.00          2.55648
              P 4  -- In 8                   0.66        -0.00          2.55681
              P 30 -- In 32                  0.66        -0.00          2.55685
              P 30 -- In 13                  0.66         0.00          2.55689
              P 24 -- In 9                   0.65        -0.00          2.55720
              P 1  -- In 8                   0.65        -0.00          2.55722
              P 3  -- In 9                   0.64        -0.00          2.55742
              P 28 -- In 18                  0.66         0.00          2.55780
              P 25 -- In 27                  0.66        -0.00          2.55822
              P 3  -- In 3                   0.66        -0.00          2.55897
              P 27 -- In 27                  0.66         0.00          2.55933
              P 20 -- In 3                   0.66         0.00          2.55973
              P 27 -- In 28                  0.64         0.00          2.55991
              P 6  -- In 6                   0.65        -0.00          2.56014
              P 19 -- In 20                  0.65        -0.00          2.56089
              P 9  -- In 10                  0.65         0.00          2.56130
              P 32 -- In 1                   0.64         0.00          2.56152
              P 27 -- In 18                  0.65         0.00          2.56188
              P 19 -- In 25                  0.65        -0.00          2.56275
              P 13 -- In 12                  0.64         0.00          2.56302
              P 11 -- In 1                   0.66        -0.00          2.56415
              P 3  -- In 10                  0.65         0.00          2.56447
              P 11 -- In 12                  0.65         0.00          2.56476
              P 7  -- In 8                   0.64         0.00          2.56910
              P 31 -- In 21                  0.64         0.00          2.56922
================================================================================

 Hirshfeld supercell size:           2           2           2
Standard grid dimensions: 240 240 240
Fine grid dimensions:     240 240 240


     Hirshfeld Analysis
     ------------------
Species   Ion     Hirshfeld Charge (e)  Spin (hbar/2)
===================================================
  P        1                -0.24        0.01
  P        2                -0.13        0.52
  P        3                -0.23        0.00
  P        4                -0.24        0.02
  P        5                -0.24        0.03
  P        6                -0.23       -0.00
  P        7                -0.24       -0.00
  P        8                -0.24        0.01
  P        9                -0.24        0.00
  P       10                -0.24       -0.00
  P       11                -0.23       -0.00
  P       12                -0.23        0.02
  P       13                -0.24        0.00
  P       14                -0.24        0.01
  P       15                -0.24        0.00
  P       16                -0.24        0.03
  P       17                -0.24        0.03
  P       18                -0.24       -0.00
  P       19                -0.23       -0.00
  P       20                -0.24        0.00
  P       21                -0.24        0.00
  P       22                -0.24        0.01
  P       23                -0.24        0.00
  P       24                -0.24        0.00
  P       25                -0.24        0.00
  P       26                -0.24       -0.00
  P       27                -0.23        0.00
  P       28                -0.24        0.00
  P       29                -0.24        0.00
  P       30                -0.24       -0.00
  P       31                -0.24        0.00
  P       32                -0.24        0.00
  P       33                -0.20        0.10
  In       1                 0.25        0.00
  In       2                 0.25        0.02
  In       3                 0.25        0.00
  In       4                 0.24        0.04
  In       5                 0.23        0.00
  In       6                 0.25        0.00
  In       7                 0.23        0.01
  In       8                 0.25        0.00
  In       9                 0.24        0.00
  In      10                 0.25        0.00
  In      11                 0.23       -0.00
  In      12                 0.25        0.00
  In      13                 0.23        0.00
  In      14                 0.24        0.00
  In      15                 0.24        0.00
  In      16                 0.23        0.01
  In      17                 0.23        0.04
  In      18                 0.25        0.00
  In      19                 0.23        0.02
  In      20                 0.24        0.00
  In      21                 0.25        0.00
  In      22                 0.23        0.00
  In      23                 0.25        0.00
  In      24                 0.23        0.01
  In      25                 0.25        0.00
  In      26                 0.23       -0.00
  In      27                 0.25        0.00
  In      28                 0.24        0.00
  In      29                 0.23        0.01
  In      30                 0.24        0.00
  In      31                 0.23        0.01
  In      32                 0.23        0.00
===================================================

 
 A BibTeX formatted list of references used in this run has been written to 
 P_Interstitial_Migration_Dumbbell_Dumbbell+_Singlepoints_3.bib
 
Initialisation time =     32.96 s
Calculation time    =   7890.21 s
Finalisation time   =    164.23 s
Total time          =   8087.40 s
Peak Memory Use     = 9591680 kB
 
Overall parallel efficiency rating: Terrible (34%)
 
Data was distributed by:-
G-vector (3-way); efficiency rating: Poor (37%)
k-point (36-way); efficiency rating: Very good (82%)
