8
Lattice="6.66 0.0 0.0 0.0 6.66 0.0 0.0 0.0 6.66" Properties=species:S:1:pos:R:3:forces:R:3 energy=-33.82804203 stress="0.0677900292576782 0.0 0.0 0.0 0.0677900292576782 0.0 0.0 0.0 0.0677900292576782" pbc="T T T"
In       0.00000000       0.00000000       0.00000000      -0.00000000      -0.00000000      -0.00000000
In       3.33000000       0.00000000       3.33000000       0.00000000       0.00000000      -0.00000000
In       0.00000000       3.33000000       3.33000000      -0.00000000       0.00000000      -0.00000000
In       3.33000000       3.33000000       0.00000000      -0.00000000       0.00000000      -0.00000000
P        1.66500000       1.66500000       4.99500000       0.00000000      -0.00000000       0.00000000
P        4.99500000       1.66500000       1.66500000       0.00000000      -0.00000000       0.00000000
P        1.66500000       4.99500000       1.66500000       0.00000000      -0.00000000       0.00000000
P        4.99500000       4.99500000       4.99500000       0.00000000      -0.00000000       0.00000000
