8
Lattice="4.89 0.0 0.0 0.0 4.89 0.0 0.0 0.0 4.89" Properties=species:S:1:pos:R:3:forces:R:3 energy=-19.58971605 stress="-0.7544011217667619 -0.0 0.0 -0.0 -0.7544011217667619 -0.0 0.0 -0.0 -0.7544011217667619" pbc="T T T"
In       0.00000000       0.00000000       0.00000000      -0.00000000       0.00000000      -0.00000000
In       2.44500000       0.00000000       2.44500000      -0.00000000      -0.00000000      -0.00000000
In       0.00000000       2.44500000       2.44500000       0.00000000      -0.00000000      -0.00000000
In       2.44500000       2.44500000       0.00000000       0.00000000       0.00000000      -0.00000000
P        1.22250000       1.22250000       3.66750000       0.00000000       0.00000000       0.00000000
P        3.66750000       1.22250000       1.22250000       0.00000000       0.00000000       0.00000000
P        1.22250000       3.66750000       1.22250000       0.00000000       0.00000000       0.00000000
P        3.66750000       3.66750000       3.66750000       0.00000000       0.00000000       0.00000000
