8
Lattice="5.68 0.0 0.0 0.0 5.68 0.0 0.0 0.0 5.68" Properties=species:S:1:pos:R:3:forces:R:3 energy=-38.44178079 stress="-0.041196038653368426 -0.0 0.0 -0.0 -0.041196038653368426 -0.0 0.0 -0.0 -0.041196038653368426" pbc="T T T"
In       0.00000000       0.00000000       0.00000000      -0.00000000       0.00000000       0.00000000
In       2.84000000       0.00000000       2.84000000       0.00000000      -0.00000000       0.00000000
In       0.00000000       2.84000000       2.84000000       0.00000000      -0.00000000       0.00000000
In       2.84000000       2.84000000       0.00000000       0.00000000       0.00000000       0.00000000
P        1.42000000       1.42000000       4.26000000      -0.00000000       0.00000000      -0.00000000
P        4.26000000       1.42000000       1.42000000      -0.00000000       0.00000000      -0.00000000
P        1.42000000       4.26000000       1.42000000      -0.00000000      -0.00000000      -0.00000000
P        4.26000000       4.26000000       4.26000000      -0.00000000      -0.00000000      -0.00000000
