8
Lattice="5.92 0.0 0.0 0.0 5.92 0.0 0.0 0.0 5.92" Properties=species:S:1:pos:R:3:forces:R:3 energy=-38.63763952 stress="0.01865015355490575 -0.0 0.0 -0.0 0.01865015355490575 0.0 0.0 0.0 0.01865015355490575" pbc="T T T"
In       0.00000000       0.00000000       0.00000000       0.00000000       0.00000000       0.00000000
In       2.96000000       0.00000000       2.96000000      -0.00000000       0.00000000       0.00000000
In       0.00000000       2.96000000       2.96000000      -0.00000000      -0.00000000      -0.00000000
In       2.96000000       2.96000000       0.00000000       0.00000000       0.00000000      -0.00000000
P        1.48000000       1.48000000       4.44000000       0.00000000       0.00000000      -0.00000000
P        4.44000000       1.48000000       1.48000000       0.00000000       0.00000000       0.00000000
P        1.48000000       4.44000000       1.48000000       0.00000000       0.00000000      -0.00000000
P        4.44000000       4.44000000       4.44000000      -0.00000000      -0.00000000       0.00000000
