8
Lattice="5.21 0.0 0.0 0.0 5.21 0.0 0.0 0.0 5.21" Properties=species:S:1:pos:R:3:forces:R:3 energy=-32.04448224 stress="-0.3199692926139595 0.0 0.0 0.0 -0.3199692926139595 -0.0 0.0 -0.0 -0.3199692926139595" pbc="T T T"
In       0.00000000       0.00000000       0.00000000       0.00000000      -0.00000000       0.00000000
In       2.60500000       0.00000000       2.60500000       0.00000000       0.00000000       0.00000000
In       0.00000000       2.60500000       2.60500000       0.00000000       0.00000000       0.00000000
In       2.60500000       2.60500000       0.00000000       0.00000000      -0.00000000       0.00000000
P        1.30250000       1.30250000       3.90750000      -0.00000000      -0.00000000      -0.00000000
P        3.90750000       1.30250000       1.30250000      -0.00000000      -0.00000000      -0.00000000
P        1.30250000       3.90750000       1.30250000      -0.00000000      -0.00000000      -0.00000000
P        3.90750000       3.90750000       3.90750000      -0.00000000      -0.00000000      -0.00000000
