8
Lattice="5.52 0.0 0.0 0.0 5.52 0.0 0.0 0.0 5.52" Properties=species:S:1:pos:R:3:forces:R:3 energy=-37.36679872 stress="-0.10564208577421778 -0.0 -0.0 -0.0 -0.10564208577421778 -0.0 -0.0 -0.0 -0.10564208577421778" pbc="T T T"
In       0.00000000       0.00000000       0.00000000      -0.00000000      -0.00000000      -0.00000000
In       2.76000000       0.00000000       2.76000000       0.00000000      -0.00000000      -0.00000000
In       0.00000000       2.76000000       2.76000000       0.00000000       0.00000000       0.00000000
In       2.76000000       2.76000000       0.00000000      -0.00000000       0.00000000      -0.00000000
P        1.38000000       1.38000000       4.14000000      -0.00000000      -0.00000000       0.00000000
P        4.14000000       1.38000000       1.38000000      -0.00000000      -0.00000000       0.00000000
P        1.38000000       4.14000000       1.38000000       0.00000000      -0.00000000       0.00000000
P        4.14000000       4.14000000       4.14000000       0.00000000      -0.00000000      -0.00000000
