8
Lattice="6.8 0.0 0.0 0.0 6.8 0.0 0.0 0.0 6.8" Properties=species:S:1:pos:R:3:forces:R:3 energy=-32.54515815 stress="0.0670486877697423 -0.0 0.0 -0.0 0.0670486877697423 -0.0 0.0 -0.0 0.0670486877697423" pbc="T T T"
In       0.00000000       0.00000000       0.00000000       0.00000000      -0.00000000       0.00000000
In       3.40000000       0.00000000       3.40000000      -0.00000000       0.00000000       0.00000000
In       0.00000000       3.40000000       3.40000000      -0.00000000       0.00000000      -0.00000000
In       3.40000000       3.40000000       0.00000000       0.00000000       0.00000000       0.00000000
P        1.70000000       1.70000000       5.10000000       0.00000000      -0.00000000       0.00000000
P        5.10000000       1.70000000       1.70000000       0.00000000      -0.00000000      -0.00000000
P        1.70000000       5.10000000       1.70000000       0.00000000      -0.00000000      -0.00000000
P        5.10000000       5.10000000       5.10000000       0.00000000      -0.00000000       0.00000000
