8
Lattice="4.78 0.0 0.0 0.0 4.78 0.0 0.0 0.0 4.78" Properties=species:S:1:pos:R:3:forces:R:3 energy=-12.91385694 stress="-0.985575172861741 0.0 -0.0 0.0 -0.985575172861741 0.0 -0.0 0.0 -0.985575172861741" pbc="T T T"
In       0.00000000       0.00000000       0.00000000       0.00000000      -0.00000000       0.00000000
In       2.39000000       0.00000000       2.39000000      -0.00000000      -0.00000000       0.00000000
In       0.00000000       2.39000000       2.39000000       0.00000000      -0.00000000      -0.00000000
In       2.39000000       2.39000000       0.00000000       0.00000000       0.00000000      -0.00000000
P        1.19500000       1.19500000       3.58500000      -0.00000000       0.00000000       0.00000000
P        3.58500000       1.19500000       1.19500000      -0.00000000       0.00000000       0.00000000
P        1.19500000       3.58500000       1.19500000      -0.00000000       0.00000000       0.00000000
P        3.58500000       3.58500000       3.58500000      -0.00000000       0.00000000       0.00000000
