8
Lattice="6.69 0.0 0.0 0.0 6.69 0.0 0.0 0.0 6.69" Properties=species:S:1:pos:R:3:forces:R:3 energy=-33.55659435 stress="0.06782131170141713 -0.0 -0.0 -0.0 0.06782131170141713 0.0 -0.0 0.0 0.06782131170141713" pbc="T T T"
In       0.00000000       0.00000000       0.00000000      -0.00000000       0.00000000      -0.00000000
In       3.34500000       0.00000000       3.34500000      -0.00000000      -0.00000000       0.00000000
In       0.00000000       3.34500000       3.34500000       0.00000000       0.00000000      -0.00000000
In       3.34500000       3.34500000       0.00000000       0.00000000       0.00000000       0.00000000
P        1.67250000       1.67250000       5.01750000      -0.00000000       0.00000000       0.00000000
P        5.01750000       1.67250000       1.67250000      -0.00000000      -0.00000000      -0.00000000
P        1.67250000       5.01750000       1.67250000      -0.00000000      -0.00000000       0.00000000
P        5.01750000       5.01750000       5.01750000      -0.00000000       0.00000000      -0.00000000
