8
Lattice="4.8 0.0 0.0 0.0 4.8 0.0 0.0 0.0 4.8" Properties=species:S:1:pos:R:3:forces:R:3 energy=-14.23951689 stress="-0.9396048790478019 -0.0 -0.0 -0.0 -0.9396048790478019 -0.0 -0.0 -0.0 -0.9396048790478019" pbc="T T T"
In       0.00000000       0.00000000       0.00000000      -0.00000000      -0.00000000       0.00000000
In       2.40000000       0.00000000       2.40000000       0.00000000      -0.00000000       0.00000000
In       0.00000000       2.40000000       2.40000000       0.00000000      -0.00000000      -0.00000000
In       2.40000000       2.40000000       0.00000000       0.00000000       0.00000000       0.00000000
P        1.20000000       1.20000000       3.60000000      -0.00000000       0.00000000      -0.00000000
P        3.60000000       1.20000000       1.20000000      -0.00000000       0.00000000      -0.00000000
P        1.20000000       3.60000000       1.20000000      -0.00000000       0.00000000      -0.00000000
P        3.60000000       3.60000000       3.60000000      -0.00000000       0.00000000      -0.00000000
