8
Lattice="6.57 0.0 0.0 0.0 6.57 0.0 0.0 0.0 6.57" Properties=species:S:1:pos:R:3:forces:R:3 energy=-34.62612209 stress="0.06744728302553946 -0.0 -0.0 -0.0 0.06744728302553946 0.0 -0.0 0.0 0.06744728302553946" pbc="T T T"
In       0.00000000       0.00000000       0.00000000      -0.00000000      -0.00000000      -0.00000000
In       3.28500000       0.00000000       3.28500000       0.00000000      -0.00000000      -0.00000000
In       0.00000000       3.28500000       3.28500000      -0.00000000       0.00000000       0.00000000
In       3.28500000       3.28500000       0.00000000      -0.00000000      -0.00000000       0.00000000
P        1.64250000       1.64250000       4.92750000       0.00000000       0.00000000       0.00000000
P        4.92750000       1.64250000       1.64250000       0.00000000       0.00000000       0.00000000
P        1.64250000       4.92750000       1.64250000       0.00000000       0.00000000       0.00000000
P        4.92750000       4.92750000       4.92750000       0.00000000       0.00000000       0.00000000
