8
Lattice="5.8 0.0 0.0 0.0 5.8 0.0 0.0 0.0 5.8" Properties=species:S:1:pos:R:3:forces:R:3 energy=-38.71735037 stress="-0.006882175071618672 -0.0 -0.0 -0.0 -0.006882175071618672 0.0 -0.0 0.0 -0.006882175071618672" pbc="T T T"
In       0.00000000       0.00000000       0.00000000       0.00000000      -0.00000000       0.00000000
In       2.90000000       0.00000000       2.90000000       0.00000000       0.00000000       0.00000000
In       0.00000000       2.90000000       2.90000000       0.00000000      -0.00000000       0.00000000
In       2.90000000       2.90000000       0.00000000       0.00000000      -0.00000000       0.00000000
P        1.45000000       1.45000000       4.35000000      -0.00000000       0.00000000      -0.00000000
P        4.35000000       1.45000000       1.45000000      -0.00000000       0.00000000      -0.00000000
P        1.45000000       4.35000000       1.45000000      -0.00000000      -0.00000000      -0.00000000
P        4.35000000       4.35000000       4.35000000      -0.00000000      -0.00000000      -0.00000000
