8
Lattice="6.26 0.0 0.0 0.0 6.26 0.0 0.0 0.0 6.26" Properties=species:S:1:pos:R:3:forces:R:3 energy=-37.06573351 stress="0.05743082179919423 -0.0 -0.0 -0.0 0.05743082179919423 -0.0 -0.0 -0.0 0.05743082179919423" pbc="T T T"
In       0.00000000       0.00000000       0.00000000       0.00000000       0.00000000       0.00000000
In       3.13000000       0.00000000       3.13000000      -0.00000000       0.00000000       0.00000000
In       0.00000000       3.13000000       3.13000000      -0.00000000       0.00000000       0.00000000
In       3.13000000       3.13000000       0.00000000       0.00000000       0.00000000       0.00000000
P        1.56500000       1.56500000       4.69500000      -0.00000000      -0.00000000      -0.00000000
P        4.69500000       1.56500000       1.56500000      -0.00000000      -0.00000000      -0.00000000
P        1.56500000       4.69500000       1.56500000      -0.00000000      -0.00000000      -0.00000000
P        4.69500000       4.69500000       4.69500000      -0.00000000      -0.00000000      -0.00000000
