8
Lattice="6.32 0.0 0.0 0.0 6.32 0.0 0.0 0.0 6.32" Properties=species:S:1:pos:R:3:forces:R:3 energy=-36.64599517 stress="0.0607337660135204 0.0 0.0 0.0 0.0607337660135204 -0.0 0.0 -0.0 0.0607337660135204" pbc="T T T"
In       0.00000000       0.00000000       0.00000000       0.00000000       0.00000000       0.00000000
In       3.16000000       0.00000000       3.16000000      -0.00000000       0.00000000       0.00000000
In       0.00000000       3.16000000       3.16000000       0.00000000       0.00000000       0.00000000
In       3.16000000       3.16000000       0.00000000       0.00000000      -0.00000000       0.00000000
P        1.58000000       1.58000000       4.74000000      -0.00000000      -0.00000000      -0.00000000
P        4.74000000       1.58000000       1.58000000      -0.00000000      -0.00000000      -0.00000000
P        1.58000000       4.74000000       1.58000000      -0.00000000      -0.00000000      -0.00000000
P        4.74000000       4.74000000       4.74000000      -0.00000000      -0.00000000      -0.00000000
