8
Lattice="5.58 0.0 0.0 0.0 5.58 0.0 0.0 0.0 5.58" Properties=species:S:1:pos:R:3:forces:R:3 energy=-37.87745843 stress="-0.07878833604310699 0.0 0.0 0.0 -0.07878833604310699 0.0 0.0 0.0 -0.07878833604310699" pbc="T T T"
In       0.00000000       0.00000000       0.00000000      -0.00000000       0.00000000      -0.00000000
In       2.79000000       0.00000000       2.79000000       0.00000000      -0.00000000      -0.00000000
In       0.00000000       2.79000000       2.79000000      -0.00000000       0.00000000      -0.00000000
In       2.79000000       2.79000000       0.00000000      -0.00000000      -0.00000000       0.00000000
P        1.39500000       1.39500000       4.18500000       0.00000000       0.00000000      -0.00000000
P        4.18500000       1.39500000       1.39500000       0.00000000       0.00000000       0.00000000
P        1.39500000       4.18500000       1.39500000       0.00000000       0.00000000       0.00000000
P        4.18500000       4.18500000       4.18500000       0.00000000       0.00000000       0.00000000
