8
Lattice="5.22 0.0 0.0 0.0 5.22 0.0 0.0 0.0 5.22" Properties=species:S:1:pos:R:3:forces:R:3 energy=-32.30180778 stress="-0.310565398059265 0.0 -0.0 0.0 -0.310565398059265 -0.0 -0.0 -0.0 -0.310565398059265" pbc="T T T"
In       0.00000000       0.00000000       0.00000000      -0.00000000      -0.00000000       0.00000000
In       2.61000000       0.00000000       2.61000000       0.00000000      -0.00000000      -0.00000000
In       0.00000000       2.61000000       2.61000000       0.00000000       0.00000000       0.00000000
In       2.61000000       2.61000000       0.00000000       0.00000000       0.00000000      -0.00000000
P        1.30500000       1.30500000       3.91500000      -0.00000000       0.00000000      -0.00000000
P        3.91500000       1.30500000       1.30500000      -0.00000000       0.00000000      -0.00000000
P        1.30500000       3.91500000       1.30500000      -0.00000000       0.00000000      -0.00000000
P        3.91500000       3.91500000       3.91500000      -0.00000000      -0.00000000       0.00000000
