8
Lattice="6.13 0.0 0.0 0.0 6.13 0.0 0.0 0.0 6.13" Properties=species:S:1:pos:R:3:forces:R:3 energy=-37.85171281 stress="0.04679203218092545 -0.0 -0.0 -0.0 0.04679203218092545 0.0 -0.0 0.0 0.04679203218092545" pbc="T T T"
In       0.00000000       0.00000000       0.00000000       0.00000000       0.00000000      -0.00000000
In       3.06500000       0.00000000       3.06500000      -0.00000000       0.00000000       0.00000000
In       0.00000000       3.06500000       3.06500000      -0.00000000       0.00000000      -0.00000000
In       3.06500000       3.06500000       0.00000000       0.00000000       0.00000000      -0.00000000
P        1.53250000       1.53250000       4.59750000      -0.00000000      -0.00000000       0.00000000
P        4.59750000       1.53250000       1.53250000      -0.00000000      -0.00000000       0.00000000
P        1.53250000       4.59750000       1.53250000      -0.00000000      -0.00000000       0.00000000
P        4.59750000       4.59750000       4.59750000      -0.00000000      -0.00000000       0.00000000
