8
Lattice="5.03 0.0 0.0 0.0 5.03 0.0 0.0 0.0 5.03" Properties=species:S:1:pos:R:3:forces:R:3 energy=-26.1510292 stress="-0.5278750288951913 -0.0 0.0 -0.0 -0.5278750288951913 -0.0 0.0 -0.0 -0.5278750288951913" pbc="T T T"
In       0.00000000       0.00000000       0.00000000      -0.00000000       0.00000000      -0.00000000
In       2.51500000       0.00000000       2.51500000      -0.00000000       0.00000000      -0.00000000
In       0.00000000       2.51500000       2.51500000      -0.00000000      -0.00000000      -0.00000000
In       2.51500000       2.51500000       0.00000000      -0.00000000       0.00000000      -0.00000000
P        1.25750000       1.25750000       3.77250000       0.00000000       0.00000000       0.00000000
P        3.77250000       1.25750000       1.25750000       0.00000000      -0.00000000       0.00000000
P        1.25750000       3.77250000       1.25750000       0.00000000      -0.00000000       0.00000000
P        3.77250000       3.77250000       3.77250000       0.00000000       0.00000000       0.00000000
