8
Lattice="6.29 0.0 0.0 0.0 6.29 0.0 0.0 0.0 6.29" Properties=species:S:1:pos:R:3:forces:R:3 energy=-36.85984394 stress="0.059104956825993406 0.0 0.0 0.0 0.059104956825993406 -0.0 0.0 -0.0 0.059104956825993406" pbc="T T T"
In       0.00000000       0.00000000       0.00000000       0.00000000       0.00000000       0.00000000
In       3.14500000       0.00000000       3.14500000      -0.00000000       0.00000000      -0.00000000
In       0.00000000       3.14500000       3.14500000       0.00000000       0.00000000       0.00000000
In       3.14500000       3.14500000       0.00000000      -0.00000000      -0.00000000      -0.00000000
P        1.57250000       1.57250000       4.71750000       0.00000000      -0.00000000       0.00000000
P        4.71750000       1.57250000       1.57250000       0.00000000      -0.00000000       0.00000000
P        1.57250000       4.71750000       1.57250000       0.00000000      -0.00000000       0.00000000
P        4.71750000       4.71750000       4.71750000       0.00000000      -0.00000000       0.00000000
