8
Lattice="6.14 0.0 0.0 0.0 6.14 0.0 0.0 0.0 6.14" Properties=species:S:1:pos:R:3:forces:R:3 energy=-37.79810848 stress="0.04816613786404341 -0.0 -0.0 -0.0 0.04816613786404341 -0.0 -0.0 -0.0 0.04816613786404341" pbc="T T T"
In       0.00000000       0.00000000       0.00000000       0.00000000       0.00000000       0.00000000
In       3.07000000       0.00000000       3.07000000       0.00000000      -0.00000000      -0.00000000
In       0.00000000       3.07000000       3.07000000      -0.00000000       0.00000000      -0.00000000
In       3.07000000       3.07000000       0.00000000       0.00000000       0.00000000      -0.00000000
P        1.53500000       1.53500000       4.60500000      -0.00000000      -0.00000000       0.00000000
P        4.60500000       1.53500000       1.53500000       0.00000000      -0.00000000       0.00000000
P        1.53500000       4.60500000       1.53500000       0.00000000      -0.00000000       0.00000000
P        4.60500000       4.60500000       4.60500000      -0.00000000       0.00000000       0.00000000
