8
Lattice="5.48 0.0 0.0 0.0 5.48 0.0 0.0 0.0 5.48" Properties=species:S:1:pos:R:3:forces:R:3 energy=-36.94671248 stress="-0.1257781429237043 0.0 -0.0 0.0 -0.1257781429237043 -0.0 -0.0 -0.0 -0.1257781429237043" pbc="T T T"
In       0.00000000       0.00000000       0.00000000       0.00000000      -0.00000000       0.00000000
In       2.74000000       0.00000000       2.74000000      -0.00000000      -0.00000000       0.00000000
In       0.00000000       2.74000000       2.74000000       0.00000000      -0.00000000       0.00000000
In       2.74000000       2.74000000       0.00000000       0.00000000       0.00000000       0.00000000
P        1.37000000       1.37000000       4.11000000      -0.00000000       0.00000000      -0.00000000
P        4.11000000       1.37000000       1.37000000      -0.00000000       0.00000000      -0.00000000
P        1.37000000       4.11000000       1.37000000      -0.00000000       0.00000000      -0.00000000
P        4.11000000       4.11000000       4.11000000      -0.00000000       0.00000000      -0.00000000
