8
Lattice="6.44 0.0 0.0 0.0 6.44 0.0 0.0 0.0 6.44" Properties=species:S:1:pos:R:3:forces:R:3 energy=-35.72200298 stress="0.06522192287877879 -0.0 -0.0 -0.0 0.06522192287877879 -0.0 -0.0 -0.0 0.06522192287877879" pbc="T T T"
In       0.00000000       0.00000000       0.00000000      -0.00000000       0.00000000      -0.00000000
In       3.22000000       0.00000000       3.22000000       0.00000000      -0.00000000       0.00000000
In       0.00000000       3.22000000       3.22000000       0.00000000      -0.00000000       0.00000000
In       3.22000000       3.22000000       0.00000000       0.00000000       0.00000000      -0.00000000
P        1.61000000       1.61000000       4.83000000      -0.00000000       0.00000000      -0.00000000
P        4.83000000       1.61000000       1.61000000      -0.00000000      -0.00000000      -0.00000000
P        1.61000000       4.83000000       1.61000000      -0.00000000       0.00000000      -0.00000000
P        4.83000000       4.83000000       4.83000000      -0.00000000       0.00000000      -0.00000000
