8
Lattice="6.52 0.0 0.0 0.0 6.52 0.0 0.0 0.0 6.52" Properties=species:S:1:pos:R:3:forces:R:3 energy=-35.05687287 stress="0.06680510039308644 -0.0 0.0 -0.0 0.06680510039308644 -0.0 0.0 -0.0 0.06680510039308644" pbc="T T T"
In       0.00000000       0.00000000       0.00000000       0.00000000      -0.00000000       0.00000000
In       3.26000000       0.00000000       3.26000000      -0.00000000      -0.00000000      -0.00000000
In       0.00000000       3.26000000       3.26000000      -0.00000000      -0.00000000      -0.00000000
In       3.26000000       3.26000000       0.00000000      -0.00000000       0.00000000      -0.00000000
P        1.63000000       1.63000000       4.89000000       0.00000000       0.00000000       0.00000000
P        4.89000000       1.63000000       1.63000000       0.00000000       0.00000000       0.00000000
P        1.63000000       4.89000000       1.63000000       0.00000000       0.00000000       0.00000000
P        4.89000000       4.89000000       4.89000000       0.00000000       0.00000000       0.00000000
