8
Lattice="5.55 0.0 0.0 0.0 5.55 0.0 0.0 0.0 5.55" Properties=species:S:1:pos:R:3:forces:R:3 energy=-37.6392704 stress="-0.0917507146787596 -0.0 -0.0 -0.0 -0.0917507146787596 0.0 -0.0 0.0 -0.0917507146787596" pbc="T T T"
In       0.00000000       0.00000000       0.00000000       0.00000000      -0.00000000      -0.00000000
In       2.77500000       0.00000000       2.77500000       0.00000000       0.00000000       0.00000000
In       0.00000000       2.77500000       2.77500000      -0.00000000       0.00000000      -0.00000000
In       2.77500000       2.77500000       0.00000000      -0.00000000      -0.00000000      -0.00000000
P        1.38750000       1.38750000       4.16250000      -0.00000000       0.00000000       0.00000000
P        4.16250000       1.38750000       1.38750000       0.00000000       0.00000000       0.00000000
P        1.38750000       4.16250000       1.38750000       0.00000000       0.00000000       0.00000000
P        4.16250000       4.16250000       4.16250000      -0.00000000       0.00000000       0.00000000
