8
Lattice="6.91 0.0 0.0 0.0 6.91 0.0 0.0 0.0 6.91" Properties=species:S:1:pos:R:3:forces:R:3 energy=-31.51893479 stress="0.06538501975374723 0.0 -0.0 0.0 0.06538501975374723 0.0 -0.0 0.0 0.06538501975374723" pbc="T T T"
In       0.00000000       0.00000000       0.00000000       0.00000000      -0.00000000       0.00000000
In       3.45500000       0.00000000       3.45500000      -0.00000000       0.00000000      -0.00000000
In       0.00000000       3.45500000       3.45500000      -0.00000000       0.00000000       0.00000000
In       3.45500000       3.45500000       0.00000000      -0.00000000      -0.00000000      -0.00000000
P        1.72750000       1.72750000       5.18250000      -0.00000000      -0.00000000       0.00000000
P        5.18250000       1.72750000       1.72750000       0.00000000      -0.00000000       0.00000000
P        1.72750000       5.18250000       1.72750000       0.00000000      -0.00000000       0.00000000
P        5.18250000       5.18250000       5.18250000       0.00000000       0.00000000       0.00000000
