8
Lattice="5.33 0.0 0.0 0.0 5.33 0.0 0.0 0.0 5.33" Properties=species:S:1:pos:R:3:forces:R:3 energy=-34.71610965 stress="-0.2189664456749012 -0.0 0.0 -0.0 -0.2189664456749012 -0.0 0.0 -0.0 -0.2189664456749012" pbc="T T T"
In       0.00000000       0.00000000       0.00000000      -0.00000000      -0.00000000       0.00000000
In       2.66500000       0.00000000       2.66500000       0.00000000      -0.00000000       0.00000000
In       0.00000000       2.66500000       2.66500000       0.00000000      -0.00000000      -0.00000000
In       2.66500000       2.66500000       0.00000000      -0.00000000       0.00000000       0.00000000
P        1.33250000       1.33250000       3.99750000      -0.00000000      -0.00000000      -0.00000000
P        3.99750000       1.33250000       1.33250000      -0.00000000       0.00000000      -0.00000000
P        1.33250000       3.99750000       1.33250000      -0.00000000       0.00000000      -0.00000000
P        3.99750000       3.99750000       3.99750000      -0.00000000       0.00000000      -0.00000000
