8
Lattice="6.67 0.0 0.0 0.0 6.67 0.0 0.0 0.0 6.67" Properties=species:S:1:pos:R:3:forces:R:3 energy=-33.73788122 stress="0.06779473535555912 0.0 0.0 0.0 0.06779473535555912 -0.0 0.0 -0.0 0.06779473535555912" pbc="T T T"
In       0.00000000       0.00000000       0.00000000       0.00000000       0.00000000      -0.00000000
In       3.33500000       0.00000000       3.33500000      -0.00000000      -0.00000000       0.00000000
In       0.00000000       3.33500000       3.33500000      -0.00000000       0.00000000       0.00000000
In       3.33500000       3.33500000       0.00000000       0.00000000       0.00000000       0.00000000
P        1.66750000       1.66750000       5.00250000       0.00000000      -0.00000000      -0.00000000
P        5.00250000       1.66750000       1.66750000       0.00000000      -0.00000000      -0.00000000
P        1.66750000       5.00250000       1.66750000       0.00000000      -0.00000000      -0.00000000
P        5.00250000       5.00250000       5.00250000       0.00000000      -0.00000000      -0.00000000
