8
Lattice="6.93 0.0 0.0 0.0 6.93 0.0 0.0 0.0 6.93" Properties=species:S:1:pos:R:3:forces:R:3 energy=-31.33169244 stress="0.06506185937724551 -0.0 0.0 -0.0 0.06506185937724551 -0.0 0.0 -0.0 0.06506185937724551" pbc="T T T"
In       0.00000000       0.00000000       0.00000000      -0.00000000       0.00000000      -0.00000000
In       3.46500000       0.00000000       3.46500000       0.00000000      -0.00000000       0.00000000
In       0.00000000       3.46500000       3.46500000       0.00000000      -0.00000000       0.00000000
In       3.46500000       3.46500000       0.00000000       0.00000000      -0.00000000      -0.00000000
P        1.73250000       1.73250000       5.19750000      -0.00000000       0.00000000      -0.00000000
P        5.19750000       1.73250000       1.73250000      -0.00000000       0.00000000      -0.00000000
P        1.73250000       5.19750000       1.73250000      -0.00000000       0.00000000      -0.00000000
P        5.19750000       5.19750000       5.19750000      -0.00000000       0.00000000      -0.00000000
