8
Lattice="6.11 0.0 0.0 0.0 6.11 0.0 0.0 0.0 6.11" Properties=species:S:1:pos:R:3:forces:R:3 energy=-37.95513783 stress="0.04508099111066495 -0.0 0.0 -0.0 0.04508099111066495 -0.0 0.0 -0.0 0.04508099111066495" pbc="T T T"
In       0.00000000       0.00000000       0.00000000      -0.00000000       0.00000000       0.00000000
In       3.05500000       0.00000000       3.05500000      -0.00000000      -0.00000000       0.00000000
In       0.00000000       3.05500000       3.05500000       0.00000000       0.00000000       0.00000000
In       3.05500000       3.05500000       0.00000000       0.00000000       0.00000000       0.00000000
P        1.52750000       1.52750000       4.58250000      -0.00000000      -0.00000000      -0.00000000
P        4.58250000       1.52750000       1.52750000      -0.00000000      -0.00000000      -0.00000000
P        1.52750000       4.58250000       1.52750000      -0.00000000      -0.00000000      -0.00000000
P        4.58250000       4.58250000       4.58250000      -0.00000000      -0.00000000      -0.00000000
