8
Lattice="6.55 0.0 0.0 0.0 6.55 0.0 0.0 0.0 6.55" Properties=species:S:1:pos:R:3:forces:R:3 energy=-34.799632 stress="0.06698681568977741 -0.0 -0.0 -0.0 0.06698681568977741 -0.0 -0.0 -0.0 0.06698681568977741" pbc="T T T"
In       0.00000000       0.00000000       0.00000000       0.00000000       0.00000000       0.00000000
In       3.27500000       0.00000000       3.27500000       0.00000000      -0.00000000       0.00000000
In       0.00000000       3.27500000       3.27500000       0.00000000      -0.00000000       0.00000000
In       3.27500000       3.27500000       0.00000000       0.00000000      -0.00000000       0.00000000
P        1.63750000       1.63750000       4.91250000      -0.00000000       0.00000000      -0.00000000
P        4.91250000       1.63750000       1.63750000      -0.00000000       0.00000000      -0.00000000
P        1.63750000       4.91250000       1.63750000      -0.00000000       0.00000000      -0.00000000
P        4.91250000       4.91250000       4.91250000      -0.00000000       0.00000000      -0.00000000
