8
Lattice="6.15 0.0 0.0 0.0 6.15 0.0 0.0 0.0 6.15" Properties=species:S:1:pos:R:3:forces:R:3 energy=-37.74324741 stress="0.04923925925258389 -0.0 -0.0 -0.0 0.04923925925258389 0.0 -0.0 0.0 0.04923925925258389" pbc="T T T"
In       0.00000000       0.00000000       0.00000000       0.00000000       0.00000000       0.00000000
In       3.07500000       0.00000000       3.07500000       0.00000000       0.00000000       0.00000000
In       0.00000000       3.07500000       3.07500000      -0.00000000       0.00000000       0.00000000
In       3.07500000       3.07500000       0.00000000      -0.00000000       0.00000000      -0.00000000
P        1.53750000       1.53750000       4.61250000       0.00000000      -0.00000000      -0.00000000
P        4.61250000       1.53750000       1.53750000       0.00000000      -0.00000000       0.00000000
P        1.53750000       4.61250000       1.53750000       0.00000000      -0.00000000      -0.00000000
P        4.61250000       4.61250000       4.61250000       0.00000000      -0.00000000       0.00000000
