8
Lattice="5.67 0.0 0.0 0.0 5.67 0.0 0.0 0.0 5.67" Properties=species:S:1:pos:R:3:forces:R:3 energy=-38.40014053 stress="-0.04469738171827904 0.0 0.0 0.0 -0.04469738171827904 0.0 0.0 0.0 -0.04469738171827904" pbc="T T T"
In       0.00000000       0.00000000       0.00000000      -0.00000000       0.00000000       0.00000000
In       2.83500000       0.00000000       2.83500000       0.00000000      -0.00000000       0.00000000
In       0.00000000       2.83500000       2.83500000       0.00000000      -0.00000000       0.00000000
In       2.83500000       2.83500000       0.00000000       0.00000000       0.00000000       0.00000000
P        1.41750000       1.41750000       4.25250000      -0.00000000       0.00000000      -0.00000000
P        4.25250000       1.41750000       1.41750000      -0.00000000       0.00000000      -0.00000000
P        1.41750000       4.25250000       1.41750000      -0.00000000       0.00000000      -0.00000000
P        4.25250000       4.25250000       4.25250000      -0.00000000       0.00000000      -0.00000000
