8
Lattice="5.16 0.0 0.0 0.0 5.16 0.0 0.0 0.0 5.16" Properties=species:S:1:pos:R:3:forces:R:3 energy=-30.65504269 stress="-0.3697335751311945 0.0 0.0 0.0 -0.3697335751311945 0.0 0.0 0.0 -0.3697335751311945" pbc="T T T"
In       0.00000000       0.00000000       0.00000000       0.00000000      -0.00000000       0.00000000
In       2.58000000       0.00000000       2.58000000       0.00000000      -0.00000000       0.00000000
In       0.00000000       2.58000000       2.58000000      -0.00000000       0.00000000       0.00000000
In       2.58000000       2.58000000       0.00000000       0.00000000      -0.00000000       0.00000000
P        1.29000000       1.29000000       3.87000000      -0.00000000       0.00000000      -0.00000000
P        3.87000000       1.29000000       1.29000000      -0.00000000       0.00000000      -0.00000000
P        1.29000000       3.87000000       1.29000000      -0.00000000       0.00000000      -0.00000000
P        3.87000000       3.87000000       3.87000000      -0.00000000       0.00000000      -0.00000000
