8
Lattice="6.89 0.0 0.0 0.0 6.89 0.0 0.0 0.0 6.89" Properties=species:S:1:pos:R:3:forces:R:3 energy=-31.70606552 stress="0.06574010544942786 -0.0 -0.0 -0.0 0.06574010544942786 -0.0 -0.0 -0.0 0.06574010544942786" pbc="T T T"
In       0.00000000       0.00000000       0.00000000       0.00000000       0.00000000      -0.00000000
In       3.44500000       0.00000000       3.44500000       0.00000000      -0.00000000       0.00000000
In       0.00000000       3.44500000       3.44500000       0.00000000      -0.00000000       0.00000000
In       3.44500000       3.44500000       0.00000000       0.00000000      -0.00000000       0.00000000
P        1.72250000       1.72250000       5.16750000      -0.00000000       0.00000000      -0.00000000
P        5.16750000       1.72250000       1.72250000      -0.00000000       0.00000000      -0.00000000
P        1.72250000       5.16750000       1.72250000      -0.00000000       0.00000000      -0.00000000
P        5.16750000       5.16750000       5.16750000      -0.00000000       0.00000000      -0.00000000
