8
Lattice="5.98 0.0 0.0 0.0 5.98 0.0 0.0 0.0 5.98" Properties=species:S:1:pos:R:3:forces:R:3 energy=-38.48723722 stress="0.028956557846184748 -0.0 -0.0 -0.0 0.028956557846184748 0.0 -0.0 0.0 0.028956557846184748" pbc="T T T"
In       0.00000000       0.00000000       0.00000000      -0.00000000       0.00000000       0.00000000
In       2.99000000       0.00000000       2.99000000      -0.00000000       0.00000000      -0.00000000
In       0.00000000       2.99000000       2.99000000       0.00000000       0.00000000      -0.00000000
In       2.99000000       2.99000000       0.00000000      -0.00000000      -0.00000000       0.00000000
P        1.49500000       1.49500000       4.48500000       0.00000000      -0.00000000       0.00000000
P        4.48500000       1.49500000       1.49500000      -0.00000000      -0.00000000       0.00000000
P        1.49500000       4.48500000       1.49500000       0.00000000      -0.00000000       0.00000000
P        4.48500000       4.48500000       4.48500000       0.00000000      -0.00000000       0.00000000
