8
Lattice="5.69 0.0 0.0 0.0 5.69 0.0 0.0 0.0 5.69" Properties=species:S:1:pos:R:3:forces:R:3 energy=-38.48039501 stress="-0.037998838086652977 -0.0 0.0 -0.0 -0.037998838086652977 -0.0 0.0 -0.0 -0.037998838086652977" pbc="T T T"
In       0.00000000       0.00000000       0.00000000       0.00000000      -0.00000000      -0.00000000
In       2.84500000       0.00000000       2.84500000      -0.00000000       0.00000000      -0.00000000
In       0.00000000       2.84500000       2.84500000      -0.00000000       0.00000000      -0.00000000
In       2.84500000       2.84500000       0.00000000      -0.00000000      -0.00000000      -0.00000000
P        1.42250000       1.42250000       4.26750000       0.00000000      -0.00000000       0.00000000
P        4.26750000       1.42250000       1.42250000       0.00000000      -0.00000000       0.00000000
P        1.42250000       4.26750000       1.42250000       0.00000000       0.00000000       0.00000000
P        4.26750000       4.26750000       4.26750000       0.00000000      -0.00000000      -0.00000000
