8
Lattice="6.56 0.0 0.0 0.0 6.56 0.0 0.0 0.0 6.56" Properties=species:S:1:pos:R:3:forces:R:3 energy=-34.71307221 stress="0.06736083188263685 -0.0 -0.0 -0.0 0.06736083188263685 0.0 -0.0 0.0 0.06736083188263685" pbc="T T T"
In       0.00000000       0.00000000       0.00000000      -0.00000000       0.00000000      -0.00000000
In       3.28000000       0.00000000       3.28000000       0.00000000       0.00000000       0.00000000
In       0.00000000       3.28000000       3.28000000      -0.00000000      -0.00000000      -0.00000000
In       3.28000000       3.28000000       0.00000000       0.00000000      -0.00000000      -0.00000000
P        1.64000000       1.64000000       4.92000000       0.00000000       0.00000000       0.00000000
P        4.92000000       1.64000000       1.64000000       0.00000000       0.00000000       0.00000000
P        1.64000000       4.92000000       1.64000000       0.00000000      -0.00000000       0.00000000
P        4.92000000       4.92000000       4.92000000       0.00000000      -0.00000000       0.00000000
