8
Lattice="5.01 0.0 0.0 0.0 5.01 0.0 0.0 0.0 5.01" Properties=species:S:1:pos:R:3:forces:R:3 energy=-25.33111609 stress="-0.5561577783821823 0.0 0.0 0.0 -0.5561577783821823 0.0 0.0 0.0 -0.5561577783821823" pbc="T T T"
In       0.00000000       0.00000000       0.00000000       0.00000000      -0.00000000       0.00000000
In       2.50500000       0.00000000       2.50500000       0.00000000      -0.00000000       0.00000000
In       0.00000000       2.50500000       2.50500000       0.00000000      -0.00000000       0.00000000
In       2.50500000       2.50500000       0.00000000       0.00000000      -0.00000000       0.00000000
P        1.25250000       1.25250000       3.75750000      -0.00000000       0.00000000      -0.00000000
P        3.75750000       1.25250000       1.25250000      -0.00000000       0.00000000      -0.00000000
P        1.25250000       3.75750000       1.25250000      -0.00000000       0.00000000      -0.00000000
P        3.75750000       3.75750000       3.75750000      -0.00000000       0.00000000      -0.00000000
