8
Lattice="6.04 0.0 0.0 0.0 6.04 0.0 0.0 0.0 6.04" Properties=species:S:1:pos:R:3:forces:R:3 energy=-38.27379064 stress="0.03715611576598534 0.0 0.0 0.0 0.03715611576598534 0.0 0.0 0.0 0.03715611576598534" pbc="T T T"
In       0.00000000       0.00000000       0.00000000       0.00000000       0.00000000      -0.00000000
In       3.02000000       0.00000000       3.02000000      -0.00000000      -0.00000000      -0.00000000
In       0.00000000       3.02000000       3.02000000      -0.00000000      -0.00000000       0.00000000
In       3.02000000       3.02000000       0.00000000      -0.00000000       0.00000000       0.00000000
P        1.51000000       1.51000000       4.53000000       0.00000000      -0.00000000       0.00000000
P        4.53000000       1.51000000       1.51000000       0.00000000      -0.00000000       0.00000000
P        1.51000000       4.53000000       1.51000000       0.00000000      -0.00000000       0.00000000
P        4.53000000       4.53000000       4.53000000       0.00000000      -0.00000000       0.00000000
