8
Lattice="4.76 0.0 0.0 0.0 4.76 0.0 0.0 0.0 4.76" Properties=species:S:1:pos:R:3:forces:R:3 energy=-11.53495144 stress="-1.0341959859410776 0.0 -0.0 0.0 -1.0341959859410776 0.0 -0.0 0.0 -1.0341959859410776" pbc="T T T"
In       0.00000000       0.00000000       0.00000000       0.00000000      -0.00000000       0.00000000
In       2.38000000       0.00000000       2.38000000       0.00000000      -0.00000000       0.00000000
In       0.00000000       2.38000000       2.38000000       0.00000000       0.00000000       0.00000000
In       2.38000000       2.38000000       0.00000000       0.00000000       0.00000000       0.00000000
P        1.19000000       1.19000000       3.57000000      -0.00000000      -0.00000000      -0.00000000
P        3.57000000       1.19000000       1.19000000      -0.00000000      -0.00000000      -0.00000000
P        1.19000000       3.57000000       1.19000000      -0.00000000      -0.00000000      -0.00000000
P        3.57000000       3.57000000       3.57000000      -0.00000000      -0.00000000      -0.00000000
