8
Lattice="6.45 0.0 0.0 0.0 6.45 0.0 0.0 0.0 6.45" Properties=species:S:1:pos:R:3:forces:R:3 energy=-35.6407125 stress="0.06543177489860923 0.0 0.0 0.0 0.06543177489860923 -0.0 0.0 -0.0 0.06543177489860923" pbc="T T T"
In       0.00000000       0.00000000       0.00000000       0.00000000      -0.00000000      -0.00000000
In       3.22500000       0.00000000       3.22500000      -0.00000000      -0.00000000      -0.00000000
In       0.00000000       3.22500000       3.22500000      -0.00000000       0.00000000      -0.00000000
In       3.22500000       3.22500000       0.00000000       0.00000000      -0.00000000      -0.00000000
P        1.61250000       1.61250000       4.83750000       0.00000000       0.00000000       0.00000000
P        4.83750000       1.61250000       1.61250000       0.00000000       0.00000000       0.00000000
P        1.61250000       4.83750000       1.61250000       0.00000000       0.00000000       0.00000000
P        4.83750000       4.83750000       4.83750000       0.00000000       0.00000000       0.00000000
