8
Lattice="4.85 0.0 0.0 0.0 4.85 0.0 0.0 0.0 4.85" Properties=species:S:1:pos:R:3:forces:R:3 energy=-17.33167358 stress="-0.8324060111013698 -0.0 0.0 -0.0 -0.8324060111013698 0.0 0.0 0.0 -0.8324060111013698" pbc="T T T"
In       0.00000000       0.00000000       0.00000000       0.00000000       0.00000000      -0.00000000
In       2.42500000       0.00000000       2.42500000      -0.00000000      -0.00000000       0.00000000
In       0.00000000       2.42500000       2.42500000      -0.00000000       0.00000000      -0.00000000
In       2.42500000       2.42500000       0.00000000       0.00000000      -0.00000000       0.00000000
P        1.21250000       1.21250000       3.63750000       0.00000000      -0.00000000      -0.00000000
P        3.63750000       1.21250000       1.21250000       0.00000000       0.00000000      -0.00000000
P        1.21250000       3.63750000       1.21250000       0.00000000       0.00000000       0.00000000
P        3.63750000       3.63750000       3.63750000       0.00000000       0.00000000      -0.00000000
