8
Lattice="6.43 0.0 0.0 0.0 6.43 0.0 0.0 0.0 6.43" Properties=species:S:1:pos:R:3:forces:R:3 energy=-35.80269997 stress="0.06503131343158343 0.0 -0.0 0.0 0.06503131343158343 -0.0 -0.0 -0.0 0.06503131343158343" pbc="T T T"
In       0.00000000       0.00000000       0.00000000       0.00000000      -0.00000000       0.00000000
In       3.21500000       0.00000000       3.21500000       0.00000000      -0.00000000       0.00000000
In       0.00000000       3.21500000       3.21500000       0.00000000      -0.00000000       0.00000000
In       3.21500000       3.21500000       0.00000000       0.00000000      -0.00000000       0.00000000
P        1.60750000       1.60750000       4.82250000      -0.00000000       0.00000000      -0.00000000
P        4.82250000       1.60750000       1.60750000      -0.00000000       0.00000000      -0.00000000
P        1.60750000       4.82250000       1.60750000      -0.00000000       0.00000000      -0.00000000
P        4.82250000       4.82250000       4.82250000      -0.00000000       0.00000000      -0.00000000
