8
Lattice="5.37 0.0 0.0 0.0 5.37 0.0 0.0 0.0 5.37" Properties=species:S:1:pos:R:3:forces:R:3 energy=-35.42083938 stress="-0.19111607673260586 0.0 0.0 0.0 -0.19111607673260586 0.0 0.0 0.0 -0.19111607673260586" pbc="T T T"
In       0.00000000       0.00000000       0.00000000       0.00000000       0.00000000       0.00000000
In       2.68500000       0.00000000       2.68500000       0.00000000      -0.00000000       0.00000000
In       0.00000000       2.68500000       2.68500000      -0.00000000       0.00000000       0.00000000
In       2.68500000       2.68500000       0.00000000      -0.00000000       0.00000000       0.00000000
P        1.34250000       1.34250000       4.02750000      -0.00000000      -0.00000000      -0.00000000
P        4.02750000       1.34250000       1.34250000       0.00000000       0.00000000      -0.00000000
P        1.34250000       4.02750000       1.34250000      -0.00000000      -0.00000000      -0.00000000
P        4.02750000       4.02750000       4.02750000       0.00000000       0.00000000      -0.00000000
