8
Lattice="5.38 0.0 0.0 0.0 5.38 0.0 0.0 0.0 5.38" Properties=species:S:1:pos:R:3:forces:R:3 energy=-35.58377308 stress="-0.18447177805679288 -0.0 0.0 -0.0 -0.18447177805679288 -0.0 0.0 -0.0 -0.18447177805679288" pbc="T T T"
In       0.00000000       0.00000000       0.00000000      -0.00000000      -0.00000000       0.00000000
In       2.69000000       0.00000000       2.69000000      -0.00000000       0.00000000      -0.00000000
In       0.00000000       2.69000000       2.69000000       0.00000000       0.00000000      -0.00000000
In       2.69000000       2.69000000       0.00000000       0.00000000      -0.00000000       0.00000000
P        1.34500000       1.34500000       4.03500000      -0.00000000      -0.00000000      -0.00000000
P        4.03500000       1.34500000       1.34500000      -0.00000000      -0.00000000      -0.00000000
P        1.34500000       4.03500000       1.34500000      -0.00000000       0.00000000      -0.00000000
P        4.03500000       4.03500000       4.03500000       0.00000000       0.00000000      -0.00000000
