8
Lattice="5.44 0.0 0.0 0.0 5.44 0.0 0.0 0.0 5.44" Properties=species:S:1:pos:R:3:forces:R:3 energy=-36.45752485 stress="-0.14766941854504434 0.0 0.0 0.0 -0.14766941854504434 -0.0 0.0 -0.0 -0.14766941854504434" pbc="T T T"
In       0.00000000       0.00000000       0.00000000      -0.00000000      -0.00000000      -0.00000000
In       2.72000000       0.00000000       2.72000000      -0.00000000       0.00000000      -0.00000000
In       0.00000000       2.72000000       2.72000000       0.00000000      -0.00000000       0.00000000
In       2.72000000       2.72000000       0.00000000       0.00000000       0.00000000       0.00000000
P        1.36000000       1.36000000       4.08000000      -0.00000000      -0.00000000       0.00000000
P        4.08000000       1.36000000       1.36000000       0.00000000      -0.00000000      -0.00000000
P        1.36000000       4.08000000       1.36000000       0.00000000      -0.00000000       0.00000000
P        4.08000000       4.08000000       4.08000000       0.00000000      -0.00000000       0.00000000
