 +-------------------------------------------------+
 |                                                 |
 |      CCC   AA    SSS  TTTTT  EEEEE  PPPP        |
 |     C     A  A  S       T    E      P   P       |
 |     C     AAAA   SS     T    EEE    PPPP        |
 |     C     A  A     S    T    E      P           |
 |      CCC  A  A  SSS     T    EEEEE  P           |
 |                                                 |
 +-------------------------------------------------+
 |                                                 |
 | Welcome to Academic Release CASTEP version 20.11|          
 | Ab Initio Total Energy Program                  |
 |                                                 |
 | Authors:                                        |
 | M. Segall, M. Probert, C. Pickard, P. Hasnip,   |
 | S. Clark, K. Refson, J. R. Yates, M. Payne      |
 |                                                 |
 | Contributors:                                   |
 | P. Lindan, P. Haynes, J. White, V. Milman,      |
 | N. Govind, M. Gibson, P. Tulip, V. Cocula,      |
 | B. Montanari, D. Quigley, M. Glover,            |
 | L. Bernasconi, A. Perlov, M. Plummer,           |
 | E. McNellis, J. Meyer, J. Gale, D. Jochym       |
 | J. Aarons, B. Walker, R. Gillen, D. Jones       |
 | T. Green, I. J. Bush, C. J. Armstrong,          |
 | E. J. Higgins, E. L. Brown, M. S. McFly,        |
 | J. Wilkins, B-C. Shih, P. J. P. Byrne,          |
 | R. J. Maurer, J. C. Womack, J. Dziedzic,        |
 | J. R. Kermode, A. Bartok-Partay                 |
 |                                                 |
 | Copyright (c) 2000 - 2020                       |
 |                                                 |
 |     Distributed under license from Cambridge    |
 |     Enterprise for academic use only.           |
 |                                                 |
 | Please cite                                     |
 |                                                 |
 |     "First principles methods using CASTEP"     |
 |                                                 |
 |         Zeitschrift fuer Kristallographie       |
 |           220(5-6) pp. 567-570 (2005)           |
 |                                                 |
 | S. J. Clark, M. D. Segall, C. J. Pickard,       |
 | P. J. Hasnip, M. J. Probert, K. Refson,         |
 | M. C. Payne                                     |
 |                                                 |
 |       in all publications arising from          |
 |              your use of CASTEP                 |
 |                                                 |
 +-------------------------------------------------+
 |                                                 |
 |              http://www.castep.org              |
 |                                                 |
 +-------------------------------------------------+
 
 
 
 Compiled for linux_x86_64_ifort on Wed, 25 Aug 2021 18:50:38 +0100
 from code version e772bf432+  HEAD  Sat Apr 3 17:41:32 2021 +0100
 Compiler: Intel Fortran 19.0.5.281; Optimisation: fast
 MATHLIBS: Intel MKL(2019.0.5) (LAPACK version 3.7.0)
 FFT Lib : mkl
 Fundamental constants values: CODATA 2014
 
 Run started: Fri, 16 Dec 2022 19:05:49 +0000
 
 Atomic calculation performed for P: 1s2 2s2 2p6 3s2 3p3
 
 Exceeded max iterations: converged to -0.000003405 eV
 The ae energy is -9309.074 eV
 
   ============================================================                
   | Pseudopotential Report - Date of generation 16-12-2022   |                
   ------------------------------------------------------------                
   | Element: P Ionic charge:  5.00 Level of theory: RSCAN    |                
   | Atomic Solver: Koelling-Harmon                           |                
   |                                                          |                
   |               Reference Electronic Structure             |                
   |         Orbital         Occupation         Energy        |                
   |            3s              2.000           -0.535        |                
   |            3p              3.000           -0.209        |                
   |                                                          |                
   |                 Pseudopotential Definition               |                
   |        Beta     l      e      Rc     scheme   norm       |                
   |          1      0   -0.535   1.807     qc      0         |                
   |          2      0    0.250   1.807     qc      0         |                
   |          3      1   -0.209   1.807     qc      0         |                
   |          4      1    0.250   1.807     qc      0         |                
   |          5      2    0.000   1.807     qc      0         |                
   |          6      2    0.250   1.807     qc      0         |                
   |         loc     3    0.000   1.807     pn      0         |                
   |                                                          |                
   | Augmentation charge Rinner = 1.263                       |                
   | Partial core correction Rc = 1.263                       |                
   ------------------------------------------------------------                
   | "3|1.8|4|4|5|30:31:32"                                   |                
   ------------------------------------------------------------                
   |      Author: Chris J. Pickard, Cambridge University      |                
   ============================================================                
 Warning: ion_atom_output_psp cannot write out meta-GGA pseudopotentials present
 ly.
 
 Atomic calculation performed for In:
 1s2 2s2 2p6 3s2 3p6 3d10 4s2 4p6 4d10 5s2 5p1
 
 Exceeded max iterations: converged to -0.000725459 eV
 The ae energy is -160093.321 eV
 
   ============================================================                
   | Pseudopotential Report - Date of generation 16-12-2022   |                
   ------------------------------------------------------------                
   | Element: In Ionic charge: 13.00 Level of theory: RSCAN   |                
   | Atomic Solver: Koelling-Harmon                           |                
   |                                                          |                
   |               Reference Electronic Structure             |                
   |         Orbital         Occupation         Energy        |                
   |            4d             10.000           -0.711        |                
   |            5s              2.000           -0.313        |                
   |            5p              1.000           -0.095        |                
   |                                                          |                
   |                 Pseudopotential Definition               |                
   |        Beta     l      e      Rc     scheme   norm       |                
   |          1      0   -0.313   2.501     qc      0         |                
   |          2      0    0.250   2.501     qc      0         |                
   |          3      1   -0.095   2.501     qc      0         |                
   |          4      1    0.250   2.501     qc      0         |                
   |          5      2   -0.711   2.207     qc      0         |                
   |          6      2    0.250   2.207     qc      0         |                
   |         loc     3    0.000   2.501     pn      0         |                
   |                                                          |                
   | Augmentation charge Rinner = 1.504                       |                
   | Partial core correction Rc = 1.504                       |                
   ------------------------------------------------------------                
   | "3|2.5|2.5|1.5|7|8|9|50:51:42U2.2U2.2"                   |                
   ------------------------------------------------------------                
   |      Author: Chris J. Pickard, Cambridge University      |                
   ============================================================                
 Warning: ion_atom_output_psp cannot write out meta-GGA pseudopotentials present
 ly.
 
 Pseudo atomic calculation performed for P 3s2 3p3
 
 Converged in 23 iterations to a total energy of -208.0292 eV
 
 Pseudo atomic calculation performed for In 4d10 5s2 5p1
 
 Converged in 42 iterations to a total energy of -1747.4504 eV
 Calculation parallelised over 32 processes.
 Data is distributed by k-point(32-way)

 ************************************ Title ************************************
 

 ***************************** General Parameters ******************************
  
 output verbosity                               : normal  (1)
 write checkpoint data to                       : WZ_EOS_1.1309.check
 type of calculation                            : single point energy
 stress calculation                             : on
 density difference calculation                 : off
 electron localisation func (ELF) calculation   : off
 Hirshfeld analysis                             : off
 molecular orbital projected DOS                : off
 deltaSCF calculation                           : off
 unlimited duration calculation
 timing information                             : on
 memory usage estimate                          : on
 write extra output files                       : on
 write final potential to formatted file        : off
 write final density to formatted file          : off
 write BibTeX reference list                    : on
 write OTFG pseudopotential files               : on
 write electrostatic potential file             : on
 write bands file                               : on
 checkpoint writing                             : off
  
 output         length unit                     : A
 output           mass unit                     : amu
 output           time unit                     : ps
 output         charge unit                     : e
 output           spin unit                     : hbar/2
 output         energy unit                     : eV
 output          force unit                     : eV/A
 output       velocity unit                     : A/ps
 output       pressure unit                     : GPa
 output     inv_length unit                     : 1/A
 output      frequency unit                     : cm-1
 output force constant unit                     : eV/A**2
 output         volume unit                     : A**3
 output   IR intensity unit                     : (D/A)**2/amu
 output         dipole unit                     : D
 output         efield unit                     : eV/A/e
 output        entropy unit                     : J/mol/K
 output    efield chi2 unit                     : pm/V
  
 wavefunctions paging                           : none
 random number generator seed                   : randomised (190549987)
 data distribution                              : optimal for this architecture
 optimization strategy                          : balance speed and memory

 *********************** Exchange-Correlation Parameters ***********************
  
 using functional                               : RSCAN
 relativistic treatment                         : Koelling-Harmon
 DFT+D: Semi-empirical dispersion correction    : off

 ************************* Pseudopotential Parameters **************************
  
 pseudopotential representation                 : reciprocal space
 <beta|phi> representation                      : reciprocal space
 spin-orbit coupling                            : off

 **************************** Basis Set Parameters *****************************
  
 plane wave basis set cut-off                   :   900.0000   eV
 size of standard grid                          :     1.7500
 size of   fine   gmax                          :    26.8966   1/A
 finite basis set correction                    : automatic
 number of sample energies                      :          3
           sample  spacing                      :     5.0000   eV

 **************************** Electronic Parameters ****************************
  
 number of  electrons                           :  36.00    
 net charge of system                           :  0.000    
 treating system as non-spin-polarized
 number of bands                                :         22

 ********************* Electronic Minimization Parameters **********************
  
 Method: Treating system as metallic with density mixing treatment of electrons,
         and number of  SD  steps               :          1
         and number of  CG  steps               :          4
  
 total energy / atom convergence tol.           : 0.1000E-07   eV
 eigen-energy convergence tolerance             : 0.2222E-08   eV
 max force / atom convergence tol.              : ignored
 convergence tolerance window                   :          3   cycles
 max. number of SCF cycles                      :         30
 number of fixed-spin iterations                :         10
 smearing scheme                                : Gaussian
 smearing width                                 : 0.2000       eV
 Fermi energy convergence tolerance             : 0.2721E-13   eV
 periodic dipole correction                     : NONE

 ************************** Density Mixing Parameters **************************
  
 density-mixing scheme                          : Broyden
 max. length of mixing history                  :         20
 charge density mixing amplitude                : 0.8000    
 cut-off energy for mixing                      :  900.0       eV

 *********************** Population Analysis Parameters ************************
  
 Population analysis with cutoff                :  3.000       A
 Population analysis output                     : summary and pdos components

 *******************************************************************************
  
 
                           -------------------------------
                                      Unit Cell
                           -------------------------------
        Real Lattice(A)                      Reciprocal Lattice(1/A)
     4.7099750    -0.0000490     0.0000000        1.334008688  -0.770171844   0.000000000
     2.3549450     4.0789820     0.0000000        0.000016025   1.540371487   0.000000000
     0.0000000     0.0000000     7.7347970        0.000000000   0.000000000   0.812327112
 
                       Lattice parameters(A)       Cell Angles
                    a =      4.709975          alpha =   90.000000
                    b =      4.709975          beta  =   90.000000
                    c =      7.734797          gamma =   60.001190
 
                       Current cell volume =           148.601064       A**3
                                   density =             1.962190   AMU/A**3
                                           =             3.258293     g/cm^3
 
                           -------------------------------
                                     Cell Contents
                           -------------------------------
                         Total number of ions in cell =    4
                      Total number of species in cell =    2
                        Max number of any one species =    2
 
            xxxxxxxxxxxxxxxxxxxxxxxxxxxxxxxxxxxxxxxxxxxxxxxxxxxxxxxxxxxx
            x  Element    Atom        Fractional coordinates of atoms  x
            x            Number           u          v          w      x
            x----------------------------------------------------------x
            x  P            1         0.333329   0.333331  -0.000013   x 
            x  P            2         0.666669   0.666671   0.499987   x 
            x  In           1         0.333331   0.333333   0.374443   x 
            x  In           2         0.666667   0.666669   0.874443   x 
            xxxxxxxxxxxxxxxxxxxxxxxxxxxxxxxxxxxxxxxxxxxxxxxxxxxxxxxxxxxx
 
 
                         No user defined ionic velocities
 
                           -------------------------------
                                   Details of Species
                           -------------------------------
 
                               Mass of species in AMU
                                    P   30.9737600
                                    In  114.8180000
 
                          Electric Quadrupole Moment (Barn)
                                    P    1.0000000 No Isotope Defined
                                    In    0.7700000 Isotope115
 
                          Files used for pseudopotentials:
                                    P 3|1.8|4|4|5|30:31:32
                                    In 3|2.5|2.5|1.5|7|8|9|50:51:42U2.2U2.2
 
                           -------------------------------
                              k-Points For BZ Sampling
                           -------------------------------
                       MP grid size for SCF calculation is  9  9  5
                            with an offset of   0.056  0.056  0.100
                       Number of kpoints used =           203
 
                           -------------------------------
                               Symmetry and Constraints
                           -------------------------------
 
                      Maximum deviation from symmetry =  0.00000         ANG
 
                      Number of symmetry operations   =           1
                      Number of ionic constraints     =           3
                      Point group of crystal =     1: C1, 1, 1
                      Space group of crystal =   186: P6_3mc, P 6c -2c
 
             Set iprint > 1 for details on symmetry rotations/translations
 
                         Centre of mass is constrained
             Set iprint > 1 for details of linear ionic constraints
 
                         Number of cell constraints= 0
                         Cell constraints are:  1 2 3 4 5 6
 
                         External pressure/stress (GPa)
                          0.00000   0.00000   0.00000
                                    0.00000   0.00000
                                              0.00000
  
+---------------- MEMORY AND SCRATCH DISK ESTIMATES PER PROCESS --------------+
|                                                     Memory          Disk    |
| Baseline code, static data and system overhead      394.0 MB         0.0 MB |
| BLAS internal memory storage                          0.0 MB         0.0 MB |
| Model and support data                              247.5 MB       771.7 MB |
| Electronic energy minimisation requirements          90.3 MB         0.0 MB |
| Force calculation requirements                       21.1 MB         0.0 MB |
| Stress calculation requirements                      23.4 MB         0.0 MB |
|                                               ----------------------------- |
| Approx. total storage required per process          731.8 MB       771.7 MB |
|                                                                             |
| Requirements will fluctuate during execution and may exceed these estimates |
+-----------------------------------------------------------------------------+
Calculating finite basis set correction with  3 cut-off energies.
Calculating total energy with cut-off of  890.000 eV.
------------------------------------------------------------------------ <-- SCF
SCF loop      Energy           Fermi           Energy gain       Timer   <-- SCF
                               energy          per atom          (sec)   <-- SCF
------------------------------------------------------------------------ <-- SCF
Initial  -3.08664074E+003  0.00000000E+000                        21.78  <-- SCF
      1  -3.80650714E+003  2.78332983E+000   1.79966598E+002      44.82  <-- SCF
      2  -3.91107364E+003  5.77820844E-002   2.61416271E+001      59.46  <-- SCF
      3  -3.91549515E+003 -3.63868375E-001   1.10537674E+000      74.42  <-- SCF
      4  -3.92819126E+003  3.39503150E-001   3.17402669E+000      94.46  <-- SCF
      5  -3.92820321E+003  3.39106689E-001   2.98825909E-003     113.06  <-- SCF
      6  -3.92864052E+003  2.99066974E-001   1.09326983E-001     133.30  <-- SCF
      7  -3.92773560E+003  4.03223740E-001  -2.26229360E-001     153.07  <-- SCF
      8  -3.92781399E+003  4.48875192E-001   1.95976659E-002     173.09  <-- SCF
      9  -3.92781392E+003  4.64385017E-001  -1.85499503E-005     195.32  <-- SCF
     10  -3.92781441E+003  4.76014158E-001   1.22894346E-004     215.39  <-- SCF
     11  -3.92781467E+003  4.81716549E-001   6.62940339E-005     235.35  <-- SCF
     12  -3.92781473E+003  4.81686690E-001   1.43926861E-005     255.60  <-- SCF
     13  -3.92781474E+003  4.82153607E-001   7.58571815E-007     274.96  <-- SCF
     14  -3.92781474E+003  4.82251258E-001   5.28939504E-007     292.63  <-- SCF
     15  -3.92781474E+003  4.82264595E-001   1.76260384E-008     308.31  <-- SCF
     16  -3.92781474E+003  4.82274746E-001   2.70494589E-009     322.55  <-- SCF
     17  -3.92781474E+003  4.82277152E-001   5.07539883E-010     336.93  <-- SCF
------------------------------------------------------------------------ <-- SCF
 
Final energy, E             =  -3927.812959175     eV
Final free energy (E-TS)    =  -3927.814737497     eV
(energies not corrected for finite basis set)
 
NB est. 0K energy (E-0.5TS)      =  -3927.813848336     eV
 
Calculating total energy with cut-off of  895.000 eV.
------------------------------------------------------------------------ <-- SCF
SCF loop      Energy           Fermi           Energy gain       Timer   <-- SCF
                               energy          per atom          (sec)   <-- SCF
------------------------------------------------------------------------ <-- SCF
Initial  -3.92781296E+003  0.00000000E+000                       345.36  <-- SCF
      1  -3.92781474E+003  4.82279732E-001   4.45281523E-004     363.08  <-- SCF
      2  -3.92781474E+003  4.82279732E-001   3.05490672E-011     378.15  <-- SCF
      3  -3.92781474E+003  4.82280542E-001   3.12257871E-010     392.35  <-- SCF
      4  -3.92781474E+003  4.82279794E-001   3.15158099E-011     406.95  <-- SCF
------------------------------------------------------------------------ <-- SCF
 
Final energy, E             =  -3927.812961988     eV
Final free energy (E-TS)    =  -3927.814740304     eV
(energies not corrected for finite basis set)
 
NB est. 0K energy (E-0.5TS)      =  -3927.813851146     eV
 
Calculating total energy with cut-off of  900.000 eV.
------------------------------------------------------------------------ <-- SCF
SCF loop      Energy           Fermi           Energy gain       Timer   <-- SCF
                               energy          per atom          (sec)   <-- SCF
------------------------------------------------------------------------ <-- SCF
Initial  -3.92781296E+003  0.00000000E+000                       415.20  <-- SCF
      1  -3.92781474E+003  4.82280002E-001   4.45097334E-004     432.96  <-- SCF
      2  -3.92781474E+003  4.82280002E-001   9.47407781E-012     447.17  <-- SCF
      3  -3.92781474E+003  4.82279913E-001   2.23124200E-010     461.39  <-- SCF
      4  -3.92781474E+003  4.82279467E-001   1.85614586E-011     475.51  <-- SCF
------------------------------------------------------------------------ <-- SCF
 
Final energy, E             =  -3927.812964064     eV
Final free energy (E-TS)    =  -3927.814742380     eV
(energies not corrected for finite basis set)
 
NB est. 0K energy (E-0.5TS)      =  -3927.813853222     eV
 
 For future reference: finite basis dEtot/dlog(Ecut) =      -0.000437eV
 Total energy corrected for finite basis set =   -3927.814742 eV
 
 ************************** Forces **************************
 *                                                          *
 *               Cartesian components (eV/A)                *
 * -------------------------------------------------------- *
 *                         x            y            z      *
 *                                                          *
 * P               1     -0.00078     -0.00045     -0.04760 *
 * P               2      0.00078      0.00045     -0.04761 *
 * In              1     -0.00080     -0.00046      0.04761 *
 * In              2      0.00080      0.00047      0.04761 *
 *                                                          *
 ************************************************************
 
 ***************** Stress Tensor *****************
 *                                               *
 *          Cartesian components (GPa)           *
 * --------------------------------------------- *
 *             x             y             z     *
 *                                               *
 *  x     10.299449      0.002394     -0.000000  *
 *  y      0.002394     10.296678      0.000000  *
 *  z     -0.000000      0.000000     10.332472  *
 *                                               *
 *  Pressure:  -10.3095                          *
 *                                               *
 *************************************************
 
 Pseudo atomic calculation performed for P 3s2 3p3
 
 Converged in 23 iterations to a total energy of -208.0292 eV
 
 Pseudo atomic calculation performed for In 4d10 5s2 5p1
 
 Converged in 42 iterations to a total energy of -1747.4504 eV
Charge spilling parameter for spin component 1 = 0.13%
 
            Orbital Populations       
     Ion    Atom   Orbital             Charge
  -------------------------------------------
      P     1      S                    1.844
      P     1      Px                   1.240
      P     1      Py                   1.240
      P     1      Pz                   1.239
      P     2      S                    1.844
      P     2      Px                   1.240
      P     2      Py                   1.240
      P     2      Pz                   1.239
     In     1      Dzz                  1.999
     In     1      Dzy                  2.000
     In     1      Dzx                  2.000
     In     1      Dxx-yy               1.999
     In     1      Dxy                  1.999
     In     1      S                    1.446
     In     1      Px                   0.416
     In     1      Py                   0.417
     In     1      Pz                   0.414
     In     1      S                   -0.253
     In     2      Dzz                  1.999
     In     2      Dzy                  2.000
     In     2      Dzx                  2.000
     In     2      Dxx-yy               1.999
     In     2      Dxy                  1.999
     In     2      S                    1.446
     In     2      Px                   0.416
     In     2      Py                   0.417
     In     2      Pz                   0.414
     In     2      S                   -0.253
  -------------------------------------------
                           Total:      36.000
  -------------------------------------------
 
     Atomic Populations (Mulliken)
     -----------------------------
Species          Ion     s      p      d      f     Total  Charge (e)
=====================================================================
  P               1     1.84   3.72   0.00   0.00   5.56    -0.56
  P               2     1.84   3.72   0.00   0.00   5.56    -0.56
  In              1     1.19   1.25  10.00   0.00  12.44     0.56
  In              2     1.19   1.25  10.00   0.00  12.44     0.56
=====================================================================
 
                 Bond                   Population      Length (A)
======================================================================
               P 1 -- In 2                   1.49        2.88750
               P 2 -- In 1                   1.49        2.88750
               P 2 -- In 2                   0.32        2.89634
               P 1 -- In 1                   0.32        2.89634
======================================================================
 
 
 A BibTeX formatted list of references used in this run has been written to 
 WZ_EOS_1.1309.bib
 
Initialisation time =     16.30 s
Calculation time    =    522.77 s
Finalisation time   =      0.26 s
Total time          =    539.34 s
Peak Memory Use     = 1875376 kB
  
Overall parallel efficiency rating: Excellent (96%)                             
  
Data was distributed by:-
k-point (32-way); efficiency rating: Excellent (96%)                            
  
Parallel notes:
1) Calculation only took 539.1 s, so efficiency estimates may be inaccurate.    
