65
Lattice="11.80255 0.0 0.0 0.0 11.80255 0.0 0.0 0.0 11.80255" Properties=species:S:1:pos:R:3:mulliken_charges:R:1 fermi_energy=4.781312370495001 core_to_fermi_energy=16.851734769525017 config_type=Interstitial energy=-223.26641261998853 pbc="T T T"
P        1.47531875       1.47531875       4.29850738      -0.63200000
P        4.29850738       1.47531875       1.47531875      -0.63200000
P        1.47531875       4.29850738       1.47531875      -0.63200000
P        4.41915107       4.41915107       4.41915107      -0.67300000
P        1.47531875       1.47531875      10.45468012      -0.63200000
P        4.41640165       1.47531875       7.37659375      -0.67100000
P        1.47531875       4.41640165       7.37659375      -0.67100000
P        4.51968418       4.51968418      10.23350332      -0.67000000
P        1.47531875       7.37659375       4.41640165      -0.67100000
P        4.41640165       7.37659375       1.47531875      -0.67100000
P        1.47531875      10.45468012       1.47531875      -0.63200000
P        4.51968418      10.23350332       4.51968418      -0.67000000
P        1.47531875       7.37659375      10.33678585      -0.67100000
P        4.43010986       7.37659375       7.37659375      -0.67400000
P        1.47531875      10.33678585       7.37659375      -0.67100000
P        4.41915107      10.33403643      10.33403643      -0.67300000
P        7.37659375       1.47531875       4.41640165      -0.67100000
P       10.45468012       1.47531875       1.47531875      -0.63200000
P        7.37659375       4.41640165       1.47531875      -0.67100000
P       10.23350332       4.51968418       4.51968418      -0.67000000
P        7.37659375       1.47531875      10.33678585      -0.67100000
P       10.33678585       1.47531875       7.37659375      -0.67100000
P        7.37659375       4.43010986       7.37659375      -0.67400000
P       10.33403643       4.41915107      10.33403643      -0.67300000
P        7.37659375       7.37659375       4.43010986      -0.67400000
P       10.33678585       7.37659375       1.47531875      -0.67100000
P        7.37659375      10.33678585       1.47531875      -0.67100000
P       10.33403643      10.33403643       4.41915107      -0.67300000
P        7.37659375       7.37659375      10.32307764      -0.67400000
P       10.32307764       7.37659375       7.37659375      -0.67400000
P        7.37659375      10.32307764       7.37659375      -0.67400000
P       10.23350332      10.23350332      10.23350332      -0.67000000
In      -0.15868827      -0.15868827      -0.15868827       0.61300000
In       3.10932577      -0.15868827       3.10932577       0.61300000
In      -0.15868827       3.10932577       3.10932577       0.61300000
In       3.10932577       3.10932577      -0.15868827       0.61300000
In       0.00351603       0.00351603       5.88540505       0.66000000
In       2.94712147       0.00351603       8.86778245       0.66000000
In       0.00351603       2.94712147       8.86778245       0.66100000
In       2.94712147       2.94712147       5.88540505       0.66000000
In       0.00351603       5.88540505       0.00351603       0.66000000
In       2.94712147       5.88540505       2.94712147       0.66000000
In       0.00351603       8.86778245       2.94712147       0.66100000
In       2.94712147       8.86778245       0.00351603       0.66100000
In      -0.00074445       5.92813018       5.92813018       0.65700000
In       2.95138195       5.92813018       8.82505732       0.65700000
In      -0.00074445       8.82505732       8.82505732       0.65700000
In       2.95138195       8.82505732       5.92813018       0.65700000
In       5.88540505       0.00351603       0.00351603       0.66000000
In       8.86778245       0.00351603       2.94712147       0.66000000
In       5.88540505       2.94712147       2.94712147       0.66000000
In       8.86778245       2.94712147       0.00351603       0.66100000
In       5.92813018      -0.00074445       5.92813018       0.65700000
In       8.82505732      -0.00074445       8.82505732       0.65700000
In       5.92813018       2.95138195       8.82505732       0.65700000
In       8.82505732       2.95138195       5.92813018       0.65700000
In       5.92813018       5.92813018      -0.00074445       0.65700000
In       8.82505732       5.92813018       2.95138195       0.65700000
In       5.92813018       8.82505732       2.95138195       0.65700000
In       8.82505732       8.82505732      -0.00074445       0.65700000
In       5.90073221       5.90073221       5.90073221       0.66500000
In       8.85245529       5.90073221       8.85245529       0.66500000
In       5.90073221       8.85245529       8.85245529       0.66500000
In       8.85245529       8.85245529       5.90073221       0.66500000
In       1.47531875       1.47531875       1.47531875       0.34500000
65
Lattice="11.80255 0.0 0.0 0.0 11.80255 0.0 0.0 0.0 11.80255" Properties=species:S:1:pos:R:3:mulliken_charges:R:1 fermi_energy=4.781312370495001 core_to_fermi_energy=16.851734769525017 config_type=Interstitial energy=-223.35634516808864 pbc="T T T"
P        1.50963400       1.44100350       4.36788052      -0.63200000
P        4.31375138       1.45972662       1.47061070      -0.63200000
P        1.50963400       4.35699644       1.45188758      -0.63200000
P        4.44209531       4.40212282       4.41300690      -0.67300000
P        1.49091088       1.45972662      10.45032019      -0.63200000
P        4.44315864       1.45166301       7.36667384      -0.67100000
P        1.50030837       4.40064217       7.37374213      -0.67100000
P        4.56298246       4.51976873      10.20108911      -0.67000000
P        1.50030837       7.36285805       4.41152625      -0.67100000
P        4.44315864       7.35578976       1.46254709      -0.67100000
P        1.49091088      10.43943612       1.47061070      -0.63200000
P        4.56298246      10.19020504       4.53065280      -0.67000000
P        1.49897449       7.35578976      10.32091293      -0.67100000
P        4.46413191       7.35272696       7.36361104      -0.67400000
P        1.49897449      10.31002886       7.36667384      -0.67100000
P        4.43061558      10.32257192      10.33345599      -0.67300000
P        7.39032945       1.45032913       4.41152625      -0.67100000
P       10.39619106       1.44100350       1.45188758      -0.63200000
P        7.39032945       4.40064217       1.46121321      -0.67100000
P       10.32294392       4.43024358       4.44112766      -0.67000000
P        7.39739774       1.45166301      10.32091293      -0.67100000
P       10.35254533       1.45032913       7.37374213      -0.67100000
P        7.42146497       4.39783407       7.34260661      -0.67400000
P       10.35106468       4.40212282      10.32197627      -0.67300000
P        7.42146497       7.33172253       4.40871815      -0.67400000
P       10.35254533       7.36285805       1.46121321      -0.67100000
P        7.39739774      10.31002886       1.46254709      -0.67100000
P       10.35106468      10.31109219       4.41300690      -0.67300000
P        7.40046054       7.35272696      10.29993967      -0.67400000
P       10.35535343       7.33172253       7.34260661      -0.67400000
P        7.40046054      10.28905559       7.36361104      -0.67400000
P       10.23341877      10.19020504      10.20108911      -0.67000000
In      -0.25731674      -0.16416072      -0.15327664       0.61300000
In       3.11479822      -0.16416072       3.21883832       0.61300000
In      -0.04326858       2.99390608       3.00479016       0.61300000
In       3.11479822       3.20795424      -0.15327664       0.61300000
In       0.01612353      -0.02114484       5.89201231       0.66000000
In       2.96474856      -0.01411106       8.85313010       0.66000000
In       0.01858890       2.93204860       8.85288547       0.66100000
In       2.97178234       2.93451397       5.89201231       0.66000000
In       0.01612353       5.88112824      -0.01026076       0.66000000
In       2.97178234       5.88112824       2.94539805       0.66000000
In       0.01858890       8.84200140       2.94293268       0.66100000
In       2.96474856       8.84224602      -0.00322699       0.66100000
In       0.02916362       5.87705733       5.88794141       0.65700000
In       2.97744107       5.91716531       8.80665479       0.65700000
In       0.01940796       8.79213073       8.80301481       0.65700000
In       2.97744107       8.79577072       5.92804939       0.65700000
In       5.91094148      -0.01411106      -0.00322699       0.66000000
In       8.87205926      -0.02114484       2.94539805       0.66000000
In       5.91118610       2.93204860       2.94293268       0.66000000
In       8.87205926       2.93451397      -0.01026076       0.66100000
In       5.95741678      -0.02680357       5.92804939       0.65700000
In       8.83602219      -0.02680357       8.80665479       0.65700000
In       5.96105677       2.93122954       8.80301481       0.65700000
In       8.87613017       2.92147388       5.88794141       0.65700000
In       5.95741678       5.91716531      -0.01591950       0.65700000
In       8.87613017       5.87705733       2.93235796       0.65700000
In       5.96105677       8.79213073       2.94211362       0.65700000
In       8.83602219       8.79577072      -0.01591950       0.65700000
In       5.93414660       5.87583640       5.88672048       0.66500000
In       8.87735110       5.87583640       8.82992498       0.66500000
In       5.91830634       8.83488116       8.84576524       0.66500000
In       8.87735110       8.81904090       5.88672048       0.66500000
In       1.79728510       1.15335240       1.16423648       0.34500000
65
Lattice="11.80255 0.0 0.0 0.0 11.80255 0.0 0.0 0.0 11.80255" Properties=species:S:1:pos:R:3:mulliken_charges:R:1 fermi_energy=4.781312370495001 core_to_fermi_energy=16.851734769525017 config_type=Interstitial energy=-223.3565762864815 pbc="T T T"
P        1.49551851       1.45511899       4.37605923      -0.63200000
P        4.29992851       1.47631929       1.48059635      -0.63200000
P        1.49551851       4.37178217       1.45939605      -0.63200000
P        4.42591223       4.42014231       4.42441937      -0.67300000
P        1.47431821       1.47631929      10.45753605      -0.63200000
P        4.42682424       1.46987244       7.37585977      -0.67100000
P        1.48304916       4.41731063       7.38252534      -0.67100000
P        4.54744803       4.53819216      10.21001653      -0.67000000
P        1.48304916       7.37824828       4.42158769      -0.67100000
P        4.42682424       7.37158271       1.47414950      -0.67100000
P        1.47431821      10.45325899       1.48059635      -0.63200000
P        4.54744803      10.20573947       4.54246922      -0.67000000
P        1.48076506       7.37158271      10.33064032      -0.67100000
P        4.44633301       7.37147148       7.37574854      -0.67400000
P        1.48076506      10.32636326       7.37585977      -0.67100000
P        4.41100071      10.34218679      10.34646385      -0.67300000
P        7.37493922       1.46758834       4.42158769      -0.67100000
P       10.38140533       1.45511899       1.45939605      -0.63200000
P        7.37493922       4.41731063       1.47186540      -0.67100000
P       10.30988531       4.44330219       4.44757925      -0.67000000
P        7.38160479       1.46987244      10.33064032      -0.67100000
P       10.33587687       1.46758834       7.38252534      -0.67100000
P        7.40589255       4.41585381       7.35157201      -0.67400000
P       10.33304519       4.42014231      10.33155233      -0.67300000
P        7.40589255       7.34729495       4.42013087      -0.67400000
P       10.33587687       7.37824828       1.47186540      -0.67100000
P        7.38160479      10.32636326       1.47414950      -0.67100000
P       10.33304519      10.32727527       4.42441937      -0.67300000
P        7.38171602       7.37147148      10.31113155      -0.67400000
P       10.33733369       7.34729495       7.35157201      -0.67400000
P        7.38171602      10.30685449       7.37574854      -0.67400000
P       10.21499534      10.20573947      10.21001653      -0.67000000
In      -0.27304049      -0.14992875      -0.14565169       0.61300000
In       3.10056625      -0.14992875       3.22795505       0.61300000
In      -0.05582820       3.00646570       3.01074277       0.61300000
In       3.10056625       3.22367799      -0.14565169       0.61300000
In      -0.00048010      -0.00400716       5.90060382       0.66000000
In       2.94745849       0.00317901       8.86071595       0.66000000
In       0.00053729       2.95010021       8.86169490       0.66100000
In       2.95464466       2.95111760       5.90060382       0.66000000
In      -0.00048010       5.89632676       0.00026990       0.66000000
In       2.95464466       5.89632676       2.95539466       0.66000000
In       0.00053729       8.85741784       2.95437727       0.66100000
In       2.94745849       8.85643889       0.00745607       0.66100000
In       0.01143790       5.89220970       5.89648676       0.65700000
In       2.95947934       5.93385049       8.81624258       0.65700000
In       0.00123092       8.80782152       8.81209858       0.65700000
In       2.95947934       8.81196551       5.93812755       0.65700000
In       5.89674861       0.00317901       0.00745607       0.66000000
In       8.85686074      -0.00400716       2.95539466       0.66000000
In       5.89576966       2.95010021       2.95437727       0.66000000
In       8.85686074       2.95111760       0.00026990       0.66100000
In       5.94122199      -0.00884184       5.93812755       0.65700000
In       8.81933701      -0.00884184       8.81624258       0.65700000
In       5.94536598       2.94940658       8.81209858       0.65700000
In       8.86097780       2.93919960       5.89648676       0.65700000
In       5.94122199       5.93385049      -0.00456478       0.65700000
In       8.86097780       5.89220970       2.94347666       0.65700000
In       5.94536598       8.80782152       2.95368364       0.65700000
In       8.81933701       8.81196551      -0.00456478       0.65700000
In       5.91671326       5.89448505       5.89876211       0.66500000
In       8.85870245       5.89448505       8.84075130       0.66500000
In       5.89850416       8.85468334       8.85896040       0.66500000
In       8.85870245       8.83647424       5.89876211       0.66500000
In       1.78754190       1.16309560       1.16737266       0.34500000
65
Lattice="11.80255 0.0 0.0 0.0 11.80255 0.0 0.0 0.0 11.80255" Properties=species:S:1:pos:R:3:mulliken_charges:R:1 fermi_energy=4.781312370495001 core_to_fermi_energy=16.851734769525017 config_type=Interstitial energy=-223.35484118480227 pbc="T T T"
P        1.51058539       1.44005211       4.36581837      -0.63200000
P        4.32017835       1.46301927       1.47268284      -0.63200000
P        1.51058539       4.35615480       1.44971568      -0.63200000
P        4.44062476       4.40849609       4.41815966      -0.67300000
P        1.48761823       1.46301927      10.44267272      -0.63200000
P        4.44042424       1.45855111       7.36565233      -0.67100000
P        1.49542408       4.40467623       7.37241643      -0.67100000
P        4.56130264       4.52647973      10.20154843      -0.67000000
P        1.49542408       7.36275286       4.41433980      -0.67100000
P        4.44042424       7.35598876       1.46821468      -0.67100000
P        1.48761823      10.43300915       1.47268284      -0.63200000
P        4.56130264      10.19188486       4.53614330      -0.67000000
P        1.49208639       7.35598876      10.32242683      -0.67100000
P        4.45737152       7.36163974       7.37130330      -0.67400000
P        1.49208639      10.31276326       7.36565233      -0.67100000
P        4.41922365      10.33396385      10.34362742      -0.67300000
P        7.39043464       1.45521342       4.41433980      -0.67100000
P       10.39703270       1.44005211       1.44971568      -0.63200000
P        7.39043464       4.40467623       1.46487699      -0.67100000
P       10.32643293       4.42675457       4.43641814      -0.67000000
P        7.39719874       1.45855111      10.32242683      -0.67100000
P       10.34851127       1.45521342       7.37241643      -0.67100000
P        7.41891077       4.40501280       7.34394030      -0.67400000
P       10.34469141       4.40849609      10.32222631      -0.67300000
P        7.41891077       7.33427673       4.41467637      -0.67400000
P       10.34851127       7.36275286       1.46487699      -0.67100000
P        7.39719874      10.31276326       1.46821468      -0.67100000
P       10.34469141      10.31256274       4.41815966      -0.67300000
P        7.39154777       7.36163974      10.30547955      -0.67400000
P       10.34817470       7.33427673       7.34394030      -0.67400000
P        7.39154777      10.29581598       7.37130330      -0.67400000
P       10.22670777      10.19188486      10.20154843      -0.67000000
In      -0.26209000      -0.16385059      -0.15418702       0.61300000
In       3.11448809      -0.16385059       3.22239107       0.61300000
In      -0.03777807       2.98841557       2.99807914       0.61300000
In       3.11448809       3.21272750      -0.15418702       0.61300000
In       0.01202719      -0.01652322       5.89057417       0.66000000
In       2.95981542      -0.00917792       8.84788481       0.66000000
In       0.01182201       2.93881549       8.85085085       0.66100000
In       2.96716072       2.93861031       5.89057417       0.66000000
In       0.01202719       5.88091060      -0.00685965       0.66000000
In       2.96716072       5.88091060       2.94827388       0.66000000
In       0.01182201       8.84118728       2.94847906       0.66100000
In       2.95981542       8.83822124       0.00048565       0.66100000
In       0.02218961       5.87852991       5.88819348       0.65700000
In       2.97114756       5.92001564       8.80781130       0.65700000
In       0.01351733       8.79424649       8.80391006       0.65700000
In       2.97114756       8.79814773       5.92967921       0.65700000
In       5.91496626      -0.00917792       0.00048565       0.66000000
In       8.87227690      -0.01652322       2.94827388       0.66000000
In       5.91200022       2.93881549       2.94847906       0.66000000
In       8.87227690       2.93861031      -0.00685965       0.66100000
In       5.95503977      -0.02051006       5.92967921       0.65700000
In       8.83317186      -0.02051006       8.80781130       0.65700000
In       5.95894101       2.93712017       8.80391006       0.65700000
In       8.87465759       2.92844789       5.88819348       0.65700000
In       5.95503977       5.92001564      -0.01084649       0.65700000
In       8.87465759       5.87852991       2.93811146       0.65700000
In       5.95894101       8.79424649       2.94678374       0.65700000
In       8.83317186       8.79814773      -0.01084649       0.65700000
In       5.92806475       5.88461889       5.89428246       0.66500000
In       8.86856861       5.88461889       8.83478632       0.66500000
In       5.90678825       8.84639925       8.85606282       0.66500000
In       8.86856861       8.82512275       5.89428246       0.66500000
In       1.81770491       1.13293259       1.14259616       0.34500000
65
Lattice="11.80255 0.0 0.0 0.0 11.80255 0.0 0.0 0.0 11.80255" Properties=species:S:1:pos:R:3:mulliken_charges:R:1 fermi_energy=4.781312370495001 core_to_fermi_energy=16.851734769525017 config_type=Interstitial energy=-223.30267439181867 pbc="T T T"
P        1.51536984       1.43526766       4.35715123      -0.63200000
P        4.35635518       1.46078989       1.47153703      -0.63200000
P        1.51536984       4.34640408       1.44601481      -0.63200000
P        4.44807288       4.41248490       4.42323204      -0.67300000
P        1.48984761       1.46078989      10.40757947      -0.63200000
P        4.44494654       1.46266941       7.35426017      -0.67100000
P        1.49505321       4.40607062       7.36398835      -0.67100000
P        4.56302198       4.52849741      10.20091267      -0.67000000
P        1.49505321       7.35324120       4.41681777      -0.67100000
P        4.44494654       7.34351303       1.47341655      -0.67100000
P        1.48984761      10.39683232       1.47153703      -0.63200000
P        4.56302197      10.19016553       4.53924456      -0.67000000
P        1.48796809       7.34351303      10.31898811      -0.67100000
P        4.45389609       7.37109703       7.38184418      -0.67400000
P        1.48796809      10.30824096       7.35426017      -0.67100000
P        4.40008523      10.35310227      10.36384942      -0.67300000
P        7.39994630       1.45558429       4.41681777      -0.67100000
P       10.40678342       1.43526766       1.44601481      -0.63200000
P        7.39994630       4.40607062       1.46633143      -0.67100000
P       10.33838939       4.41479811       4.42554526      -0.67000000
P        7.40967447       1.46266941      10.31898811      -0.67100000
P       10.34711688       1.45558429       7.36398835      -0.67100000
P        7.41948975       4.40959815       7.34444490      -0.67400000
P       10.34070260       4.41248490      10.31586177      -0.67300000
P        7.41948975       7.33369775       4.42034529      -0.67400000
P       10.34711688       7.35324120       1.46633143      -0.67100000
P        7.40967447      10.30824096       1.47341655      -0.67100000
P       10.34070260      10.30511462       4.42323204      -0.67300000
P        7.38209047       7.37109703      10.31003856      -0.67400000
P       10.34358935       7.33369775       7.34444490      -0.67400000
P        7.38209047      10.29929141       7.38184418      -0.67400000
P       10.22469009      10.19016553      10.20091267      -0.67000000
In      -0.27630021      -0.16154519      -0.15079805       0.61300000
In       3.11218269      -0.16154519       3.23768486       0.61300000
In      -0.01893110       2.96956860       2.98031575       0.61300000
In       3.11218269       3.22693771      -0.15079805       0.61300000
In       0.00990779      -0.01615849       5.88306831       0.66000000
In       2.95844199      -0.00780449       8.82373780       0.66000000
In       0.00576033       2.94487717       8.83717075       0.66100000
In       2.96679599       2.94072971       5.88306831       0.66000000
In       0.00990779       5.87232117      -0.00541134       0.66000000
In       2.96679599       5.87232117       2.95147685       0.66000000
In       0.00576033       8.82642360       2.95562432       0.66100000
In       2.95844199       8.81299066       0.00294265       0.66100000
In       0.01673222       5.87547871       5.88622586       0.65700000
In       2.96939938       5.91545522       8.80418424       0.65700000
In       0.01342229       8.79282388       8.80357103       0.65700000
In       2.96939938       8.79343710       5.92620236       0.65700000
In       5.94019684      -0.00780449       0.00294265       0.66000000
In       8.88086633      -0.01615849       2.95147685       0.66000000
In       5.92676390       2.94487717       2.95562432       0.66000000
In       8.88086633       2.94072971      -0.00541134       0.66100000
In       5.95975040      -0.01876188       5.92620236       0.65700000
In       8.83773228      -0.01876188       8.80418424       0.65700000
In       5.96036362       2.93721521       8.80357103       0.65700000
In       8.87770879       2.93390528       5.88622586       0.65700000
In       5.95975040       5.91545522      -0.00801473       0.65700000
In       8.87770879       5.87547871       2.94465243       0.65700000
In       5.96036362       8.79282388       2.94796235       0.65700000
In       8.83773228       8.79343710      -0.00801473       0.65700000
In       5.92539579       5.89350320       5.90425035       0.66500000
In       8.85968430       5.89350320       8.83853886       0.66500000
In       5.89014895       8.86303855       8.87378570       0.66500000
In       8.85968430       8.82779171       5.90425035       0.66500000
In       1.90481420       1.04582330       1.05657045       0.34500000
65
Lattice="11.80255 0.0 0.0 0.0 11.80255 0.0 0.0 0.0 11.80255" Properties=species:S:1:pos:R:3:mulliken_charges:R:1 fermi_energy=4.781312370495001 core_to_fermi_energy=16.851734769525017 config_type=Interstitial energy=-223.1536583721734 pbc="T T T"
P        1.51173216       1.43890534       4.36766016      -0.63200000
P        4.38740051       1.46221558       1.47296273      -0.63200000
P        1.51173216       4.35691301       1.44965248      -0.63200000
P        4.45050596       4.41649189       4.42723903      -0.67300000
P        1.48842192       1.46221558      10.37653413      -0.63200000
P        4.44726899       1.46596939       7.34916871      -0.67100000
P        1.49399307       4.41028855       7.36198212      -0.67100000
P        4.55863628       4.52846919      10.20529837      -0.67000000
P        1.49399307       7.35123497       4.42103569      -0.67100000
P        4.44726899       7.33842156       1.47671654      -0.67100000
P        1.48842192      10.36578699       1.47296273      -0.63200000
P        4.55863628      10.19455122       4.53921633      -0.67000000
P        1.48466811       7.33842156      10.31666566      -0.67100000
P        4.45240574       7.37698590       7.38773304      -0.67400000
P        1.48466811      10.30591851       7.34916871      -0.67100000
P        4.38245063      10.37073687      10.38148401      -0.67300000
P        7.40195253       1.45664443       4.42103569      -0.67100000
P       10.39627449       1.43890534       1.44965248      -0.63200000
P        7.40195253       4.41028855       1.46739158      -0.67100000
P       10.34244741       4.41074009       4.42148724      -0.67000000
P        7.41476594       1.46596939      10.31666566      -0.67100000
P       10.34289895       1.45664443       7.36198212      -0.67100000
P        7.41830508       4.41202618       7.34562957      -0.67400000
P       10.33669561       4.41649189      10.31342868      -0.67300000
P        7.41830508       7.33488242       4.42277333      -0.67400000
P       10.34289895       7.35123497       1.46739158      -0.67100000
P        7.41476594      10.30591851       1.47671654      -0.67100000
P       10.33669561      10.30268154       4.42723903      -0.67300000
P        7.37620160       7.37698590      10.31152891      -0.67400000
P       10.34116132       7.33488242       7.34562957      -0.67400000
P        7.37620160      10.30078176       7.38773304      -0.67400000
P       10.22471831      10.19455122      10.20529837      -0.67000000
In      -0.29540781      -0.14923845      -0.13849130       0.61300000
In       3.09987595      -0.14923845       3.25679245       0.61300000
In      -0.00889329       2.95953079       2.97027794       0.61300000
In       3.09987595       3.24604531      -0.13849130       0.61300000
In       0.00497253      -0.01565141       5.88386689       0.66000000
In       2.95510970      -0.00447220       8.80495430       0.66000000
In      -0.00029902       2.95093652       8.82858528       0.66100000
In       2.96628891       2.94566497       5.88386689       0.66000000
In       0.00497253       5.87311974      -0.00490426       0.66000000
In       2.96628891       5.87311974       2.95641211       0.66000000
In      -0.00029902       8.81783814       2.96168366       0.66100000
In       2.95510970       8.79420715       0.00627495       0.66100000
In       0.01388355       5.87526221       5.88600935       0.65700000
In       2.96832339       5.91459711       8.80363040       0.65700000
In       0.01194104       8.79467669       8.80542384       0.65700000
In       2.96832339       8.79288325       5.92534426       0.65700000
In       5.95898035      -0.00447220       0.00627495       0.66000000
In       8.88006776      -0.01565141       2.95641211       0.66000000
In       5.93534936       2.95093652       2.96168366       0.66000000
In       8.88006776       2.94566497      -0.00490426       0.66100000
In       5.96030425      -0.01768589       5.92534426       0.65700000
In       8.83859039      -0.01768589       8.80363040       0.65700000
In       5.95851081       2.93869646       8.80542384       0.65700000
In       8.87792529       2.93675395       5.88600935       0.65700000
In       5.96030425       5.91459711      -0.00693875       0.65700000
In       8.87792529       5.87526221       2.94750109       0.65700000
In       5.95851081       8.79467669       2.94944361       0.65700000
In       8.83859039       8.79288325      -0.00693875       0.65700000
In       5.92424643       5.89857065       5.90931780       0.66500000
In       8.85461685       5.89857065       8.83968822       0.66500000
In       5.87852743       8.87466007       8.88540722       0.66500000
In       8.85461685       8.82894107       5.90931780       0.66500000
In       2.00610225       0.94453525       0.95528239       0.34500000
65
Lattice="11.80255 0.0 0.0 0.0 11.80255 0.0 0.0 0.0 11.80255" Properties=species:S:1:pos:R:3:mulliken_charges:R:1 fermi_energy=4.781312370495001 core_to_fermi_energy=16.851734769525017 config_type=Interstitial energy=-223.003846570413 pbc="T T T"
P        1.50682779       1.44380971       4.38688713      -0.63200000
P        4.41111257       1.46560771       1.47635486      -0.63200000
P        1.50682779       4.37613998       1.45455686      -0.63200000
P        4.45200599       4.41919947       4.42994662      -0.67300000
P        1.48502979       1.46560771      10.35282207      -0.63200000
P        4.44888360       1.46787429       7.34740743      -0.67100000
P        1.49357631       4.41349497       7.36142114      -0.67100000