63
Lattice="11.8016818 -7.6e-06 -7.6e-06 -7.6e-06 11.8016818 -7.8e-06 -7.6e-06 -7.8e-06 11.8016816" Properties=species:S:1:pos:R:3:mulliken_charges:R:1 virial="-0.001343979365248383 3.847269175329341e-05 3.847269175329341e-05 3.847269175329341e-05 -0.001345261788306826 3.847269175329341e-05 3.847269175329341e-05 3.847269175329341e-05 -0.0013426969421899398" fermi_energy=3.4539138232004998 core_to_fermi_energy=15.43004959127955 config_type=Accurate_Bulk energy=-216.50380093011293 pbc="T T T"
P        1.46104483       1.46104477       4.43021901      -0.67500000
P        4.43021909       1.46104483       1.46104481      -0.67500000
P        1.46104483       4.43021908       1.46104475      -0.67500000
P        4.25450283       4.25450280       4.25450277      -0.67500000
In       0.00000077       0.00000075       0.00000075       0.67500000
In       2.94542096       0.01395514       2.94542088       0.67500000
In       0.01395521       2.94542090       2.94542084       0.67500000
In       2.94542097       2.94542095       0.01395514       0.67500000
P        1.47280661       1.47280644      10.32886492      -0.67500000
P        4.41587631       1.45471383       7.38579482      -0.67500000
P        1.45471394       4.41587619       7.38579477      -0.67500000
P        4.41587252       4.41587236      10.34695283      -0.67500000
In      -0.00000294      -0.00000306       5.90084147       0.67500000
In       2.94541674      -0.01396474       8.85625874       0.67500000
In      -0.01396456       2.94541656       8.85625869       0.67500000
In       2.93706745       2.93706734       5.91402598       0.67500000
P        1.45471394       7.38579490       4.41587612      -0.67500000
P        4.41587631       7.38579495       1.45471382      -0.67500000
P        1.47280661      10.32886509       1.47280642      -0.67500000
P        4.41587251      10.34695302       4.41587228      -0.67500000
In      -0.00000294       5.90084157      -0.00000306       0.67500000
In       2.93706745       5.91402610       2.93706728       0.67500000
In      -0.01396456       8.85625883       2.94541650       0.67500000
In       2.94541674       8.85625888      -0.01396474       0.67500000
P        1.46103642       7.37145262      10.34062646      -0.67500000
P        4.25449704       7.54716446       7.54716428      -0.67500000
P        1.46103642      10.34062664       7.37145249      -0.67500000
P        4.43020716      10.34062260      10.34062242      -0.67500000
In      -0.00000684       5.90083762       5.90083752       0.67500000
In       2.93706190       5.88764568       8.86460557       0.67500000
In       0.01394663       8.85625451       8.85625437       0.67500000
In       2.93706191       8.86460571       5.88764560       0.67500000
P        7.38579496       1.45471389       4.41587623      -0.67500000
P       10.32886510       1.47280660       1.47280657      -0.67500000
P        7.38579496       4.41587630       1.45471388      -0.67500000
P       10.34695307       4.41587246       4.41587239      -0.67500000
In       5.90084159      -0.00000296      -0.00000296       0.67500000
In       8.85625890      -0.01396463       2.94541666       0.67500000
In       5.91402615       2.93706740       2.93706735       0.67500000
In       8.85625889       2.94541672      -0.01396463       0.67500000
P        7.37145279       1.46103626      10.34062657      -0.67500000
P       10.34062675       1.46103630       7.37145265      -0.67500000
P        7.54716457       4.25449693       7.54716436      -0.67500000
P       10.34062276       4.43020700      10.34062253      -0.67500000
In       5.90083774      -0.00000696       5.90083762       0.67500000
In       8.85625468       0.01394645       8.85625452       0.67500000
In       5.88764585       2.93706172       8.86460564       0.67500000
In       8.86460583       2.93706179       5.88764572       0.67500000
P        7.54716457       7.54716453       4.25449690      -0.67500000
P       10.34062675       7.37145278       1.46103629      -0.67500000
P        7.37145279      10.34062675       1.46103623      -0.67500000
P       10.34062277      10.34062271       4.43020692      -0.67500000
In       5.90083774       5.90083772      -0.00000696       0.67500000
In       8.86460583       5.88764580       2.93706173       0.67500000
In       5.88764585       8.86460579       2.93706166       0.67500000
In       8.85625468       8.85625466       0.01394645       0.67500000
P        7.38578684       7.38578668      10.34694849      -0.67500000
P       10.34694878       7.38578673       7.38578660      -0.67500000
P        7.38578684      10.34694868       7.38578655      -0.67500000
P       10.32885315      10.32885298      10.32885280      -0.67500000
In       8.86460048       5.91401699       8.86460022       0.67500000
In       5.91401716       8.86460029       8.86460015       0.67500000
In       8.86460047       8.86460036       5.91401687       0.67500000
63
Lattice="11.8016818 -7.6e-06 -7.6e-06 -7.6e-06 11.8016818 -7.8e-06 -7.6e-06 -7.8e-06 11.8016816" Properties=species:S:1:pos:R:3:mulliken_charges:R:1 virial="-0.001343979365248383 3.847269175329341e-05 3.847269175329341e-05 3.847269175329341e-05 -0.001345261788306826 3.847269175329341e-05 3.847269175329341e-05 3.847269175329341e-05 -0.0013426969421899398" fermi_energy=3.4539138232004998 core_to_fermi_energy=15.43004959127955 config_type=Accurate_Bulk energy=-216.48202568639428 pbc="T T T"
P        1.49354180       1.49354186       4.43980064      -0.67500000
P        4.43979979       1.49354091       1.49354139      -0.67500000
P        1.49354098       4.43979995       1.49354152      -0.67500000
P        4.32649125       4.32649061       4.32648784      -0.67500000
In       0.00205237       0.00205251       0.00205322       0.67500000
In       2.95291844       0.02715234       2.95291927       0.67500000
In       0.02715228       2.95291854       2.95291922       0.67500000
In       2.95291848       2.95291862       0.02715288       0.67500000
P        1.47931268       1.47931271      10.34031798      -0.67500000
P        4.42407241       1.45850088       7.39230378      -0.67500000
P        1.45850106       4.42407241       7.39230357      -0.67500000
P        4.41741738       4.41741738      10.34972231      -0.67500000
In       0.02311762       0.02311735       5.89446395       0.67500000
In       2.94531404      -0.00571473       8.86116618       0.67500000
In      -0.00571459       2.94531413       8.86116605       0.67500000
In       2.97034137       2.97034115       5.92622046       0.67500000
P        1.45850029       7.39230385       4.42407273      -0.67500000
P        4.42407232       7.39230475       1.45849978      -0.67500000
P        1.47931253      10.34031759       1.47931340      -0.67500000
P        4.41741729      10.34972189       4.41741794      -0.67500000
In       0.02311722       5.89446263       0.02311625       0.67500000
In       2.97033976       5.92622220       2.97033908       0.67500000
In      -0.00571547       8.86116625       2.94531478       0.67500000
In       2.94531357       8.86116676      -0.00571543       0.67500000
P        1.45842273       7.37512710      10.35393858      -0.67500000
P        4.23362787       7.58599978       7.58600003      -0.67500000
P        1.45842253      10.35393872       7.37512800      -0.67500000
P        4.42653281      10.36269111      10.36269055      -0.67500000
In       0.00092761       5.90312081       5.90312121       0.67500000
In       2.93262541       5.89481133       8.87813352       0.67500000
In       0.01829165       8.85991450       8.85991514       0.67500000
In       2.93262491       8.87813341       5.89481196       0.67500000
P        7.39230410       1.45850000       4.42407281      -0.67500000
P       10.34031748       1.47931267       1.47931352      -0.67500000
P        7.39230479       4.42407240       1.45849967      -0.67500000
P       10.34972181       4.41741738       4.41741803      -0.67500000
In       5.89446233       0.02311696       0.02311626       0.67500000
In       8.86116641      -0.00571569       2.94531484       0.67500000
In       5.92622262       2.97033926       2.97033879       0.67500000
In       8.86116679       2.94531371      -0.00571550       0.67500000
P        7.37512706       1.45842247      10.35393892      -0.67500000
P       10.35393905       1.45842228       7.37512818      -0.67500000
P        7.58600067       4.23362694       7.58600099      -0.67500000
P       10.36269151       4.42653295      10.36269080      -0.67500000
In       5.90312084       0.00092757       5.90312133       0.67500000
In       8.85991450       0.01829167       8.85991531       0.67500000
In       5.89481130       2.93262510       8.87813386       0.67500000
In       8.87813373       2.93262457       5.89481205       0.67500000
P        7.58600466       7.58600473       4.23362308      -0.67500000
P       10.35394009       7.37512736       1.45842183      -0.67500000
P        7.37512714      10.35394010       1.45842182      -0.67500000
P       10.36269216      10.36269202       4.42653429      -0.67500000
In       5.90312094       5.90312103       0.00092792       0.67500000
In       8.87813493       5.89481127       2.93262399       0.67500000
In       5.89481116       8.87813495       2.93262402       0.67500000
In       8.85991452       8.85991468       0.01829256       0.67500000
P        7.38953109       7.38953110      10.35293424      -0.67500000
P       10.35293389       7.38953094       7.38953159      -0.67500000
P        7.38953092      10.35293390       7.38953158      -0.67500000
P       10.33066106      10.33066108      10.33066175      -0.67500000
In       8.88802833       5.91674831       8.88802883       0.67500000
In       5.91674827       8.88802806       8.88802854       0.67500000
In       8.88802932       8.88802934       5.91674916       0.67500000
63
Lattice="11.8016818 -7.6e-06 -7.6e-06 -7.6e-06 11.8016818 -7.8e-06 -7.6e-06 -7.8e-06 11.8016816" Properties=species:S:1:pos:R:3:mulliken_charges:R:1 virial="-0.001343979365248383 3.847269175329341e-05 3.847269175329341e-05 3.847269175329341e-05 -0.001345261788306826 3.847269175329341e-05 3.847269175329341e-05 3.847269175329341e-05 -0.0013426969421899398" fermi_energy=3.4539138232004998 core_to_fermi_energy=15.43004959127955 config_type=Accurate_Bulk energy=-216.42739122992515 pbc="T T T"
P        1.51143754       1.51143774       4.43840320      -0.67500000
P        4.43840133       1.51143578       1.51143692      -0.67500000
P        1.51143589       4.43840167       1.51143723      -0.67500000
P        4.37666404       4.37666253       4.37665582      -0.67500000
In      -0.00442542      -0.00442508      -0.00442349       0.67500000
In       2.95030189       0.02871619       2.95030385       0.67500000
In       0.02871594       2.95030216       2.95030377       0.67500000
In       2.95030207       2.95030242       0.02871752       0.67500000
P        1.47594709       1.47594739      10.33967271      -0.67500000
P        4.42245641       1.45418775       7.38873055      -0.67500000
P        1.45418808       4.42245652       7.38873016      -0.67500000
P        4.41096515       4.41096535      10.34473370      -0.67500000
In       0.03399960       0.03399915       5.88086813       0.67500000
In       2.93755885      -0.00807876       8.85575894       0.67500000
In      -0.00807871       2.93755928       8.85575867       0.67500000
In       2.98984187       2.98984148       5.92717209       0.67500000
P        1.45418637       7.38873083       4.42245734      -0.67500000
P        4.42245631       7.38873277       1.45418505      -0.67500000
P        1.47594657      10.33967146       1.47594896      -0.67500000
P        4.41096495      10.34473261       4.41096671      -0.67500000
In       0.03399883       5.88086495       0.03399690       0.67500000
In       2.98983825       5.92717639       2.98983660       0.67500000
In      -0.00808095       8.85575885       2.93756089       0.67500000
In       2.93755776       8.85576011      -0.00808037       0.67500000
P        1.44756224       7.36910603      10.35673289      -0.67500000
P        4.20373820       7.61474712       7.61474803      -0.67500000
P        1.44756180      10.35673286       7.36910827      -0.67500000
P        4.41563240      10.37293639      10.37293532      -0.67500000
In      -0.00590836       5.89735558       5.89735647       0.67500000
In       2.92052634       5.89184296       8.88156251       0.67500000
In       0.01433903       8.85497924       8.85498098       0.67500000
In       2.92052538       8.88156199       5.89184462       0.67500000
P        7.38873135       1.45418572       4.42245743      -0.67500000
P       10.33967116       1.47594691       1.47594900      -0.67500000
P        7.38873290       4.42245651       1.45418473      -0.67500000
P       10.34473237       4.41096522       4.41096678      -0.67500000
In       5.88086424       0.03399832       0.03399683       0.67500000
In       8.85575914      -0.00808137       2.93756081       0.67500000
In       5.92717738       2.98983712       2.98983586       0.67500000
In       8.85576013       2.93755811      -0.00808074       0.67500000
P        7.36910569       1.44756188      10.35673351      -0.67500000
P       10.35673343       1.44756140       7.36910844      -0.67500000
P        7.61474913       4.20373610       7.61475026      -0.67500000
P       10.37293704       4.41563296      10.37293572      -0.67500000
In       5.89735554      -0.00590837       5.89735662       0.67500000
In       8.85497901       0.01433935       8.85498115       0.67500000
In       5.89184266       2.92052590       8.88156315       0.67500000
In       8.88156253       2.92052480       5.89184465       0.67500000
P        7.61475888       7.61475910       4.20372691      -0.67500000
P       10.35673574       7.36910620       1.44756048      -0.67500000
P        7.36910569      10.35673579       1.44756052      -0.67500000
P       10.37293833      10.37293808       4.41563623      -0.67500000
In       5.89735578       5.89735598      -0.00590783       0.67500000
In       8.88156510       5.89184260       2.92052363       0.67500000
In       5.89184226       8.88156521       2.92052376       0.67500000
In       8.85497905       8.85497945       0.01434161       0.67500000
P        7.38480445       7.38480470      10.34985289      -0.67500000
P       10.34985182       7.38480407       7.38480583      -0.67500000
P        7.38480389      10.34985196       7.38480590      -0.67500000
P       10.32410290      10.32410318      10.32410506      -0.67500000
In       8.90008158       5.91180340       8.90008311       0.67500000
In       5.91180303       8.90008124       8.90008257       0.67500000
In       8.90008374       8.90008395       5.91180578       0.67500000
63
Lattice="11.8016818 -7.6e-06 -7.6e-06 -7.6e-06 11.8016818 -7.8e-06 -7.6e-06 -7.8e-06 11.8016816" Properties=species:S:1:pos:R:3:mulliken_charges:R:1 virial="-0.001343979365248383 3.847269175329341e-05 3.847269175329341e-05 3.847269175329341e-05 -0.001345261788306826 3.847269175329341e-05 3.847269175329341e-05 3.847269175329341e-05 -0.0013426969421899398" fermi_energy=3.4539138232004998 core_to_fermi_energy=15.43004959127955 config_type=Accurate_Bulk energy=-216.35251302635996 pbc="T T T"
P        1.52556400       1.52556435       4.43667037      -0.67500000
P        4.43666768       1.52556190       1.52556364      -0.67500000
P        1.52556196       4.43666817       1.52556404      -0.67500000
P        4.42072485       4.42072233       4.42071105      -0.67500000
In      -0.00944066      -0.00944013      -0.00943765       0.67500000
In       2.94788246       0.02878776       2.94788545       0.67500000
In       0.02878732       2.94788288       2.94788533       0.67500000
In       2.94788285       2.94788339       0.02878996       0.67500000
P        1.47286129       1.47286186      10.33778234      -0.67500000
P        4.42097267       1.45104011       7.38523472      -0.67500000
P        1.45104062       4.42097285       7.38523415      -0.67500000
P        4.40625367       4.40625403      10.34091279      -0.67500000
In       0.04249763       0.04249707       5.87034955       0.67500000
In       2.93188105      -0.01103461       8.85065320       0.67500000
In      -0.01103470       2.93188180       8.85065278       0.67500000
In       3.00686989       3.00686927       5.92729722       0.67500000
P        1.45103807       7.38523524       4.42097418      -0.67500000
P        4.42097271       7.38523816       1.45103579      -0.67500000
P        1.47286040      10.33778011       1.47286426      -0.67500000
P        4.40625345      10.34091099       4.40625610      -0.67500000
In       0.04249678       5.87034458       0.04249419       0.67500000
In       3.00686445       5.92730456       3.00686152       0.67500000
In      -0.01103826       8.85065272       2.93188427       0.67500000
In       2.93187938       8.85065482      -0.01103695       0.67500000
P        1.43867446       7.36379537      10.35856151      -0.67500000
P        4.17665377       7.64064255       7.64064416      -0.67500000
P        1.43867391      10.35856114       7.36379880      -0.67500000
P        4.40787942      10.38076072      10.38075934      -0.67500000
In      -0.01132001       5.89320449       5.89320583       0.67500000
In       2.91075404       5.88884834       8.88408719       0.67500000
In       0.01146363       8.85112742       8.85113018       0.67500000
In       2.91075281       8.88408622       5.88885092       0.67500000
P        7.38523603       1.45103707       4.42097431      -0.67500000
P       10.33777959       1.47286093       1.47286422      -0.67500000
P        7.38523838       4.42097302       1.45103529      -0.67500000
P       10.34091059       4.40625388       4.40625617      -0.67500000
In       5.87034348       0.04249613       0.04249410       0.67500000
In       8.85065311      -0.01103885       2.93188406       0.67500000
In       5.92730622       3.00686269       3.00686038       0.67500000
In       8.85065479       2.93187992      -0.01103762       0.67500000
P        7.36379471       1.43867401      10.35856240      -0.67500000
P       10.35856189       1.43867339       7.36379892      -0.67500000
P        7.64064571       4.17665049       7.64064770      -0.67500000
P       10.38076155       4.40788036      10.38075984      -0.67500000
In       5.89320438      -0.01132001       5.89320602       0.67500000
In       8.85112697       0.01146425       8.85113036       0.67500000
In       5.88884777       2.91075347       8.88408806       0.67500000
In       8.88408688       2.91075206       5.88885089       0.67500000
P        7.64066135       7.64066173       4.17663595      -0.67500000
P       10.35856537       7.36379526       1.43867208      -0.67500000
P        7.36379449      10.35856550       1.43867214      -0.67500000
P       10.38076332      10.38076299       4.40788528      -0.67500000
In       5.89320480       5.89320510      -0.01131939       0.67500000
In       8.88409048       5.88884762       2.91075034       0.67500000
In       5.88884707       8.88409069       2.91075052       0.67500000
In       8.85112705       8.85112768       0.01146788       0.67500000
P        7.38123979       7.38124027      10.34706351      -0.67500000
P       10.34706173       7.38123912       7.38124189      -0.67500000
P        7.38123881      10.34706199       7.38124206      -0.67500000
P       10.31912594      10.31912646      10.31912941      -0.67500000
In       8.90947552       5.90858636       8.90947811       0.67500000
In       5.90858568       8.90947516       8.90947735       0.67500000
In       8.90947863       8.90947903       5.90859014       0.67500000
63
Lattice="11.8016818 -7.6e-06 -7.6e-06 -7.6e-06 11.8016818 -7.8e-06 -7.6e-06 -7.8e-06 11.8016816" Properties=species:S:1:pos:R:3:mulliken_charges:R:1 virial="-0.001343979365248383 3.847269175329341e-05 3.847269175329341e-05 3.847269175329341e-05 -0.001345261788306826 3.847269175329341e-05 3.847269175329341e-05 3.847269175329341e-05 -0.0013426969421899398" fermi_energy=3.4539138232004998 core_to_fermi_energy=15.43004959127955 config_type=Accurate_Bulk energy=-216.2573043857678 pbc="T T T"
P        1.53736094       1.53736140       4.43464850      -0.67500000
P        4.43464541       1.53735908       1.53736131      -0.67500000
P        1.53735901       4.43464597       1.53736169      -0.67500000
P        4.46518670       4.46518285       4.46516560      -0.67500000
In      -0.01359220      -0.01359153      -0.01358846       0.67500000
In       2.94548160       0.02759517       2.94548538       0.67500000
In       0.02759453       2.94548210       2.94548520       0.67500000
In       2.94548225       2.94548293       0.02759825       0.67500000
P        1.46982855       1.46982935      10.33512278      -0.67500000
P        4.41941551       1.44836756       7.38178403      -0.67500000
P        1.44836824       4.41941578       7.38178325      -0.67500000
P        4.40258451       4.40258502      10.33745755      -0.67500000
In       0.04924616       0.04924554       5.86182565       0.67500000
In       2.92741502      -0.01462358       8.84585672       0.67500000
In      -0.01462382       2.92741605       8.84585613       0.67500000
In       3.02316590       3.02316499       5.92703672       0.67500000
P        1.44836487       7.38178473       4.41941766      -0.67500000
P        4.41941567       7.38178874       1.44836162      -0.67500000
P        1.46982715      10.33511970       1.46983230      -0.67500000
P        4.40258420      10.33745495       4.40258769      -0.67500000
In       0.04924545       5.86181916       0.04924254       0.67500000
In       3.02315882       5.92704765       3.02315434       0.67500000
In      -0.01462866       8.84585574       2.92741923       0.67500000
In       2.92741279       8.84585880      -0.01462650       0.67500000
P        1.43096412       7.35891488      10.35967439      -0.67500000
P        4.15056795       7.66523080       7.66523324      -0.67500000
P        1.43096366      10.35967353       7.35891919      -0.67500000
P        4.40226685      10.38682134      10.38681975      -0.67500000
In      -0.01609111       5.89002320       5.89002501       0.67500000
In       2.90229984       5.88573958       8.88583483       0.67500000
In       0.00921089       8.84785234       8.84785588       0.67500000
In       2.90229851       8.88583314       5.88574294       0.67500000
P        7.38178581       1.44836351       4.41941781      -0.67500000
P       10.33511899       1.46982780       1.46983215      -0.67500000
P        7.38178905       4.41941610       1.44836094      -0.67500000
P       10.33745438       4.40258476       4.40258774      -0.67500000
In       5.86181772       0.04924477       0.04924248       0.67500000
In       8.84585623      -0.01462937       2.92741890       0.67500000
In       5.92705012       3.02315641       3.02315285       0.67500000
In       8.84585870       2.92741349      -0.01462745       0.67500000
P        7.35891392       1.43096361      10.35967546      -0.67500000
P       10.35967437       1.43096311       7.35891919      -0.67500000
P        7.66523508       4.15056350       7.66523809      -0.67500000
P       10.38682227       4.40226810      10.38682030      -0.67500000
In       5.89002303      -0.01609104       5.89002524       0.67500000
In       8.84785172       0.00921182       8.84785605       0.67500000
In       5.88573875       2.90229923       8.88583585       0.67500000
In       8.88583378       2.90229768       5.88574283       0.67500000
P        7.66525667       7.66525723       4.15054368      -0.67500000
P       10.35967873       7.35891414       1.43096153      -0.67500000
P        7.35891317      10.35967897       1.43096157      -0.67500000
P       10.38682428      10.38682390       4.40227444      -0.67500000
In       5.89002359       5.89002400      -0.01609016       0.67500000
In       8.88583805       5.88573842       2.90229573       0.67500000
In       5.88573770       8.88583843       2.90229593       0.67500000
In       8.84785178       8.84785258       0.00921684       0.67500000
P        7.37831609       7.37831679      10.34422607      -0.67500000
P       10.34422330       7.37831516       7.37831894      -0.67500000
P        7.37831472      10.34422374       7.37831919      -0.67500000
P       10.31511687      10.31511758      10.31512143      -0.67500000
In       8.91700857       5.90644288       8.91701241       0.67500000
In       5.90644187       8.91700825       8.91701147       0.67500000
In       8.91701251       8.91701314       5.90644813       0.67500000
63
Lattice="11.8016818 -7.6e-06 -7.6e-06 -7.6e-06 11.8016818 -7.8e-06 -7.6e-06 -7.8e-06 11.8016816" Properties=species:S:1:pos:R:3:mulliken_charges:R:1 virial="-0.001343979365248383 3.847269175329341e-05 3.847269175329341e-05 3.847269175329341e-05 -0.001345261788306826 3.847269175329341e-05 3.847269175329341e-05 3.847269175329341e-05 -0.0013426969421899398" fermi_energy=3.4539138232004998 core_to_fermi_energy=15.43004959127955 config_type=Accurate_Bulk energy=-216.13164216932608 pbc="T T T"
P        1.54735238       1.54735293       4.43219194      -0.67500000
P        4.43218857       1.54735145       1.54735415      -0.67500000
P        1.54735113       4.43218918       1.54735437      -0.67500000
P        4.51563019       4.51562431       4.51559785      -0.67500000
In      -0.01722675      -0.01722598      -0.01722244       0.67500000
In       2.94285360       0.02512416       2.94285807       0.67500000
In       0.02512331       2.94285416       2.94285782       0.67500000
In       2.94285456       2.94285537       0.02512826       0.67500000
P        1.46666547       1.46666651      10.33181225      -0.67500000
P        4.41758002       1.44569965       7.37842826      -0.67500000
P        1.44570055       4.41758041       7.37842728      -0.67500000
P        4.39959500       4.39959566      10.33418294      -0.67500000
In       0.05447215       0.05447149       5.85461797       0.67500000
In       2.92367611      -0.01901900       8.84135531       0.67500000
In      -0.01901944       2.92367743       8.84135452       0.67500000
In       3.03939298       3.03939171       5.92684199       0.67500000
P        1.44569659       7.37842904       4.41758290      -0.67500000
P        4.41758029       7.37843422       1.44569214      -0.67500000
P        1.46666345      10.33180835       1.46666994      -0.67500000
P        4.39959459      10.33417946       4.39959893      -0.67500000
In       0.05447189       5.85461000       0.05446875       0.67500000
In       3.03938497       5.92685693       3.03937854       0.67500000
In      -0.01902553       8.84135355       2.92368131       0.67500000
In       2.92367331       8.84135767      -0.01902222       0.67500000
P        1.42393856       7.35420052      10.36025943      -0.67500000
P        4.12368920       7.69017097       7.69017444      -0.67500000
P        1.42393834      10.36025802       7.35420553      -0.67500000
P        4.39822363      10.39145786      10.39145622      -0.67500000
In      -0.02059416       5.88752376       5.88752591       0.67500000
In       2.89482832       5.88231544       8.88694520       0.67500000
In       0.00741538       8.84483323       8.84483742       0.67500000
In       2.89482721       8.88694250       5.88231960       0.67500000
P        7.37843039       1.44569488       4.41758309      -0.67500000
P       10.33180746       1.46666420       1.46666966      -0.67500000
P        7.37843458       4.41758086       1.44569134      -0.67500000
P       10.33417869       4.39959529       4.39959896      -0.67500000
In       5.85460824       0.05447128       0.05446879       0.67500000
In       8.84135410      -0.01902631       2.92368085       0.67500000
In       5.92686029       3.03938200       3.03937684       0.67500000
In       8.84135744       2.92367416      -0.01902345       0.67500000
P        7.35419922       1.42393800      10.36026068      -0.67500000
P       10.36025890       1.42393780       7.35420534      -0.67500000
P        7.69017653       4.12368349       7.69018079      -0.67500000
P       10.39145881       4.39822519      10.39145680      -0.67500000
In       5.88752353      -0.02059401       5.88752616       0.67500000
In       8.84483243       0.00741665       8.84483757       0.67500000
In       5.88231433       2.89482769       8.88694630       0.67500000
In       8.88694299       2.89482642       5.88231939       0.67500000
P        7.69020493       7.69020573       4.12365792      -0.67500000
P       10.36026403       7.35419875       1.42393598      -0.67500000
P        7.35419763      10.36026439       1.42393597      -0.67500000
P       10.39146092      10.39146054       4.39823295      -0.67500000
In       5.88752419       5.88752466      -0.02059273       0.67500000
In       8.88694762       5.88231367       2.89482441       0.67500000
In       5.88231277       8.88694823       2.89482457       0.67500000
In       8.84483238       8.84483332       0.00742323       0.67500000
P        7.37572412       7.37572503      10.34108440      -0.67500000
P       10.34108070       7.37572288       7.37572765      -0.67500000
P        7.37572232      10.34108130       7.37572800      -0.67500000
P       10.31169062      10.31169153      10.31169628      -0.67500000
In       8.92291559       5.90502759       8.92292062       0.67500000
In       5.90502623       8.92291535       8.92291955       0.67500000
In       8.92292009       8.92292093       5.90503442       0.67500000
63