63
Lattice="11.8016818 -7.6e-06 -7.6e-06 -7.6e-06 11.8016818 -7.8e-06 -7.6e-06 -7.8e-06 11.8016816" Properties=species:S:1:pos:R:3:mulliken_charges:R:1 virial="-0.001343979365248383 3.847269175329341e-05 3.847269175329341e-05 3.847269175329341e-05 -0.001345261788306826 3.847269175329341e-05 3.847269175329341e-05 3.847269175329341e-05 -0.0013426969421899398" fermi_energy=3.4539138232004998 core_to_fermi_energy=15.43004959127955 config_type=Accurate_Bulk energy=-216.50380090780595 pbc="T T T"
P        1.46104516       1.46104511       4.43021853      -0.67500000
P        4.43021861       1.46104517       1.46104515      -0.67500000
P        1.46104517       4.43021860       1.46104510      -0.67500000
P        4.25450211       4.25450208       4.25450209      -0.67500000
In       0.00000077       0.00000075       0.00000075       0.67500000
In       2.94542217       0.01395344       2.94542208       0.67500000
In       0.01395351       2.94542210       2.94542203       0.67500000
In       2.94542217       2.94542215       0.01395344       0.67500000
P        1.47280754       1.47280738      10.32886398      -0.67500000
P        4.41587713       1.45471518       7.38579397      -0.67500000
P        1.45471528       4.41587702       7.38579392      -0.67500000
P        4.41587333       4.41587317      10.34695149      -0.67500000
In      -0.00000296      -0.00000308       5.90084149       0.67500000
In       2.94541795      -0.01396307       8.85625754       0.67500000
In      -0.01396289       2.94541778       8.85625749       0.67500000
In       2.93706725       2.93706713       5.91402435       0.67500000
P        1.45471528       7.38579405       4.41587695      -0.67500000
P        4.41587713       7.38579410       1.45471517      -0.67500000
P        1.47280754      10.32886416       1.47280735      -0.67500000
P        4.41587333      10.34695169       4.41587310      -0.67500000
In      -0.00000296       5.90084159      -0.00000308       0.67500000
In       2.93706723       5.91402449       2.93706705       0.67500000
In      -0.01396289       8.85625762       2.94541771       0.67500000
In       2.94541795       8.85625767      -0.01396307       0.67500000
P        1.46103677       7.37145305      10.34062612      -0.67500000
P        4.25449633       7.54716514       7.54716492      -0.67500000
P        1.46103677      10.34062632       7.37145292      -0.67500000
P        4.43020671      10.34062226      10.34062208      -0.67500000
In      -0.00000685       5.90083764       5.90083754       0.67500000
In       2.93706174       5.88764730       8.86460576       0.67500000
In       0.01394495       8.85625331       8.85625317       0.67500000
In       2.93706175       8.86460588       5.88764725       0.67500000
P        7.38579411       1.45471523       4.41587705      -0.67500000
P       10.32886417       1.47280753       1.47280751      -0.67500000
P        7.38579410       4.41587713       1.45471523      -0.67500000
P       10.34695174       4.41587328       4.41587321      -0.67500000
In       5.90084160      -0.00000298      -0.00000299       0.67500000
In       8.85625769      -0.01396296       2.94541787       0.67500000
In       5.91402455       2.93706718       2.93706712       0.67500000
In       8.85625768       2.94541794      -0.01396296       0.67500000
P        7.37145322       1.46103661      10.34062623      -0.67500000
P       10.34062643       1.46103665       7.37145308      -0.67500000
P        7.54716525       4.25449622       7.54716500      -0.67500000
P       10.34062243       4.43020654      10.34062219      -0.67500000
In       5.90083775      -0.00000697       5.90083763       0.67500000
In       8.85625348       0.01394477       8.85625333       0.67500000
In       5.88764747       2.93706155       8.86460583       0.67500000
In       8.86460599       2.93706164       5.88764736       0.67500000
P        7.54716525       7.54716521       4.25449623      -0.67500000
P       10.34062642       7.37145321       1.46103664      -0.67500000
P        7.37145322      10.34062642       1.46103659      -0.67500000
P       10.34062244      10.34062238       4.43020647      -0.67500000
In       5.90083775       5.90083774      -0.00000697       0.67500000
In       8.86460601       5.88764742       2.93706156       0.67500000
In       5.88764747       8.86460597       2.93706148       0.67500000
In       8.85625348       8.85625346       0.01394477       0.67500000
P        7.38578601       7.38578585      10.34694717      -0.67500000
P       10.34694747       7.38578590       7.38578577      -0.67500000
P        7.38578601      10.34694736       7.38578572      -0.67500000
P       10.32885223      10.32885206      10.32885189      -0.67500000
In       8.86460070       5.91401544       8.86460044       0.67500000
In       5.91401562       8.86460051       8.86460037       0.67500000
In       8.86460068       8.86460057       5.91401530       0.67500000
63
Lattice="11.8016818 -7.6e-06 -7.6e-06 -7.6e-06 11.8016818 -7.8e-06 -7.6e-06 -7.8e-06 11.8016816" Properties=species:S:1:pos:R:3:mulliken_charges:R:1 virial="-0.001343979365248383 3.847269175329341e-05 3.847269175329341e-05 3.847269175329341e-05 -0.001345261788306826 3.847269175329341e-05 3.847269175329341e-05 3.847269175329341e-05 -0.0013426969421899398" fermi_energy=3.4539138232004998 core_to_fermi_energy=15.43004959127955 config_type=Accurate_Bulk energy=-216.39697037533745 pbc="T T T"
P        1.54573228       1.54573223       4.47782556      -0.67500000
P        4.44353696       1.45708971       1.44573723      -0.67500000
P        1.45708971       4.44353695       1.44573718      -0.67500000
P        4.34244672       4.34244670       4.18533904      -0.67500000
In       0.01129798       0.01129796      -0.00274858       0.67500000
In       2.96409418       0.04616612       2.97019675       0.67500000
In       0.04616617       2.96409412       2.97019670       0.67500000
In       2.94759962       2.94759960       0.01589419       0.67500000
P        1.48239429       1.48239412      10.31825763      -0.67500000
P        4.47704886       1.49577411       7.41422096      -0.67500000
P        1.49577423       4.47704875       7.41422090      -0.67500000
P        4.42548379       4.42548363      10.36903343      -0.67500000
In       0.04635955       0.04635943       5.89557315       0.67500000
In       2.96339261       0.01373747       8.83580457       0.67500000
In       0.01373765       2.96339243       8.83580452       0.67500000
In       3.11215756       3.11215743       5.97745447       0.67500000
P        1.46242367       7.39280709       4.40364948      -0.67500000
P        4.42001167       7.41853605       1.42706748      -0.67500000
P        1.48075462      10.36323023       1.49413181      -0.67500000
P        4.42544098      10.35235064       4.42548152      -0.67500000
In      -0.01657119       5.91283889      -0.00627186       0.67500000
In       2.93796497       5.94492100       2.89232646       0.67500000
In      -0.01023256       8.87070829       2.94536428       0.67500000
In       2.94105241       8.90173747      -0.01295481       0.67500000
P        1.44496591       7.41244342      10.36646547      -0.67500000
P        4.25800797       7.52544969       7.54151259      -0.67500000
P        1.47685967      10.35157154       7.36595231      -0.67500000
P        4.43517705      10.34846491      10.31581118      -0.67500000
In       0.01503960       5.91350534       5.90208819       0.67500000
In       2.93818233       5.93194672       8.92774978       0.67500000
In       0.01285239       8.87215598       8.84728402       0.67500000
In       2.94601693       8.85941002       5.88758128       0.67500000
P        7.39280714       1.46242362       4.40364958      -0.67500000
P       10.36323024       1.48075461       1.49413196      -0.67500000
P        7.41853605       4.42001166       1.42706753      -0.67500000
P       10.35235069       4.42544093       4.42548162      -0.67500000
In       5.91283891      -0.01657120      -0.00627176       0.67500000
In       8.87070835      -0.01023263       2.94536444       0.67500000
In       5.94492106       2.93796493       2.89232652       0.67500000
In       8.90173749       2.94105240      -0.01295471       0.67500000
P        7.41244358       1.44496575      10.36646558      -0.67500000
P       10.35157165       1.47685955       7.36595247      -0.67500000
P        7.52544979       4.25800786       7.54151267      -0.67500000
P       10.34846508       4.43517688      10.31581129      -0.67500000
In       5.91350547       0.01503948       5.90208830       0.67500000
In       8.87215616       0.01285221       8.84728418       0.67500000
In       5.93194690       2.93818215       8.92774985       0.67500000
In       8.85941014       2.94601682       5.88758139       0.67500000
P        7.56106072       7.56106069       4.25254808      -0.67500000
P       10.33700454       7.38118503       1.46648908      -0.67500000
P        7.38118504      10.33700453       1.46648903      -0.67500000
P       10.36954434      10.36954429       4.43956567      -0.67500000
In       5.91494581       5.91494579       0.00179957       0.67500000
In       8.86698001       5.88907643       2.93999417       0.67500000
In       5.88907648       8.86697997       2.93999410       0.67500000
In       8.85808692       8.85808690       0.00748763       0.67500000
P        7.39001712       7.39001696      10.33326779      -0.67500000
P       10.34956184       7.39306009       7.37885038      -0.67500000
P        7.39306021      10.34956173       7.37885033      -0.67500000
P       10.33575367      10.33575350      10.33021833      -0.67500000
In       8.85861317       5.91514352       8.84491692       0.67500000
In       5.91514369       8.85861298       8.84491685       0.67500000
In       8.88174980       8.88174968       5.90540333       0.67500000
63
Lattice="11.8016818 -7.6e-06 -7.6e-06 -7.6e-06 11.8016818 -7.8e-06 -7.6e-06 -7.8e-06 11.8016816" Properties=species:S:1:pos:R:3:mulliken_charges:R:1 virial="-0.001343979365248383 3.847269175329341e-05 3.847269175329341e-05 3.847269175329341e-05 -0.001345261788306826 3.847269175329341e-05 3.847269175329341e-05 3.847269175329341e-05 -0.0013426969421899398" fermi_energy=3.4539138232004998 core_to_fermi_energy=15.43004959127955 config_type=Accurate_Bulk energy=-216.1516417385982 pbc="T T T"
P        1.53100343       1.53100339       4.45853734      -0.67500000
P        4.44415153       1.44945975       1.43614628      -0.67500000
P        1.44945975       4.44415152       1.43614623      -0.67500000
P        4.36804802       4.36804799       4.15050668      -0.67500000
In       0.01037902       0.01037901      -0.00417709       0.67500000
In       2.96409434       0.04448119       2.96952294       0.67500000
In       0.04448124       2.96409428       2.96952289       0.67500000
In       2.94517503       2.94517502       0.01515355       0.67500000
P        1.48169402       1.48169385      10.31495481      -0.67500000
P        4.50213507       1.50266794       7.43481504      -0.67500000
P        1.50266805       4.50213495       7.43481497      -0.67500000
P        4.42400185       4.42400169      10.36959076      -0.67500000
In       0.04541210       0.04541198       5.89330641       0.67500000
In       2.96244541       0.01775656       8.82874817       0.67500000
In       0.01775674       2.96244524       8.82874811       0.67500000
In       3.27274845       3.27274831       6.08895606       0.67500000
P        1.46225565       7.38935224       4.40112660      -0.67500000
P        4.41727673       7.42237625       1.41781670      -0.67500000
P        1.47912021      10.36309175       1.49411962      -0.67500000
P        4.42511626      10.34707171       4.42602143      -0.67500000
In      -0.02767276       5.91341600      -0.01055489       0.67500000
In       2.92992490       5.94939437       2.87526350       0.67500000
In      -0.01229931       8.86982050       2.94529305       0.67500000
In       2.93870352       8.90932744      -0.01399113       0.67500000
P        1.43446843       7.42410069      10.37734547      -0.67500000
P        4.25687826       7.50226751       7.53442185      -0.67500000
P        1.47640448      10.34622776       7.36522475      -0.67500000
P        4.43301781      10.34429008      10.30559883      -0.67500000
In       0.01546436       5.91095641       5.90069029       0.67500000
In       2.93009895       5.94996976       8.95729753       0.67500000
In       0.00708336       8.87062786       8.84515409       0.67500000
In       2.94649989       8.85220368       5.88804681       0.67500000
P        7.38935229       1.46225560       4.40112670      -0.67500000
P       10.36309176       1.47912020       1.49411977      -0.67500000
P        7.42237625       4.41727672       1.41781675      -0.67500000
P       10.34707175       4.42511621       4.42602153      -0.67500000
In       5.91341601      -0.02767278      -0.01055479       0.67500000
In       8.86982056      -0.01229937       2.94529321       0.67500000
In       5.94939443       2.92992486       2.87526356       0.67500000
In       8.90932746       2.93870350      -0.01399103       0.67500000
P        7.42410086       1.43446827      10.37734558      -0.67500000
P       10.34622787       1.47640437       7.36522491      -0.67500000
P        7.50226762       4.25687815       7.53442193      -0.67500000
P       10.34429025       4.43301765      10.30559894      -0.67500000
In       5.91095654       0.01546424       5.90069040       0.67500000
In       8.87062804       0.00708318       8.84515425       0.67500000
In       5.94996993       2.93009876       8.95729760       0.67500000
In       8.85220380       2.94649977       5.88804692       0.67500000
P        7.55653861       7.55653858       4.25440735      -0.67500000
P       10.33149901       7.37984529       1.46817450      -0.67500000
P        7.37984530      10.33149900       1.46817445      -0.67500000
P       10.36542849      10.36542843       4.44112314      -0.67500000
In       5.91416712       5.91416710       0.00061675       0.67500000
In       8.86108817       5.88644354       2.93997401       0.67500000
In       5.88644360       8.86108813       2.93997394       0.67500000
In       8.85564954       8.85564952       0.00528438       0.67500000
P        7.38742255       7.38742238      10.32881546      -0.67500000
P       10.34520624       7.38889543       7.37610785      -0.67500000
P        7.38889555      10.34520613       7.37610781      -0.67500000
P       10.33388863      10.33388846      10.32921181      -0.67500000
In       8.84841296       5.90949313       8.83528634       0.67500000
In       5.90949330       8.84841278       8.83528627       0.67500000
In       8.87773502       8.87773490       5.90423107       0.67500000
63
Lattice="11.8016818 -7.6e-06 -7.6e-06 -7.6e-06 11.8016818 -7.8e-06 -7.6e-06 -7.8e-06 11.8016816" Properties=species:S:1:pos:R:3:mulliken_charges:R:1 virial="-0.001343979365248383 3.847269175329341e-05 3.847269175329341e-05 3.847269175329341e-05 -0.001345261788306826 3.847269175329341e-05 3.847269175329341e-05 3.847269175329341e-05 -0.0013426969421899398" fermi_energy=3.4539138232004998 core_to_fermi_energy=15.43004959127955 config_type=Accurate_Bulk energy=-215.909601213422 pbc="T T T"
P        1.49335910       1.49335906       4.42207601      -0.67500000
P        4.44497763       1.44437516       1.42853179      -0.67500000
P        1.44437516       4.44497762       1.42853174      -0.67500000
P        4.37863634       4.37863631       4.12817624      -0.67500000
In       0.00988127       0.00988125      -0.00467360       0.67500000
In       2.96476819       0.03963664       2.96549662       0.67500000
In       0.03963669       2.96476813       2.96549656       0.67500000
In       2.94373035       2.94373033       0.01417917       0.67500000
P        1.48136178       1.48136161      10.31302368      -0.67500000
P        4.51557693       1.50801721       7.44518957      -0.67500000
P        1.50801733       4.51557681       7.44518951      -0.67500000
P        4.42244123       4.42244107      10.36563100      -0.67500000
In       0.03944215       0.03944203       5.89342069       0.67500000
In       2.96093812       0.02188613       8.82256794       0.67500000
In       0.02188632       2.96093795       8.82256788       0.67500000
In       3.44863154       3.44863140       6.21506772       0.67500000
P        1.46292526       7.38712769       4.40002593      -0.67500000
P        4.41545408       7.42330121       1.41266528      -0.67500000
P        1.47866291      10.36031482       1.49143377      -0.67500000
P        4.42539040      10.34243376       4.42595995      -0.67500000
In      -0.03517228       5.91399541      -0.01367236       0.67500000
In       2.92396659       5.95042401       2.86603874       0.67500000
In      -0.01318481       8.86958227       2.94550248       0.67500000
In       2.93809258       8.91276940      -0.01552765       0.67500000
P        1.42729545       7.43136533      10.38414716      -0.67500000
P        4.25667778       7.47991013       7.52692257      -0.67500000
P        1.47588273      10.34092515       7.36566263      -0.67500000
P        4.43150502      10.34153594      10.29769492      -0.67500000
In       0.01734758       5.90737473       5.89860549       0.67500000
In       2.92239554       5.96198426       8.97778118       0.67500000
In       0.00301126       8.86894241       8.84413430       0.67500000
In       2.94727230       8.84757966       5.88882113       0.67500000
P        7.38712774       1.46292521       4.40002604      -0.67500000
P       10.36031482       1.47866290       1.49143392      -0.67500000
P        7.42330121       4.41545408       1.41266533      -0.67500000
P       10.34243380       4.42539035       4.42596005      -0.67500000
In       5.91399543      -0.03517230      -0.01367226       0.67500000
In       8.86958233      -0.01318487       2.94550263       0.67500000
In       5.95042406       2.92396655       2.86603880       0.67500000
In       8.91276942       2.93809257      -0.01552754       0.67500000
P        7.43136550       1.42729528      10.38414727      -0.67500000
P       10.34092526       1.47588262       7.36566279      -0.67500000
P        7.47991024       4.25667767       7.52692265      -0.67500000
P       10.34153611       4.43150485      10.29769502      -0.67500000
In       5.90737485       0.01734745       5.89860559       0.67500000
In       8.86894259       0.00301108       8.84413446       0.67500000
In       5.96198444       2.92239535       8.97778125       0.67500000
In       8.84757978       2.94727218       5.88882124       0.67500000
P        7.55142933       7.55142930       4.25701711      -0.67500000
P       10.32786731       7.37891752       1.46956542      -0.67500000
P        7.37891753      10.32786731       1.46956537      -0.67500000
P       10.35944017      10.35944012       4.44251293      -0.67500000
In       5.91292858       5.91292857      -0.00115036       0.67500000
In       8.85659079       5.88509451       2.94011543       0.67500000
In       5.88509457       8.85659075       2.94011536       0.67500000
In       8.85416334       8.85416332       0.00388313       0.67500000
P        7.38563965       7.38563949      10.32572086      -0.67500000
P       10.34278796       7.38478981       7.37405986      -0.67500000
P        7.38478992      10.34278784       7.37405982      -0.67500000
P       10.33267870      10.33267853      10.32844365      -0.67500000
In       8.83988507       5.90451200       8.82745600       0.67500000
In       5.90451217       8.83988488       8.82745593       0.67500000
In       8.87336506       8.87336494       5.90413311       0.67500000
63
Lattice="11.8016818 -7.6e-06 -7.6e-06 -7.6e-06 11.8016818 -7.8e-06 -7.6e-06 -7.8e-06 11.8016816" Properties=species:S:1:pos:R:3:mulliken_charges:R:1 virial="-0.001343979365248383 3.847269175329341e-05 3.847269175329341e-05 3.847269175329341e-05 -0.001345261788306826 3.847269175329341e-05 3.847269175329341e-05 3.847269175329341e-05 -0.0013426969421899398" fermi_energy=3.4539138232004998 core_to_fermi_energy=15.43004959127955 config_type=Accurate_Bulk energy=-215.71363227880246 pbc="T T T"
P        1.45820740       1.45820736       4.38825179      -0.67500000
P        4.44576495       1.43946799       1.42088331      -0.67500000
P        1.43946799       4.44576494       1.42088326      -0.67500000
P        4.38416752       4.38416750       4.11690271      -0.67500000
In       0.00942953       0.00942952      -0.00556055       0.67500000
In       2.96632056       0.03468678       2.96166027       0.67500000
In       0.03468683       2.96632050       2.96166021       0.67500000
In       2.94223020       2.94223019       0.01280861       0.67500000
P        1.48114883       1.48114867      10.31101680      -0.67500000
P        4.52443070       1.52407840       7.44844876      -0.67500000
P        1.52407852       4.52443058       7.44844870      -0.67500000
P        4.42121616       4.42121600      10.36081743      -0.67500000
In       0.03334361       0.03334349       5.89482993       0.67500000
In       2.96109412       0.03010339       8.81348938       0.67500000
In       0.03010357       2.96109394       8.81348932       0.67500000
In       3.64857954       3.64857940       6.34831925       0.67500000
P        1.46419137       7.38551964       4.39863314      -0.67500000
P        4.41335103       7.42307203       1.40838168      -0.67500000
P        1.47837483      10.35749579       1.48847289      -0.67500000
P        4.42557795      10.33771330       4.42669985      -0.67500000
In      -0.04331302       5.91469285      -0.01667455       0.67500000
In       2.91923170       5.94887677       2.86013081       0.67500000
In      -0.01402118       8.86935897       2.94577049       0.67500000
In       2.93769213       8.91599563      -0.01769306       0.67500000
P        1.41963518       7.43809335      10.39012312      -0.67500000
P        4.25822634       7.44985992       7.51700570      -0.67500000
P        1.47650537      10.33537735       7.36606816      -0.67500000
P        4.42996385      10.33939420      10.28750018      -0.67500000
In       0.02337979       5.90182361       5.89660001       0.67500000
In       2.91428781       5.97224366       8.99872857       0.67500000
In      -0.00113882       8.86735643       8.84268080       0.67500000
In       2.94904296       8.84133482       5.89027925       0.67500000
P        7.38551969       1.46419132       4.39863325      -0.67500000
P       10.35749579       1.47837482       1.48847304      -0.67500000
P        7.42307204       4.41335103       1.40838173      -0.67500000
P       10.33771334       4.42557790       4.42669995      -0.67500000
In       5.91469287      -0.04331303      -0.01667445       0.67500000
In       8.86935902      -0.01402123       2.94577065       0.67500000
In       5.94887682       2.91923166       2.86013087       0.67500000
In       8.91599565       2.93769212      -0.01769296       0.67500000
P        7.43809352       1.41963501      10.39012323      -0.67500000
P       10.33537746       1.47650526       7.36606832      -0.67500000
P        7.44986003       4.25822623       7.51700577      -0.67500000
P       10.33939437       4.42996368      10.28750028      -0.67500000
In       5.90182374       0.02337966       5.89660012       0.67500000
In       8.86735660      -0.00113899       8.84268096       0.67500000
In       5.97224384       2.91428762       8.99872864       0.67500000
In       8.84133493       2.94904284       5.89027936       0.67500000
P        7.54202076       7.54202074       4.26267217      -0.67500000
P       10.32337118       7.37780562       1.47159525      -0.67500000
P        7.37780563      10.32337118       1.47159519      -0.67500000
P       10.35263518      10.35263513       4.44450962      -0.67500000
In       5.91182924       5.91182923      -0.00323313       0.67500000
In       8.85136497       5.88350765       2.94129475       0.67500000
In       5.88350771       8.85136493       2.94129468       0.67500000
In       8.85257483       8.85257482       0.00227401       0.67500000
P        7.38386319       7.38386302      10.32213010      -0.67500000
P       10.34128134       7.37902749       7.37146735      -0.67500000
P        7.37902761      10.34128122       7.37146730      -0.67500000
P       10.33133402      10.33133385      10.32737112      -0.67500000
In       8.82932246       5.89860564       8.81783984       0.67500000
In       5.89860581       8.82932227       8.81783978       0.67500000
In       8.86739593       8.86739581       5.90393583       0.67500000
63
Lattice="11.8016818 -7.6e-06 -7.6e-06 -7.6e-06 11.8016818 -7.8e-06 -7.6e-06 -7.8e-06 11.8016816" Properties=species:S:1:pos:R:3:mulliken_charges:R:1 virial="-0.001343979365248383 3.847269175329341e-05 3.847269175329341e-05 3.847269175329341e-05 -0.001345261788306826 3.847269175329341e-05 3.847269175329341e-05 3.847269175329341e-05 -0.0013426969421899398" fermi_energy=3.4539138232004998 core_to_fermi_energy=15.43004959127955 config_type=Accurate_Bulk energy=-215.60180863362217 pbc="T T T"
P        1.41698510       1.41698507       4.34929832      -0.67500000
P        4.44642237       1.43473386       1.41344118      -0.67500000
P        1.43473386       4.44642236       1.41344112      -0.67500000
P        4.38638888       4.38638886       4.11936269      -0.67500000
In       0.00905446       0.00905445      -0.00687477       0.67500000
In       2.96858707       0.02763744       2.95669542       0.67500000
In       0.02763749       2.96858701       2.95669536       0.67500000
In       2.94061232       2.94061231       0.01095178       0.67500000
P        1.48108082       1.48108065      10.30853087      -0.67500000
P        4.53105059       1.55697957       7.44419297      -0.67500000
P        1.55697970       4.53105047       7.44419290      -0.67500000
P        4.42132570       4.42132553      10.35728010      -0.67500000
In       0.02500243       0.02500232       5.89717331       0.67500000
In       2.96444571       0.04439473       8.80040052       0.67500000
In       0.04439491       2.96444553       8.80040046       0.67500000
In       3.88505057       3.88505043       6.48411880       0.67500000
P        1.46634012       7.38458682       4.39691135      -0.67500000
P        4.41092222       7.42220447       1.40511466      -0.67500000
P        1.47803254      10.35349255       1.48428337      -0.67500000
P        4.42577720      10.33309252       4.42930353      -0.67500000
In      -0.05226570       5.91571688      -0.01928776       0.67500000
In       2.91630405       5.94461771       2.85777103       0.67500000
In      -0.01487301       8.86909858       2.94637312       0.67500000
In       2.93749864       8.91881519      -0.02127444       0.67500000
P        1.41159974       7.44367838      10.39446350      -0.67500000
P        4.26443053       7.40795871       7.50441422      -0.67500000
P        1.47938924      10.32981331       7.36634850      -0.67500000
P        4.42840084      10.33850199      10.27455290      -0.67500000
In       0.03492031       5.89444085       5.89560957       0.67500000
In       2.90579288       5.97992208       9.02144539       0.67500000
In      -0.00492982       8.86634684       8.84064959       0.67500000
In       2.95287291       8.83194698       5.89326924       0.67500000
P        7.38458686       1.46634007       4.39691145      -0.67500000
P       10.35349255       1.47803253       1.48428351      -0.67500000
P        7.42220447       4.41092222       1.40511471      -0.67500000
P       10.33309257       4.42577715       4.42930363      -0.67500000
In       5.91571690      -0.05226572      -0.01928766       0.67500000
In       8.86909864      -0.01487307       2.94637328       0.67500000
In       5.94461776       2.91630400       2.85777110       0.67500000
In       8.91881521       2.93749863      -0.02127434       0.67500000
P        7.44367855       1.41159958      10.39446360      -0.67500000
P       10.32981342       1.47938913       7.36634865      -0.67500000
P        7.40795882       4.26443042       7.50441429      -0.67500000
P       10.33850216       4.42840067      10.27455300      -0.67500000
In       5.89444098       0.03492018       5.89560968       0.67500000
In       8.86634702      -0.00492999       8.84064975       0.67500000
In       5.97992225       2.90579269       9.02144546       0.67500000
In       8.83194710       2.95287279       5.89326934       0.67500000
P        7.52523606       7.52523603       4.27386109      -0.67500000
P       10.31752105       7.37634973       1.47491937      -0.67500000
P        7.37634974      10.31752105       1.47491932      -0.67500000
P       10.34322380      10.34322375       4.44734419      -0.67500000
In       5.91170342       5.91170340      -0.00474388       0.67500000
In       8.84497066       5.88158132       2.94465757       0.67500000
In       5.88158137       8.84497061       2.94465751       0.67500000
In       8.85112238       8.85112237       0.00084132       0.67500000
P        7.38272061       7.38272045      10.31855644      -0.67500000
P       10.34120178       7.37174703       7.36850345      -0.67500000
P        7.37174714      10.34120167       7.36850341      -0.67500000
P       10.32987733      10.32987716      10.32593811      -0.67500000
In       8.81826130       5.89277411       8.80738292       0.67500000
In       5.89277428       8.81826111       8.80738286       0.67500000
In       8.85836294       8.85836282       5.90389676       0.67500000
63