65
Lattice="11.801682 -8e-06 -8e-06 -8e-06 11.801682 -8e-06 -8e-06 -8e-06 11.801682" Properties=species:S:1:pos:R:3:mulliken_charges:R:1:hirshfeld_charges:R:1 fermi_energy=3.718544537463 core_to_fermi_energy=15.690571930710242 config_type=Interstitial energy=-221.23038590941727 pbc="T T T"
P        1.32292800       1.33367282       4.44360921      -0.64200000      -0.23000000
P        4.50242071       1.19977950       1.19977950      -0.45200000      -0.16000000
P        1.32292800       4.44360921       1.33367282      -0.64200000      -0.23000000
P        3.67463220       5.48493137       5.48493137      -0.66200000      -0.24000000
P        1.47722321       1.43936742      10.32394790      -0.64200000      -0.23000000
P        4.42211032       1.47706432       7.32879187      -0.67600000      -0.24000000
P        1.32290252       4.36222699       7.47220969      -0.67400000      -0.24000000
P        4.42218360       4.40292265      10.30376986      -0.67200000      -0.23000000
P        1.32290252       7.47220969       4.36222699      -0.67400000      -0.24000000
P        4.42211032       7.32879187       1.47706432      -0.67600000      -0.24000000
P        1.47722321      10.32394790       1.43936742      -0.64200000      -0.23000000
P        4.42218360      10.30376986       4.40292265      -0.67200000      -0.23000000
P        1.47721868       7.36648222      10.28360062      -0.67400000      -0.24000000
P        4.50242228       7.60607773       7.60607773      -0.68100000      -0.24000000
P        1.47721868      10.28360062       7.36648222      -0.67400000      -0.24000000
P        4.43273284      10.30376728      10.30376728      -0.66200000      -0.24000000
P        7.38480829       1.43916425       4.39554842      -0.67600000      -0.24000000
P       10.32730002       1.44952875       1.44952875      -0.67700000      -0.24000000
P        7.38480829       4.39554842       1.43916425      -0.67600000      -0.24000000
P       10.33919622       4.40292311       4.40292311      -0.67400000      -0.24000000
P        7.41918765       1.45479019      10.27160295      -0.67600000      -0.24000000
P       10.31652607       1.44154599       7.36430170      -0.68000000      -0.24000000
P        7.38480844       4.41030085       7.36668957      -0.67500000      -0.24000000
P       10.28640982       4.40291940      10.30376719      -0.67600000      -0.24000000
P        7.38480844       7.36668957       4.41030085      -0.67500000      -0.24000000
P       10.31652607       7.36430170       1.44154599      -0.68000000      -0.24000000
P        7.41918765      10.27160295       1.45479019      -0.67600000      -0.24000000
P       10.28640982      10.30376719       4.40291940      -0.67600000      -0.24000000
P        7.41918378       7.35105441      10.33593229      -0.67500000      -0.24000000
P       10.32728863       7.35631915       7.35631915      -0.67500000      -0.24000000
P        7.41918378      10.33593229       7.35105441      -0.67500000      -0.24000000
P       10.33125566      10.30376247      10.30376247      -0.67400000      -0.24000000
In       0.00389840      -0.02302733      -0.02302733       0.67600000       0.24000000
In       2.96415735       0.04812801       2.91695857       0.73400000       0.26000000
In       0.03978510       2.92652934       2.92652934       0.67600000       0.24000000
In       2.96415735       2.91695857       0.04812801       0.73400000       0.26000000
In      -0.05675857      -0.09427696       5.92852506       0.65600000       0.23000000
In       2.96146139      -0.01930274       8.82516203       0.68200000       0.25000000
In      -0.05674884       2.87735835       8.90012521       0.65600000       0.23000000
In       2.90269513       3.00862525       5.79723429       0.68200000       0.25000000
In      -0.05675857       5.92852506      -0.09427696       0.65600000       0.23000000
In       2.90269513       5.79723429       3.00862525       0.68200000       0.25000000
In      -0.05674884       8.90012521       2.87735835       0.65600000       0.23000000
In       2.96146139       8.82516203      -0.01930274       0.68200000       0.25000000
In       0.03978329       5.87933696       5.87933696       0.68000000       0.24000000
In       2.96414918       5.88890470       8.75773010       0.68600000       0.24000000
In       0.00388664       8.82889061       8.82889061       0.68000000       0.24000000
In       2.96414918       8.75773010       5.88890470       0.68600000       0.24000000
In       6.03408917      -0.14031961      -0.14031961       0.63300000       0.22000000
In       8.86287459      -0.02428066       2.93018993       0.68600000       0.24000000
In       5.96878504       2.70257813       2.70257813       0.63300000       0.22000000
In       8.86287459       2.93018993      -0.02428066       0.68600000       0.24000000
In       5.89368058      -0.02148920       5.87464739       0.68700000       0.24000000
In       8.88297148      -0.01495904       8.82081021       0.67800000       0.24000000
In       5.89367550       2.93120994       8.82734501       0.68700000       0.24000000
In       8.86556883       2.92829545       5.87755782       0.67800000       0.24000000
In       5.89368058       5.87464739      -0.02148920       0.68700000       0.24000000
In       8.86556883       5.87755782       2.92829545       0.67800000       0.24000000
In       5.89367550       8.82734501       2.93120994       0.68700000       0.24000000
In       8.88297148       8.82081021      -0.01495904       0.67800000       0.24000000
In       5.96873242       6.10327179       6.10327179       0.66100000       0.23000000
In       8.86286745       5.87566549       8.83013337       0.67900000       0.24000000
In       6.03407299       8.94617326       8.94617326       0.66100000       0.23000000
In       8.86286745       8.83013337       5.87566549       0.67900000       0.24000000
P        3.67460222       3.32093796       3.32093796      -0.45200000      -0.16000000
65
Lattice="11.801682 -8e-06 -8e-06 -8e-06 11.801682 -8e-06 -8e-06 -8e-06 11.801682" Properties=species:S:1:pos:R:3:mulliken_charges:R:1:hirshfeld_charges:R:1 fermi_energy=3.718544537463 core_to_fermi_energy=15.690571930710242 config_type=Interstitial energy=-221.23022399051118 pbc="T T T"
P        1.32215336       1.30455439       4.41725007      -0.64200000      -0.23000000
P        4.50088135       1.17299340       1.17246525      -0.45200000      -0.16000000
P        1.32215336       4.41777821       1.30402624      -0.64200000      -0.23000000
P        3.68513339       5.45565386       5.45512572      -0.66200000      -0.24000000
P        1.47606726       1.41251178      10.29531412      -0.64200000      -0.23000000
P        4.42195128       1.45017407       7.30166015      -0.67600000      -0.24000000
P        1.32399350       4.33656809       7.44193568      -0.67400000      -0.24000000
P        4.42202459       4.37624541      10.27546135      -0.67200000      -0.23000000
P        1.32399350       7.44246383       4.33603994      -0.67400000      -0.24000000
P        4.42195128       7.30218829       1.44964592      -0.67600000      -0.24000000
P        1.47606726      10.29584226       1.41198364      -0.64200000      -0.23000000
P        4.42202459      10.27598950       4.37571726      -0.67200000      -0.23000000
P        1.47755525       7.33946626      10.25497321      -0.67400000      -0.24000000
P        4.50330162       7.57982786       7.57929971      -0.68100000      -0.24000000
P        1.47755525      10.25550135       7.33893811      -0.67400000      -0.24000000
P        4.43208953      10.27772048      10.27719234      -0.66200000      -0.24000000
P        7.38246188       1.41345038       4.36838958      -0.67600000      -0.24000000
P       10.32728655       1.42361428       1.42308614      -0.67700000      -0.24000000
P        7.38246188       4.36891773       1.41292224      -0.67600000      -0.24000000
P       10.33894284       4.37572974       4.37520160      -0.67400000      -0.24000000
P        7.41890722       1.42872065      10.24523464      -0.67600000      -0.24000000
P       10.31640593       1.41516903       7.33715466      -0.68000000      -0.24000000
P        7.38721445       4.38368798       7.34099027      -0.67500000      -0.24000000
P       10.28650018       4.37641650      10.27688184      -0.67600000      -0.24000000
P        7.38721445       7.34151842       4.38315983      -0.67500000      -0.24000000
P       10.31640593       7.33768281       1.41464088      -0.68000000      -0.24000000
P        7.41890722      10.24576278       1.42819251      -0.67600000      -0.24000000
P       10.28650018      10.27740999       4.37588836      -0.67600000      -0.24000000
P        7.41904161       7.32517425      10.30960948      -0.67500000      -0.24000000
P       10.32673247       7.33030907       7.32978093      -0.67500000      -0.24000000
P        7.41904161      10.31013762       7.32464610      -0.67500000      -0.24000000
P       10.33094581      10.27746439      10.27693625      -0.67400000      -0.24000000
In       0.00340037      -0.04925912      -0.04978727       0.67600000       0.24000000
In       2.96295467       0.01939461       2.88953173       0.73400000       0.26000000
In       0.04205767       2.89998299       2.89945485       0.67600000       0.24000000
In       2.96295467       2.89005987       0.01886647       0.73400000       0.26000000
In      -0.05717739      -0.12186562       5.90257638       0.65600000       0.23000000
In       2.96095032      -0.04643230       8.79746735       0.68200000       0.25000000
In      -0.05636119       2.85229794       8.87143930       0.65600000       0.23000000
In       2.90317376       2.98174140       5.76954233       0.68200000       0.25000000
In      -0.05717739       5.90310453      -0.12239376       0.65600000       0.23000000
In       2.90317376       5.77007048       2.98121326       0.68200000       0.25000000
In      -0.05636119       8.87196745       2.85176979       0.65600000       0.23000000
In       2.96095032       8.79799549      -0.04696044       0.68200000       0.25000000
In       0.03698848       5.85274805       5.85221991       0.68000000       0.24000000
In       2.96504458       5.86212047       8.72854682       0.68600000       0.24000000
In       0.00368559       8.80258527       8.80205713       0.68000000       0.24000000
In       2.96504458       8.72907496       5.86159232       0.68600000       0.24000000
In       6.03365210      -0.16631197      -0.16684011       0.63300000       0.22000000
In       8.86224723      -0.04978066       2.90381385       0.68600000       0.24000000
In       5.96353037       2.67818388       2.67765574       0.63300000       0.22000000
In       8.86224723       2.90434200      -0.05030881       0.68600000       0.24000000
In       5.89286881      -0.04859912       5.84758871       0.68700000       0.24000000
In       8.88282811      -0.04058840       8.79447487       0.67800000       0.24000000
In       5.89411465       2.90459658       8.79978071       0.68700000       0.24000000
In       8.86530817       2.90135898       5.85002634       0.67800000       0.24000000
In       5.89286881       5.84811686      -0.04912726       0.68700000       0.24000000
In       8.86530817       5.85055448       2.90083083       0.67800000       0.24000000
In       5.89411465       8.80030886       2.90406844       0.68700000       0.24000000
In       8.88282811       8.79500302      -0.04111654       0.67800000       0.24000000
In       5.97491939       6.08016013       6.07963199       0.66100000       0.23000000
In       8.86339243       5.84991115       8.80458183       0.67900000       0.24000000
In       6.03387953       8.92063865       8.92011050       0.66100000       0.23000000
In       8.86339243       8.80510997       5.84938301       0.67900000       0.24000000
P        3.66593640       3.29166264       3.29113449      -0.45200000      -0.16000000
65
Lattice="11.801682 -8e-06 -8e-06 -8e-06 11.801682 -8e-06 -8e-06 -8e-06 11.801682" Properties=species:S:1:pos:R:3:mulliken_charges:R:1:hirshfeld_charges:R:1 fermi_energy=3.718544537463 core_to_fermi_energy=15.690571930710242 config_type=Interstitial energy=-221.2085318928811 pbc="T T T"
P        1.31260806       1.25492440       4.39607854      -0.64200000      -0.23000000
P        4.49184020       1.13683980       1.13572354      -0.45200000      -0.16000000
P        1.31260806       4.39719480       1.25380814      -0.64200000      -0.23000000
P        3.79594129       5.38431031       5.38319404      -0.66200000      -0.24000000
P        1.46610497       1.38234810      10.25405784      -0.64200000      -0.23000000
P        4.42161850       1.42002670       7.27268000      -0.67600000      -0.24000000
P        1.34086069       4.31642475       7.38526335      -0.67400000      -0.24000000
P        4.42064718       4.34689430      10.24151050      -0.67200000      -0.23000000
P        1.34086069       7.38637962       4.31530849      -0.67400000      -0.24000000
P        4.42161850       7.27379627       1.41891043      -0.67600000      -0.24000000
P        1.46610497      10.25517411       1.38123183      -0.64200000      -0.23000000
P        4.42064718      10.24262677       4.34577803      -0.67200000      -0.23000000
P        1.48076908       7.30856337      10.21730245      -0.67400000      -0.24000000
P        4.49997397       7.54304897       7.54193271      -0.68100000      -0.24000000
P        1.48076908      10.21841871       7.30744711      -0.67400000      -0.24000000
P        4.42680924      10.24803011      10.24691384      -0.66200000      -0.24000000
P        7.36556764       1.39266357       4.33823997      -0.67600000      -0.24000000
P       10.32699915       1.39979742       1.39868116      -0.67700000      -0.24000000
P        7.36556764       4.33935624       1.39154731      -0.67600000      -0.24000000
P       10.33848222       4.34497716       4.34386090      -0.67400000      -0.24000000
P        7.41659335       1.40372387      10.21963359      -0.67600000      -0.24000000
P       10.31343238       1.38961147       7.30998728      -0.68000000      -0.24000000
P        7.40983678       4.35549883       7.32606777      -0.67500000      -0.24000000
P       10.28953692       4.34991712      10.24948521      -0.67600000      -0.24000000
P        7.40983678       7.32718404       4.35438256      -0.67500000      -0.24000000
P       10.31343238       7.31110354       1.38849520      -0.68000000      -0.24000000
P        7.41659335      10.22074985       1.40260760      -0.67600000      -0.24000000
P       10.28953692      10.25060148       4.34880086      -0.67600000      -0.24000000
P        7.41406643       7.30090703      10.28219735      -0.67500000      -0.24000000
P       10.32669367       7.30687217       7.30575591      -0.67500000      -0.24000000
P        7.41406643      10.28331362       7.29979077      -0.67500000      -0.24000000
P       10.32770278      10.24986539      10.24874912      -0.67400000      -0.24000000
In      -0.00177894      -0.07572803      -0.07684429       0.67600000       0.24000000
In       2.95173459      -0.02607562       2.85608112       0.73400000       0.26000000
In       0.05986886       2.87241420       2.87129793       0.67600000       0.24000000
In       2.95173459       2.85719738      -0.02719189       0.73400000       0.26000000
In      -0.06287557      -0.15671380       5.88620861       0.65600000       0.23000000
In       2.95775555      -0.07718659       8.76471762       0.68200000       0.25000000
In      -0.05061859       2.83853398       8.82765801       0.65600000       0.23000000
In       2.91054783       2.94756687       5.73071081       0.68200000       0.25000000
In      -0.06287557       5.88732487      -0.15783006       0.65600000       0.23000000
In       2.91054783       5.73182708       2.94645060       0.68200000       0.25000000
In      -0.05061859       8.82877428       2.83741771       0.65600000       0.23000000
In       2.95775555       8.76583388      -0.07830285       0.68200000       0.25000000
In       0.01944739       5.82507085       5.82395458       0.68000000       0.24000000
In       2.97110919       5.82984326       8.68976148       0.68600000       0.24000000
In       0.00595122       8.77672872       8.77561246       0.68000000       0.24000000
In       2.97110919       8.69087775       5.82872700       0.68600000       0.24000000
In       6.03299455      -0.19653264      -0.19764890       0.63300000       0.22000000
In       8.85799979      -0.07162656       2.87974693       0.68600000       0.24000000
In       5.91891572       2.66653370       2.66541743       0.63300000       0.22000000
In       8.85799979       2.88086320      -0.07274283       0.68600000       0.24000000
In       5.88787359      -0.07880316       5.81877852       0.68700000       0.24000000
In       8.87915162      -0.06459681       8.76968765       0.67800000       0.24000000
In       5.89706219       2.87836686       8.76780154       0.68700000       0.24000000
In       8.86360550       2.87181213       5.81840457       0.67800000       0.24000000
In       5.88787359       5.81989479      -0.07991943       0.68700000       0.24000000
In       8.86360550       5.81952084       2.87069586       0.67800000       0.24000000
In       5.89706219       8.76891780       2.87725059       0.68700000       0.24000000
In       8.87915162       8.77080392      -0.06571308       0.67800000       0.24000000
In       6.03266939       6.07975011       6.07863384       0.66100000       0.23000000
In       8.87073959       5.82921144       8.78822045       0.67900000       0.24000000
In       6.02266913       8.88977241       8.88865615       0.66100000       0.23000000
In       8.87073959       8.78933671       5.82809518       0.67900000       0.24000000
P        3.58679011       3.22962731       3.22851105      -0.45200000      -0.16000000
65
Lattice="11.801682 -8e-06 -8e-06 -8e-06 11.801682 -8e-06 -8e-06 -8e-06 11.801682" Properties=species:S:1:pos:R:3:mulliken_charges:R:1:hirshfeld_charges:R:1 fermi_energy=3.718544537463 core_to_fermi_energy=15.690571930710242 config_type=Interstitial energy=-221.11447931926858 pbc="T T T"
P        1.29511461       1.23858580       4.40979263      -0.64200000      -0.23000000
P        4.49362171       1.11672204       1.11556406      -0.45200000      -0.16000000
P        1.29511461       4.41095061       1.23742783      -0.64200000      -0.23000000
P        3.98139934       5.27248716       5.27132919      -0.66200000      -0.24000000
P        1.45596438       1.38487170      10.24705947      -0.64200000      -0.23000000
P        4.41894370       1.41688846       7.27442086      -0.67600000      -0.24000000
P        1.37217210       4.33151903       7.35746635      -0.67400000      -0.24000000
P        4.41878581       4.34679736      10.24774690      -0.67200000      -0.23000000
P        1.37217210       7.35862432       4.33036106      -0.67400000      -0.24000000
P        4.41894370       7.27557883       1.41573048      -0.67600000      -0.24000000
P        1.45596438      10.24821745       1.38371372      -0.64200000      -0.23000000
P        4.41878581      10.24890488       4.34563939      -0.67200000      -0.23000000
P        1.47882349       7.31285106      10.21863740      -0.67400000      -0.24000000
P        4.47475975       7.51134929       7.51019131      -0.68100000      -0.24000000
P        1.47882349      10.21979538       7.31169309      -0.67400000      -0.24000000
P        4.42196161      10.23641290      10.23525493      -0.66200000      -0.24000000
P        7.35410950       1.39954255       4.33790520      -0.67600000      -0.24000000
P       10.32306806       1.40324430       1.40208633      -0.67700000      -0.24000000
P        7.35410950       4.33906317       1.39838457      -0.67600000      -0.24000000
P       10.33641095       4.34817304       4.34701507      -0.67400000      -0.24000000
P        7.41504387       1.40603673      10.21697612      -0.67600000      -0.24000000
P       10.30836228       1.39559965       7.31434456      -0.68000000      -0.24000000
P        7.43269031       4.35556367       7.34489008      -0.67500000      -0.24000000
P       10.29503211       4.35324329      10.24974417      -0.67600000      -0.24000000
P        7.43269031       7.34604806       4.35440570      -0.67500000      -0.24000000
P       10.30836228       7.31550253       1.39444167      -0.68000000      -0.24000000
P        7.41504387      10.21813410       1.40487875      -0.67600000      -0.24000000
P       10.29503211      10.25090214       4.35208532      -0.67600000      -0.24000000
P        7.40368044       7.30363600      10.27736418      -0.67500000      -0.24000000
P       10.32533003       7.31278666       7.31162869      -0.67500000      -0.24000000
P        7.40368044      10.27852216       7.30247802      -0.67500000      -0.24000000
P       10.32303230      10.25105869      10.24990072      -0.67400000      -0.24000000
In      -0.00831882      -0.07276214      -0.07392012       0.67600000       0.24000000
In       2.94049123      -0.03417768       2.85125698       0.73400000       0.26000000
In       0.06936575       2.87455120       2.87339322       0.67600000       0.24000000
In       2.94049123       2.85241496      -0.03533566       0.73400000       0.26000000
In      -0.07392006      -0.15939580       5.90219807       0.65600000       0.23000000
In       2.95351917      -0.07483146       8.76710096       0.68200000       0.25000000
In      -0.04038908       2.85610238       8.81080801       0.65600000       0.23000000
In       2.92179266       2.93711511       5.71294084       0.68200000       0.25000000
In      -0.07392006       5.90335604      -0.16055377       0.65600000       0.23000000
In       2.92179266       5.71409881       2.93595713       0.68200000       0.25000000
In      -0.04038908       8.81196598       2.85494440       0.65600000       0.23000000
In       2.95351917       8.76825894      -0.07598944       0.68200000       0.25000000
In       0.00622575       5.82887804       5.82772007       0.68000000       0.24000000
In       2.96763551       5.82838219       8.71332327       0.68600000       0.24000000
In       0.00643128       8.78079413       8.77963616       0.68000000       0.24000000
In       2.96763551       8.71448125       5.82722422       0.68600000       0.24000000
In       6.04019454      -0.21130895      -0.21246693       0.63300000       0.22000000
In       8.85381628      -0.06970828       2.88305975       0.68600000       0.24000000
In       5.87440217       2.68695266       2.68579469       0.63300000       0.22000000
In       8.85381628       2.88421772      -0.07086625       0.68600000       0.24000000
In       5.88553035      -0.07558505       5.82039715       0.68700000       0.24000000
In       8.87358325      -0.06433012       8.77036338       0.67800000       0.24000000
In       5.89498978       2.88264392       8.76577374       0.68700000       0.24000000
In       8.85996016       2.87389958       5.81874020       0.67800000       0.24000000
In       5.88553035       5.82155513      -0.07674302       0.68700000       0.24000000
In       8.85996016       5.81989818       2.87274160       0.67800000       0.24000000
In       5.89498978       8.76693171       2.88148595       0.68700000       0.24000000
In       8.87358325       8.77152135      -0.06548809       0.67800000       0.24000000
In       6.09807910       6.10590654       6.10474856       0.66100000       0.23000000
In       8.87824320       5.83639831       8.80102209       0.67900000       0.24000000
In       5.99553693       8.86742138       8.86626340       0.66100000       0.23000000
In       8.87824320       8.80218006       5.83524034       0.67900000       0.24000000
P        3.49346473       3.16821224       3.16705426      -0.45200000      -0.16000000
65
Lattice="11.801682 -8e-06 -8e-06 -8e-06 11.801682 -8e-06 -8e-06 -8e-06 11.801682" Properties=species:S:1:pos:R:3:mulliken_charges:R:1:hirshfeld_charges:R:1 fermi_energy=3.718544537463 core_to_fermi_energy=15.690571930710242 config_type=Interstitial energy=-220.99007346229715 pbc="T T T"
P        1.27579872       1.24370003       4.42837760      -0.64200000      -0.23000000
P        4.49450701       1.08668457       1.08552368      -0.45200000      -0.16000000
P        1.27579872       4.42953849       1.24253914      -0.64200000      -0.23000000
P        4.14979636       5.14836822       5.14720734      -0.66200000      -0.24000000
P        1.44920054       1.39306854      10.24960465      -0.64200000      -0.23000000
P        4.41517413       1.41768734       7.27912038      -0.67600000      -0.24000000
P        1.39807972       4.34459401       7.33936993      -0.67400000      -0.24000000
P        4.41560389       4.35008849      10.26036017      -0.67200000      -0.23000000
P        1.39807972       7.34053082       4.34343313      -0.67400000      -0.24000000
P        4.41517413       7.28028127       1.41652645      -0.67600000      -0.24000000
P        1.44920054      10.25076554       1.39190765      -0.64200000      -0.23000000
P        4.41560389      10.26152106       4.34892761      -0.67200000      -0.23000000
P        1.47676922       7.32105400      10.22619003      -0.67400000      -0.24000000
P        4.45450087       7.47532054       7.47415966      -0.68100000      -0.24000000
P        1.47676922      10.22735092       7.31989311      -0.67400000      -0.24000000
P        4.42126413      10.22119254      10.22003165      -0.66200000      -0.24000000
P        7.35177956       1.40536111       4.34335239      -0.67600000      -0.24000000
P       10.31660041       1.40609683       1.40493594      -0.67700000      -0.24000000
P        7.35177956       4.34451328       1.40420023      -0.67600000      -0.24000000
P       10.32805645       4.35617968       4.35501880      -0.67400000      -0.24000000
P        7.41695444       1.40903561      10.21393913      -0.67600000      -0.24000000
P       10.30484106       1.40280866       7.32071813      -0.68000000      -0.24000000
P        7.44280889       4.35837213       7.36165535      -0.67500000      -0.24000000
P       10.29972686       4.35859009      10.25081609      -0.67600000      -0.24000000
P        7.44280889       7.36281623       4.35721124      -0.67500000      -0.24000000
P       10.30484106       7.32187902       1.40164777      -0.68000000      -0.24000000
P        7.41695444      10.21510002       1.40787472      -0.67600000      -0.24000000
P       10.29972686      10.25197698       4.35742920      -0.67600000      -0.24000000
P        7.39650606       7.30689118      10.27451291      -0.67500000      -0.24000000
P       10.32427505       7.31860731       7.31744642      -0.67500000      -0.24000000
P        7.39650606      10.27567380       7.30573029      -0.67500000      -0.24000000
P       10.32155090      10.25393957      10.25277869      -0.67400000      -0.24000000
In      -0.01209491      -0.06775499      -0.06891587       0.67600000       0.24000000
In       2.93256008      -0.02078892       2.85286304       0.73400000       0.26000000
In       0.05623107       2.87911533       2.87795444       0.67600000       0.24000000
In       2.93256008       2.85402393      -0.02194981       0.73400000       0.26000000
In      -0.08248643      -0.15743320       5.91619635       0.65600000       0.23000000
In       2.95110601      -0.06821143       8.77568811       0.68200000       0.25000000
In      -0.03203088       2.87028476       8.80157159       0.65600000       0.23000000
In       2.92881631       2.93078380       5.69937896       0.68200000       0.25000000
In      -0.08248643       5.91735724      -0.15859408       0.65600000       0.23000000
In       2.92881631       5.70053985       2.92962291       0.68200000       0.25000000
In      -0.03203088       8.80273248       2.86912388       0.65600000       0.23000000
In       2.95110601       8.77684899      -0.06937231       0.68200000       0.25000000
In      -0.00165033       5.83371184       5.83255095       0.68000000       0.24000000
In       2.96195249       5.82965605       8.73801896       0.68600000       0.24000000
In       0.00669280       8.78565130       8.78449042       0.68000000       0.24000000
In       2.96195249       8.73917984       5.82849517       0.68600000       0.24000000
In       6.05337026      -0.23082100      -0.23198189       0.63300000       0.22000000
In       8.85119387      -0.06869849       2.88730507       0.68600000       0.24000000
In       5.85280007       2.71717966       2.71601877       0.63300000       0.22000000
In       8.85119387       2.88846595      -0.06985938       0.68600000       0.24000000
In       5.88485209      -0.06907645       5.82569632       0.68700000       0.24000000
In       8.87166519      -0.06415459       8.77131323       0.67800000       0.24000000
In       5.89057223       2.88729340       8.77023849       0.68700000       0.24000000
In       8.85449847       2.87897972       5.82552021       0.67800000       0.24000000
In       5.88485209       5.82685721      -0.07023734       0.68700000       0.24000000
In       8.85449847       5.82668110       2.87781883       0.67800000       0.24000000
In       5.89057223       8.77139937       2.88613252       0.68700000       0.24000000
In       8.87166519       8.77247411      -0.06531548       0.67800000       0.24000000
In       6.13270713       6.11344849       6.11228761       0.66100000       0.23000000
In       8.88165054       5.84251927       8.80992201       0.67900000       0.24000000
In       5.97488580       8.84234006       8.84117918       0.66100000       0.23000000
In       8.88165054       8.81108290       5.84135838       0.67900000       0.24000000