65
Lattice="11.801682 -8e-06 -8e-06 -8e-06 11.801682 -8e-06 -8e-06 -8e-06 11.801682" Properties=species:S:1:pos:R:3:mulliken_charges:R:1:hirshfeld_charges:R:1 fermi_energy=3.718544537463 core_to_fermi_energy=15.690571930710242 config_type=Interstitial energy=-221.23038530615372 pbc="T T T"
P        1.32301694       1.41197525       4.52173566      -0.64200000      -0.23000000
P        3.67491711       2.53454399       2.53454399      -0.45200000      -0.16000000
P        1.32301694       4.52173566       1.41197525      -0.64200000      -0.23000000
P        4.50250855       4.65585872       4.65585872      -0.66200000      -0.24000000
P        1.32301542       1.49303762      10.18497157      -0.64200000      -0.23000000
P        4.42221670       1.45250541       7.35335121      -0.67600000      -0.24000000
P        1.47708267       4.41600931       7.33318295      -0.67400000      -0.24000000
P        4.42192788       4.37844193      10.32825033      -0.67200000      -0.23000000
P        1.47708267       7.33318295       4.41600931      -0.67400000      -0.24000000
P        4.42221670       7.35335121       1.45250541      -0.67600000      -0.24000000
P        1.32301542      10.18497157       1.49303762      -0.64200000      -0.23000000
P        4.42192788      10.32825033       4.37844193      -0.67200000      -0.23000000
P        1.47707933       7.37351630      10.29068838      -0.67400000      -0.24000000
P        4.43261201       7.35334774       7.35334774      -0.68100000      -0.24000000
P        1.47707933      10.29068838       7.37351630      -0.67400000      -0.24000000
P        4.50247556      10.05086550      10.05086550      -0.66200000      -0.24000000
P        7.38477977       1.45986003       4.41634830      -0.67600000      -0.24000000
P       10.33907948       1.45250522       1.45250522      -0.67700000      -0.24000000
P        7.38477977       4.41634830       1.45986003      -0.67600000      -0.24000000
P       10.32710631       4.40583805       4.40583805      -0.67400000      -0.24000000
P        7.38477802       1.44514751      10.29034735      -0.67600000      -0.24000000
P       10.28643098       1.45250166       7.35334703      -0.68000000      -0.24000000
P        7.41922727       4.40066505       7.38565981      -0.67500000      -0.24000000
P       10.31666663       4.41370009      10.29298510      -0.67600000      -0.24000000
P        7.41922727       7.38565981       4.40066505      -0.67500000      -0.24000000
P       10.28643098       7.35334703       1.45250166      -0.68000000      -0.24000000
P        7.38477802      10.29034735       1.44514751      -0.67600000      -0.24000000
P       10.31666663      10.29298510       4.41370009      -0.67600000      -0.24000000
P        7.41922127       7.32103064      10.30602285      -0.67500000      -0.24000000
P       10.33127089       7.35334266       7.35334266      -0.67500000      -0.24000000
P        7.41922127      10.30602285       7.32103064      -0.67500000      -0.24000000
P       10.32709924      10.30084716      10.30084716      -0.67400000      -0.24000000
In       0.03966403      -0.02385937      -0.02385937       0.67600000       0.24000000
In       2.90279191       0.05823823       2.84678712       0.73400000       0.26000000
In       0.03966073       2.92888771       2.92888771       0.67600000       0.24000000
In       2.90279191       2.84678712       0.05823823       0.73400000       0.26000000
In      -0.05668678      -0.07292339       5.94961925       0.65600000       0.23000000
In       2.96422708      -0.03354214       8.89937905       0.68200000       0.25000000
In      -0.05669181       2.97794498       8.75709022       0.65600000       0.23000000
In       2.96422366       2.93855619       5.80732782       0.68200000       0.25000000
In      -0.05668678       5.94961925      -0.07292339       0.65600000       0.23000000
In       2.96422366       5.80732782       2.93855619       0.68200000       0.25000000
In      -0.05669181       8.75709022       2.97794498       0.65600000       0.23000000
In       2.96422708       8.89937905      -0.03354214       0.68200000       0.25000000
In       0.00376930       5.87838536       5.87838536       0.68000000       0.24000000
In       2.96125890       5.87476762       8.83193041       0.68600000       0.24000000
In       0.00376539       8.82831616       8.82831616       0.68000000       0.24000000
In       2.96125890       8.83193041       5.87476762       0.68600000       0.24000000
In       5.96894328      -0.24808664      -0.24808664       0.63300000       0.22000000
In       8.86546382      -0.02209895       2.92711514       0.68600000       0.24000000
In       5.96894563       3.15310677       3.15310677       0.63300000       0.22000000
In       8.86546382       2.92711514      -0.02209895       0.68600000       0.24000000
In       5.89359199      -0.01928140       5.87689856       0.68700000       0.24000000
In       8.86279273      -0.02022542       8.82688504       0.67800000       0.24000000
In       5.89358804       2.92429332       8.82980249       0.68700000       0.24000000
In       8.86279208       2.92523294       5.87981111       0.67800000       0.24000000
In       5.89359199       5.87689856      -0.01928140       0.68700000       0.24000000
In       8.86279208       5.87981111       2.92523294       0.67800000       0.24000000
In       5.89358804       8.82980249       2.92429332       0.68700000       0.24000000
In       8.86279273       8.82688504      -0.02022542       0.67800000       0.24000000
In       6.03419299       5.99590604       5.99590604       0.66100000       0.23000000
In       8.88315429       5.87025931       8.83643014       0.67900000       0.24000000
In       6.03421228       8.71076937       8.71076937       0.66100000       0.23000000
In       8.88315429       8.83643014       5.87025931       0.67900000       0.24000000
P        3.67493639       0.37046901       0.37046901      -0.45200000      -0.16000000
65
Lattice="11.801682 -8e-06 -8e-06 -8e-06 11.801682 -8e-06 -8e-06 -8e-06 11.801682" Properties=species:S:1:pos:R:3:mulliken_charges:R:1:hirshfeld_charges:R:1 fermi_energy=3.718544537463 core_to_fermi_energy=15.690571930710242 config_type=Interstitial energy=-221.15136054209492 pbc="T T T"
P        1.25320288       1.38643084       4.51930338      -0.64200000      -0.23000000
P        3.72620821       2.43717142       2.69449134      -0.45200000      -0.16000000
P        1.37180172       4.48469545       1.43039183      -0.64200000      -0.23000000
P        4.52127694       4.73405141       4.62948880      -0.66200000      -0.24000000
P        1.33485600       1.50046010      10.18838588      -0.64200000      -0.23000000
P        4.41559271       1.46375960       7.31824964      -0.67600000      -0.24000000
P        1.48647919       4.40688924       7.30082632      -0.67400000      -0.24000000
P        4.41918326       4.36533641      10.33378707      -0.67200000      -0.23000000
P        1.46571982       7.34206892       4.40914948      -0.67400000      -0.24000000
P        4.42355266       7.36612522       1.42871752      -0.67600000      -0.24000000
P        1.31002579      10.17119026       1.47197437      -0.64200000      -0.23000000
P        4.41266184      10.29472585       4.38215977      -0.67200000      -0.23000000
P        1.48689713       7.35482214      10.28768216      -0.67400000      -0.24000000
P        4.43220568       7.36059061       7.37654840      -0.68100000      -0.24000000
P        1.47365469      10.28424221       7.38411439      -0.67400000      -0.24000000
P        4.49880133      10.09610133      10.06504746      -0.66200000      -0.24000000
P        7.40988836       1.46822697       4.41938415      -0.67600000      -0.24000000
P       10.32918874       1.45308467       1.43244846      -0.67700000      -0.24000000
P        7.38948384       4.42691949       1.44155256      -0.67600000      -0.24000000
P       10.32030011       4.41169476       4.39622655      -0.67400000      -0.24000000
P        7.36716004       1.45225438      10.29119756      -0.67600000      -0.24000000
P       10.27710105       1.44921042       7.37273263      -0.68000000      -0.24000000
P        7.42252416       4.40577478       7.38726298      -0.67500000      -0.24000000
P       10.33700078       4.41231717      10.28698378      -0.67600000      -0.24000000
P        7.42990824       7.39359448       4.39424198      -0.67500000      -0.24000000
P       10.29970396       7.33719075       1.43581950      -0.68000000      -0.24000000
P        7.38934605      10.28809047       1.44325079      -0.67600000      -0.24000000
P       10.30412361      10.28332885       4.41019718      -0.67600000      -0.24000000
P        7.41703480       7.33088255      10.29499217      -0.67500000      -0.24000000
P       10.33298358       7.35124533       7.35184362      -0.67500000      -0.24000000
P        7.40418451      10.31390171       7.31419809      -0.67500000      -0.24000000
P       10.32166747      10.29911430      10.29232566      -0.67400000      -0.24000000
In       0.03496679      -0.02282957      -0.03831900       0.67600000       0.24000000
In       2.87310977       0.00215157       2.86837606       0.73400000       0.26000000
In       0.01588917       2.92065353       2.92345549       0.67600000       0.24000000
In       2.91679352       2.83588502       0.09163535       0.73400000       0.26000000
In      -0.08863333      -0.09650973       5.97311815       0.65600000       0.23000000
In       2.96415567      -0.01299658       8.88689252       0.68200000       0.25000000
In      -0.03949677       2.97552382       8.74559601       0.65600000       0.23000000
In       2.96761529       2.93826601       5.73635133       0.68200000       0.25000000
In      -0.02152971       5.91851611      -0.05981523       0.65600000       0.23000000
In       2.96821376       5.84585604       2.93086274       0.68200000       0.25000000
In      -0.06959831       8.75617957       2.96820098       0.65600000       0.23000000
In       2.96248697       8.90703283      -0.05215446       0.68200000       0.25000000
In       0.00052997       5.87846254       5.86787134       0.68000000       0.24000000
In       2.96305121       5.85304169       8.82363101       0.68600000       0.24000000
In       0.00503482       8.81507788       8.83716658       0.68000000       0.24000000
In       2.95272417       8.81662482       5.88808343       0.68600000       0.24000000
In       5.95738280      -0.21946590      -0.21380048       0.63300000       0.22000000
In       8.86877165      -0.02034724       2.92104280       0.68600000       0.24000000
In       6.00808796       3.18939670       3.18081833       0.63300000       0.22000000
In       8.86451170       2.93318013      -0.04146612       0.68600000       0.24000000
In       5.88662782      -0.01584983       5.84813990       0.68700000       0.24000000
In       8.84107825      -0.02045672       8.83385839       0.67800000       0.24000000
In       5.88377667       2.92385853       8.81533871       0.68700000       0.24000000
In       8.87628951       2.93096033       5.88966158       0.67800000       0.24000000
In       5.89398846       5.88331599      -0.03670723       0.68700000       0.24000000
In       8.86320921       5.88680232       2.91428380       0.67800000       0.24000000
In       5.89586017       8.82362118       2.91655284       0.68700000       0.24000000
In       8.86769224       8.82164697      -0.02429004       0.67800000       0.24000000
In       6.05135811       6.02820659       6.01384955       0.66100000       0.23000000
In       8.89041547       5.87177199       8.84141169       0.67900000       0.24000000
In       6.01877753       8.73996643       8.72713659       0.66100000       0.23000000
In       8.87737598       8.83780755       5.87778443       0.67900000       0.24000000
P        3.66303243       0.39616952       0.40729603      -0.45200000      -0.16000000
65
Lattice="11.801682 -8e-06 -8e-06 -8e-06 11.801682 -8e-06 -8e-06 -8e-06 11.801682" Properties=species:S:1:pos:R:3:mulliken_charges:R:1:hirshfeld_charges:R:1 fermi_energy=3.718544537463 core_to_fermi_energy=15.690571930710242 config_type=Interstitial energy=-221.03504753372462 pbc="T T T"
P        1.19344982       1.36726480       4.51428158      -0.64200000      -0.23000000
P        3.74966212       2.35850171       2.91295586      -0.45200000      -0.16000000
P        1.40018092       4.46228870       1.43152619      -0.64200000      -0.23000000
P        4.54228322       4.79273691       4.60257595      -0.66200000      -0.24000000
P        1.33709995       1.49827773      10.18579984      -0.64200000      -0.23000000
P        4.41426083       1.46607969       7.30623772      -0.67600000      -0.24000000
P        1.49506947       4.39912071       7.28217415      -0.67400000      -0.24000000
P        4.41598177       4.36528877      10.32980074      -0.67200000      -0.23000000
P        1.45877178       7.34678671       4.40570487      -0.67400000      -0.24000000
P        4.42346065       7.37193380       1.41844018      -0.67600000      -0.24000000
P        1.31272777      10.16822575       1.45859028      -0.64200000      -0.23000000
P        4.40867822      10.27617334       4.38348381      -0.67200000      -0.23000000
P        1.48879587       7.34648004      10.28587338      -0.67400000      -0.24000000
P        4.43271764       7.36568107       7.38502569      -0.68100000      -0.24000000
P        1.47318349      10.27963545       7.38636854      -0.67400000      -0.24000000
P        4.49048306      10.11655384      10.07983818      -0.66200000      -0.24000000
P        7.42665891       1.47168726       4.42009831      -0.67600000      -0.24000000
P       10.32480147       1.45354087       1.42308881      -0.67700000      -0.24000000
P        7.39303202       4.43033280       1.43231327      -0.67600000      -0.24000000
P       10.31743817       4.41664736       4.39194002      -0.67400000      -0.24000000
P        7.36107248       1.45383172      10.29239227      -0.67600000      -0.24000000
P       10.27128765       1.44761019       7.38111219      -0.68000000      -0.24000000
P        7.42413574       4.40582084       7.38788793      -0.67500000      -0.24000000
P       10.34576506       4.41134336      10.28414196      -0.67600000      -0.24000000
P        7.43624690       7.39830854       4.39304265      -0.67500000      -0.24000000
P       10.30505593       7.33300750       1.43151902      -0.68000000      -0.24000000
P        7.39069756      10.28673968       1.44304989      -0.67600000      -0.24000000
P       10.29831461      10.27743760       4.40873919      -0.67600000      -0.24000000
P        7.41503789       7.33544792      10.29097859      -0.67500000      -0.24000000
P       10.33389094       7.34992250       7.35215763      -0.67500000      -0.24000000
P        7.39675291      10.31725862       7.31219491      -0.67500000      -0.24000000
P       10.31904826      10.29794978      10.28946152      -0.67400000      -0.24000000
In       0.02947175      -0.02347396      -0.04383182       0.67600000       0.24000000
In       2.86100854      -0.02833550       2.87447162       0.73400000       0.26000000
In       0.00287034       2.91964948       2.91877670       0.67600000       0.24000000
In       2.89531768       2.84446394       0.04114599       0.73400000       0.26000000
In      -0.10727512      -0.11099965       5.98754352       0.65600000       0.23000000
In       2.96234566      -0.00796638       8.87606560       0.68200000       0.25000000
In      -0.03279211       2.97410583       8.73665751       0.65600000       0.23000000
In       2.98757625       2.91873946       5.65145922       0.68200000       0.25000000
In      -0.01032407       5.90757122      -0.05313820       0.65600000       0.23000000
In       2.96590012       5.87043589       2.92574951       0.68200000       0.25000000
In      -0.07229243       8.76020783       2.96281111       0.65600000       0.23000000
In       2.96038905       8.90367696      -0.05931246       0.68200000       0.25000000
In       0.00081186       5.87728043       5.86475513       0.68000000       0.24000000
In       2.96294279       5.84726286       8.81436242       0.68600000       0.24000000
In       0.00541282       8.81079808       8.84058422       0.68000000       0.24000000
In       2.94958169       8.80847276       5.89140901       0.68600000       0.24000000
In       5.95421865      -0.21120628      -0.20242770       0.63300000       0.22000000
In       8.87180880      -0.02028686       2.91870532       0.68600000       0.24000000
In       6.02925794       3.19859200       3.18677981       0.63300000       0.22000000
In       8.86462735       2.93457337      -0.05024938       0.68600000       0.24000000
In       5.88275841      -0.01239417       5.83311412       0.68700000       0.24000000
In       8.83263002      -0.02086706       8.83663015       0.67800000       0.24000000
In       5.88039050       2.92350671       8.81154609       0.68700000       0.24000000
In       8.88350163       2.93366789       5.89243547       0.67800000       0.24000000
In       5.89385435       5.88622655      -0.04296191       0.68700000       0.24000000
In       8.86205497       5.89080257       2.91101396       0.67800000       0.24000000
In       5.89727750       8.81945482       2.91484796       0.68700000       0.24000000
In       8.86885263       8.81956842      -0.02531983       0.67800000       0.24000000
In       6.06275067       6.04385756       6.02433212       0.66100000       0.23000000
In       8.89217324       5.87212398       8.84361806       0.67900000       0.24000000
In       6.00861983       8.75424435       8.73657359       0.66100000       0.23000000
In       8.87522841       8.83834761       5.88190618       0.67900000       0.24000000
P        3.68027530       0.45699585       0.44399032      -0.45200000      -0.16000000
65
Lattice="11.801682 -8e-06 -8e-06 -8e-06 11.801682 -8e-06 -8e-06 -8e-06 11.801682" Properties=species:S:1:pos:R:3:mulliken_charges:R:1:hirshfeld_charges:R:1 fermi_energy=3.718544537463 core_to_fermi_energy=15.690571930710242 config_type=Interstitial energy=-221.0115735571179 pbc="T T T"
P        1.13427865       1.35788251       4.50028396      -0.64200000      -0.23000000
P        3.82029186       2.24036626       3.13964573      -0.45200000      -0.16000000
P        1.42844723       4.43961080       1.44187087      -0.64200000      -0.23000000
P        4.55560063       4.84374548       4.55719785      -0.66200000      -0.24000000
P        1.34249349       1.49706466      10.18638321      -0.64200000      -0.23000000
P        4.41324337       1.46641788       7.30724118      -0.67600000      -0.24000000
P        1.49973031       4.39467434       7.27099714      -0.67400000      -0.24000000
P        4.41494389       4.36854335      10.32727229      -0.67200000      -0.23000000
P        1.44895509       7.35368301       4.40293532      -0.67400000      -0.24000000
P        4.42341570       7.37749509       1.40545728      -0.67600000      -0.24000000
P        1.31527949      10.16355985       1.44170738      -0.64200000      -0.23000000
P        4.40213588      10.24897278       4.38497542      -0.67200000      -0.23000000
P        1.48804202       7.33570217      10.28312240      -0.67400000      -0.24000000
P        4.43198061       7.36742014       7.39237803      -0.68100000      -0.24000000
P        1.47169777      10.27767522       7.38722551      -0.67400000      -0.24000000
P        4.47905587      10.13597837      10.09855255      -0.66200000      -0.24000000
P        7.45175232       1.47858234       4.41798831      -0.67600000      -0.24000000
P       10.31949536       1.45413591       1.41120343      -0.67700000      -0.24000000
P        7.40140487       4.43794614       1.41886589      -0.67600000      -0.24000000
P       10.31212612       4.42498659       4.38865348      -0.67400000      -0.24000000
P        7.35567169       1.45460597      10.29477059      -0.67600000      -0.24000000
P       10.26709803       1.44762211       7.38962251      -0.68000000      -0.24000000
P        7.42122368       4.40677858       7.38665731      -0.67500000      -0.24000000
P       10.35300979       4.41116618      10.28080893      -0.67600000      -0.24000000
P        7.43966679       7.40151894       4.39146004      -0.67500000      -0.24000000
P       10.31166203       7.32888019       1.42537322      -0.68000000      -0.24000000
P        7.39331686      10.28400155       1.44238011      -0.67600000      -0.24000000
P       10.29215088      10.27223702       4.40657172      -0.67600000      -0.24000000
P        7.41252821       7.34379835      10.28348402      -0.67500000      -0.24000000
P       10.33252751       7.35072405       7.35131658      -0.67500000      -0.24000000
P        7.38389492      10.32555141       7.30516592      -0.67500000      -0.24000000
P       10.31551141      10.29810491      10.28399477      -0.67400000      -0.24000000
In       0.02335570      -0.02389846      -0.05128462       0.67600000       0.24000000
In       2.84855303      -0.06281530       2.87924013       0.73400000       0.26000000
In      -0.02049343       2.92323428       2.91270964       0.67600000       0.24000000
In       2.88754862       2.85762199       0.00887679       0.73400000       0.26000000
In      -0.12401826      -0.12076698       5.99703181       0.65600000       0.23000000
In       2.95889514      -0.00532366       8.86755146       0.68200000       0.25000000
In      -0.02640087       2.97235073       8.73206400       0.65600000       0.23000000
In       3.00614737       2.89159334       5.59845882       0.68200000       0.25000000
In       0.00249154       5.89239870      -0.04498747       0.65600000       0.23000000
In       2.95836721       5.90414712       2.91693160       0.68200000       0.25000000
In      -0.07641535       8.76536746       2.95619030       0.65600000       0.23000000
In       2.95482803       8.89033981      -0.06912083       0.68200000       0.25000000
In      -0.00036275       5.87747911       5.86276673       0.68000000       0.24000000
In       2.96228426       5.84167587       8.80774015       0.68600000       0.24000000
In       0.00462607       8.80702692       8.84260943       0.68000000       0.24000000
In       2.94399431       8.79812812       5.89692157       0.68600000       0.24000000
In       5.95025835      -0.20274535      -0.18879419       0.63300000       0.22000000
In       8.87577970      -0.02031470       2.91443757       0.68600000       0.24000000
In       6.05533485       3.20901847       3.18244935       0.63300000       0.22000000
In       8.86475270       2.93613046      -0.06082935       0.68600000       0.24000000
In       5.87216701      -0.00086895       5.80819036       0.68700000       0.24000000
In       8.82205918      -0.02067199       8.83629990       0.67800000       0.24000000
In       5.87862916       2.92377086       8.81250330       0.68700000       0.24000000
In       8.89053357       2.93877912       5.89647943       0.67800000       0.24000000
In       5.89644171       5.89247006      -0.05164036       0.68700000       0.24000000
In       8.86121965       5.89788273       2.90711928       0.67800000       0.24000000
In       5.89830546       8.81423305       2.91139563       0.68700000       0.24000000
In       8.87094893       8.81768967      -0.02856767       0.67800000       0.24000000
In       6.06359806       6.05203449       6.02561203       0.66100000       0.23000000
In       8.89195823       5.87353755       8.84360560       0.67900000       0.24000000
In       5.99522679       8.77173179       8.74307048       0.66100000       0.23000000
In       8.86932172       8.84048421       5.88498352       0.67900000       0.24000000
P        3.70470005       0.52585947       0.49126119      -0.45200000      -0.16000000
65
Lattice="11.801682 -8e-06 -8e-06 -8e-06 11.801682 -8e-06 -8e-06 -8e-06 11.801682" Properties=species:S:1:pos:R:3:mulliken_charges:R:1:hirshfeld_charges:R:1 fermi_energy=3.718544537463 core_to_fermi_energy=15.690571930710242 config_type=Interstitial energy=-220.9847069621789 pbc="T T T"
P        1.11868533       1.36788038       4.47797178      -0.64200000      -0.23000000
P        3.95781173       2.07836638       3.30065098      -0.45200000      -0.16000000
P        1.44656359       4.42643884       1.45534178      -0.64200000      -0.23000000
P        4.54151420       4.84905679       4.51751671      -0.66200000      -0.24000000
P        1.34326956       1.50005985      10.19140133      -0.64200000      -0.23000000
P        4.40998094       1.46737385       7.32655276      -0.67600000      -0.24000000
P        1.50136534       4.39344544       7.27014209      -0.67400000      -0.24000000
P        4.41544321       4.37161294      10.33138016      -0.67200000      -0.23000000
P        1.44080466       7.36023847       4.40369394      -0.67400000      -0.24000000
P        4.42317962       7.38223574       1.39676242      -0.67600000      -0.24000000
P        1.30824259      10.15429410       1.42948072      -0.64200000      -0.23000000
P        4.39439469      10.21710996       4.38652573      -0.67200000      -0.23000000
P        1.48532458       7.33113940      10.28014072      -0.67400000      -0.24000000
P        4.42869748       7.36347534       7.39379374      -0.68100000      -0.24000000
P        1.46942745      10.28408654       7.38614231      -0.67400000      -0.24000000
P        4.47412799      10.14390014      10.11018166      -0.66200000      -0.24000000
P        7.48612297       1.48810421       4.41917718      -0.67600000      -0.24000000
P       10.31624691       1.45591294       1.40343701      -0.67700000      -0.24000000
P        7.41167325       4.45007299       1.40636114      -0.67600000      -0.24000000
P       10.30871549       4.43427202       4.38858117      -0.67400000      -0.24000000
P        7.35234691       1.45509074      10.29802072      -0.67600000      -0.24000000
P       10.27043796       1.45085996       7.39355227      -0.68000000      -0.24000000
P        7.41374087       4.41121068       7.38354299      -0.67500000      -0.24000000
P       10.35484512       4.41453288      10.27755725      -0.67600000      -0.24000000
P        7.43540751       7.39830104       4.38989163      -0.67500000      -0.24000000
P       10.31459210       7.32747616       1.41955369      -0.68000000      -0.24000000
P        7.39503054      10.28284752       1.44082602      -0.67600000      -0.24000000
P       10.29048655      10.27266308       4.40497345      -0.67600000      -0.24000000
P        7.40996708       7.35391827      10.27390897      -0.67500000      -0.24000000
P       10.32891007       7.35523242       7.34820320      -0.67500000      -0.24000000
P        7.36796112      10.33982254       7.28974630      -0.67500000      -0.24000000
P       10.31009741      10.30083915      10.27608512      -0.67400000      -0.24000000
In       0.01688722      -0.02455561      -0.05729009       0.67600000       0.24000000
In       2.83195490      -0.10066414       2.88023723       0.73400000       0.26000000
In      -0.04276798       2.93119752       2.90756901       0.67600000       0.24000000
In       2.88759963       2.86548015       0.00013250       0.73400000       0.26000000
In      -0.12508115      -0.11286368       5.99044700       0.65600000       0.23000000
In       2.95492774      -0.00488261       8.87363102       0.68200000       0.25000000
In      -0.02312056       2.97372555       8.73400531       0.65600000       0.23000000
In       3.01381448       2.87335567       5.60311959       0.68200000       0.25000000
In       0.01089899       5.88292814      -0.03961835       0.65600000       0.23000000
In       2.94809593       5.93537569       2.90893800       0.68200000       0.25000000
In      -0.08338137       8.76613385       2.95371567       0.65600000       0.23000000
In       2.95002642       8.88327643      -0.07592965       0.68200000       0.25000000
In      -0.00089612       5.87957964       5.86406184       0.68000000       0.24000000
In       2.96163148       5.83847688       8.80868624       0.68600000       0.24000000
In       0.00222500       8.80848137       8.84035793       0.68000000       0.24000000
In       2.93685701       8.79291511       5.90438409       0.68600000       0.24000000
In       5.94099362      -0.19357180      -0.17570241       0.63300000       0.22000000
In       8.87907260      -0.01978122       2.91008038       0.68600000       0.24000000
In       6.09111857       3.22728274       3.18312796       0.63300000       0.22000000
In       8.86544008       2.93850420      -0.06838237       0.68600000       0.24000000
In       5.85037996       0.02370737       5.77426078       0.68700000       0.24000000
In       8.81263447      -0.01798244       8.82915628       0.67800000       0.24000000
In       5.87900101       2.92635079       8.81789948       0.68700000       0.24000000
In       8.89897714       2.94802548       5.90484454       0.67800000       0.24000000
In       5.90005365       5.90205115      -0.05939847       0.68700000       0.24000000
In       8.86267008       5.90568204       2.90458357       0.67800000       0.24000000
In       5.89950134       8.81109526       2.90716667       0.68700000       0.24000000
In       8.87159421       8.81857835      -0.03391904       0.67800000       0.24000000
In       6.04479378       6.04441543       6.01142389       0.66100000       0.23000000
In       8.88883483       5.87783580       8.83999619       0.67900000       0.24000000
In       5.98612822       8.78468550       8.73775020       0.66100000       0.23000000
In       8.86010486       8.84500760       5.88294767       0.67900000       0.24000000