63
Lattice="11.8016818 -7.6e-06 -7.6e-06 -7.6e-06 11.8016818 -7.8e-06 -7.6e-06 -7.8e-06 11.8016816" Properties=species:S:1:pos:R:3:mulliken_charges:R:1 virial="-0.001343979365248383 3.847269175329341e-05 3.847269175329341e-05 3.847269175329341e-05 -0.001345261788306826 3.847269175329341e-05 3.847269175329341e-05 3.847269175329341e-05 -0.0013426969421899398" fermi_energy=3.4539138232004998 core_to_fermi_energy=15.43004959127955 config_type=Accurate_Bulk energy=-216.95161169637282 pbc="T T T"
P        1.45986891       1.45986885       4.40982793      -0.67500000
P        4.40982801       1.45986894       1.45986892      -0.67500000
P        1.45986892       4.40982801       1.45986884      -0.67500000
In      -0.00217240      -0.00217241      -0.00217241       0.67500000
In       2.94020490      -0.02209591       2.94020484       0.67500000
In      -0.02209585       2.94020484       2.94020479       0.67500000
In       2.94020491       2.94020490      -0.02209590       0.67500000
P        1.47059149       1.47059133      10.31041015      -0.67500000
P        4.44142591       1.45986300       7.39138544      -0.67500000
P        1.45986314       4.44142578       7.39138536      -0.67500000
P        4.42562056       4.42562040      10.32646479      -0.67500000
In      -0.01455439      -0.01455451       5.89451371       0.67500000
In       2.95674285      -0.01455865       8.86581179       0.67500000
In      -0.01455847       2.95674269       8.86581174       0.67500000
In       2.74902901       2.74902888       6.10222557       0.67500000
P        1.45986313       7.39138550       4.44142571      -0.67500000
P        4.44142591       7.39138557       1.45986298      -0.67500000
P        1.47059148      10.31041032       1.47059130      -0.67500000
P        4.42562056      10.32646496       4.42562032      -0.67500000
In      -0.01455439       5.89451380      -0.01455451       0.67500000
In       2.74902901       6.10222568       2.74902885       0.67500000
In      -0.01455848       8.86581189       2.95674264       0.67500000
In       2.95674285       8.86581194      -0.01455865       0.67500000
P        1.47058721       7.38065362      10.34252386      -0.67500000
P        4.40981859       7.39137967       7.39137954      -0.67500000
P        1.47058721      10.34252403       7.38065350      -0.67500000
P        4.42561683      10.32646104      10.32646087      -0.67500000
In      -0.02210026       5.91105216       5.91105206       0.67500000
In       2.94019665       5.91104828       8.87334942       0.67500000
In      -0.00218455       8.85342909       8.85342895       0.67500000
In       2.94019665       8.87334958       5.91104818       0.67500000
P        7.39138556       1.45986307       4.44142583      -0.67500000
P       10.31041032       1.47059148       1.47059145      -0.67500000
P        7.39138555       4.44142591       1.45986306      -0.67500000
P       10.32646502       4.42562050       4.42562042      -0.67500000
In       5.89451381      -0.01455439      -0.01455440       0.67500000
In       8.86581196      -0.01455854       2.95674280       0.67500000
In       6.10222576       2.74902895       2.74902892       0.67500000
In       8.86581195       2.95674285      -0.01455854       0.67500000
P        7.38065378       1.47058705      10.34252397      -0.67500000
P       10.34252414       1.47058709       7.38065366      -0.67500000
P        7.39137980       4.40981846       7.39137961      -0.67500000
P       10.32646119       4.42561667      10.32646097      -0.67500000
In       5.91105228      -0.02210039       5.91105217       0.67500000
In       8.85342926      -0.00218471       8.85342911       0.67500000
In       5.91104845       2.94019648       8.87334947       0.67500000
In       8.87334970       2.94019653       5.91104829       0.67500000
P        7.39137981       7.39137975       4.40981839      -0.67500000
P       10.34252414       7.38065378       1.47058706      -0.67500000
P        7.38065378      10.34252415       1.47058702      -0.67500000
P       10.32646119      10.32646114       4.42561660      -0.67500000
In       5.91105228       5.91105227      -0.02210038       0.67500000
In       8.87334970       5.91104839       2.94019648       0.67500000
In       5.91104846       8.87334963       2.94019643       0.67500000
In       8.85342926       8.85342925      -0.00218472       0.67500000
P        7.38064945       7.38064929      10.31040125      -0.67500000
P       10.31040154       7.38064934       7.38064921      -0.67500000
P        7.38064945      10.31040143       7.38064917      -0.67500000
P       10.32645754      10.32645738      10.32645721      -0.67500000
In       6.10222041       6.10222027       6.10222015       0.67500000
In       8.86580335       5.89450148       8.86580308       0.67500000
In       5.89450165       8.86580317       8.86580302       0.67500000
In       8.86580336       8.86580323       5.89450139       0.67500000
63
Lattice="11.8016818 -7.6e-06 -7.6e-06 -7.6e-06 11.8016818 -7.8e-06 -7.6e-06 -7.8e-06 11.8016816" Properties=species:S:1:pos:R:3:mulliken_charges:R:1 virial="-0.001343979365248383 3.847269175329341e-05 3.847269175329341e-05 3.847269175329341e-05 -0.001345261788306826 3.847269175329341e-05 3.847269175329341e-05 3.847269175329341e-05 -0.0013426969421899398" fermi_energy=3.4539138232004998 core_to_fermi_energy=15.43004959127955 config_type=Accurate_Bulk energy=-216.91704703322628 pbc="T T T"
P        1.46148693       1.52638699       4.43946061      -0.67500000
P        4.44339172       1.53459620       1.46686378      -0.67500000
P        1.47815024       4.48424061       1.47440432      -0.67500000
In       0.02811380       0.08140958       0.02224649       0.67500000
In       2.97604048       0.07496529       2.97327616       0.67500000
In      -0.00284303       3.01901652       2.96180168       0.67500000
In       2.96560526       3.01899358      -0.00671683       0.67500000
P        1.49484296       1.54982133      10.32475247      -0.67500000
P        4.47342357       1.50384728       7.44873021      -0.67500000
P        1.45820110       4.52989134       7.43810241      -0.67500000
P        4.44726939       4.50644385      10.34281746      -0.67500000
In      -0.01055410       0.04133462       5.91490915       0.67500000
In       2.98036859       0.03136566       8.91223634       0.67500000
In      -0.01050676       3.04114204       8.90565728       0.67500000
In       2.67598336       2.72467073       6.24543537       0.67500000
P        1.49593743       7.45705698       4.45621683      -0.67500000
P        4.45829033       7.45086910       1.49834566      -0.67500000
P        1.50695422      10.40542013       1.50175617      -0.67500000
P        4.45579252      10.41118375       4.45253257      -0.67500000
In       0.00959465       5.98304023       0.00646106       0.67500000
In       2.79560774       6.12902242       2.79848369       0.67500000
In       0.02890493       8.93961224       2.97407621       0.67500000
In       2.98070794       8.93544556       0.03013675       0.67500000
P        1.49524532       7.47072978      10.36792216      -0.67500000
P        4.43370873       7.45797605       7.39988907      -0.67500000
P        1.49556167      10.41830554       7.39839217      -0.67500000
P        4.45357396      10.37468638      10.35813891      -0.67500000
In       0.00021810       5.99139645       5.92824021       0.67500000
In       2.95948014       5.99754405       8.89694245       0.67500000
In       0.02015781       8.93336239       8.87212974       0.67500000
In       2.96689340       8.94917504       5.92629455       0.67500000
P        7.44192839       1.51492479       4.46717671      -0.67500000
P       10.33147294       1.54982377       1.48932654      -0.67500000
P        7.42739252       4.52598598       1.46865474      -0.67500000
P       10.34689581       4.50704629       4.44334810      -0.67500000
In       5.92162113       0.04973457      -0.00406336       0.67500000
In       8.90540123       0.04215009       2.97304642       0.67500000
In       6.19193770       2.77476180       2.72640720       0.67500000
In       8.89655118       3.04014303      -0.00091381       0.67500000
P        7.41076092       1.54694438      10.36676847      -0.67500000
P       10.37183637       1.54778799       7.40529924      -0.67500000
P        7.41129115       4.48205309       7.40772321      -0.67500000
P       10.34137429       4.52151826      10.34937477      -0.67500000
In       5.94615763       0.05132333       5.94185836       0.67500000
In       8.88165178       0.07373844       8.87618705       0.67500000
In       5.93755175       3.01529615       8.90050611       0.67500000
In       8.90381287       3.01631980       5.93286178       0.67500000
P        7.39874216       7.45279054       4.43141372      -0.67500000
P       10.37010162       7.46948006       1.49101651      -0.67500000
P        7.40210710      10.41486979       1.49223093      -0.67500000
P       10.34967621      10.37622740       4.44313604      -0.67500000
In       5.93113936       5.99015209      -0.00136324       0.67500000
In       8.89845289       5.99653778       2.95596005       0.67500000
In       5.92910620       8.94699680       2.96418739       0.67500000
In       8.87696798       8.93338014       0.01526659       0.67500000
P        7.40156899       7.45919815      10.33111743      -0.67500000
P       10.33321251       7.46065856       7.39759890      -0.67500000
P        7.41239555      10.37956237       7.40653323      -0.67500000
P       10.35641563      10.40816407      10.35111858      -0.67500000
In       6.09282415       6.13660727       6.09453462       0.67500000
In       8.88079924       5.97854321       8.87780685       0.67500000
In       5.91741828       8.92987234       8.87709132       0.67500000
In       8.87729266       8.92676218       5.91030381       0.67500000
63
Lattice="11.8016818 -7.6e-06 -7.6e-06 -7.6e-06 11.8016818 -7.8e-06 -7.6e-06 -7.8e-06 11.8016816" Properties=species:S:1:pos:R:3:mulliken_charges:R:1 virial="-0.001343979365248383 3.847269175329341e-05 3.847269175329341e-05 3.847269175329341e-05 -0.001345261788306826 3.847269175329341e-05 3.847269175329341e-05 3.847269175329341e-05 -0.0013426969421899398" fermi_energy=3.4539138232004998 core_to_fermi_energy=15.43004959127955 config_type=Accurate_Bulk energy=-216.76093855915 pbc="T T T"
P        1.44306220       1.53893535       4.45925149      -0.67500000
P        4.46273752       1.54759976       1.44918311      -0.67500000
P        1.46767139       4.48644728       1.46092802      -0.67500000
In       0.03568425       0.09739887       0.02316733       0.67500000
In       3.00901010       0.12687217       3.00745838       0.67500000
In      -0.00859507       3.02651100       2.96113306       0.67500000
In       2.96536826       3.02485284      -0.01603856       0.67500000
P        1.49510219       1.55874020      10.30387293      -0.67500000
P        4.48265391       1.47481493       7.48152656      -0.67500000
P        1.42809335       4.55464146       7.46257545      -0.67500000
P        4.44113699       4.51229131      10.33197128      -0.67500000
In      -0.03170849       0.02743204       5.90680995       0.67500000
In       2.98084698       0.00133420       8.93288707       0.67500000
In      -0.03551373       3.05692019       8.92002261       0.67500000
In       2.52745132       2.58667880       6.43304954       0.67500000
P        1.50397362       7.45348517       4.44347802      -0.67500000
P        4.44767012       7.44297325       1.50783049      -0.67500000
P        1.52945501      10.44779919       1.52048748      -0.67500000
P        4.46928206      10.42282683       4.46524999      -0.67500000
In       0.00705543       6.00013442       0.00048293       0.67500000
In       2.80999215       6.08974290       2.81486471       0.67500000
In       0.05072721       8.94941206       2.96449807       0.67500000
In       2.97580435       8.94201797       0.05206808       0.67500000
P        1.49515219       7.49166170      10.36975339      -0.67500000
P        4.43367550       7.45414297       7.38587380      -0.67500000
P        1.49569692      10.42751335       7.38828236      -0.67500000
P        4.45523736      10.35126196      10.36348627      -0.67500000
In      -0.00346540       5.99701227       5.91555137       0.67500000
In       2.95413316       6.01350651       8.89589793       0.67500000
In       0.01848159       8.94166071       8.86357856       0.67500000
In       2.96797422       8.95112860       5.91734756       0.67500000
P        7.47288413       1.49214181       4.47307923      -0.67500000
P       10.32206268       1.55824570       1.48500103      -0.67500000
P        7.44885725       4.54988359       1.44120077      -0.67500000
P       10.33711239       4.51388052       4.43504491      -0.67500000
In       5.91997900       0.04125724      -0.02093266       0.67500000
In       8.92121591       0.02191406       2.96645696       0.67500000
In       6.31273848       2.70033431       2.64003202       0.67500000
In       8.90548114       3.05245356      -0.01977003       0.67500000
P        7.41420240       1.55097451      10.36644795      -0.67500000
P       10.38014454       1.55315577       7.40505530      -0.67500000
P        7.40906240       4.48287384       7.40265416      -0.67500000
P       10.33296068       4.54613459      10.34485311      -0.67500000
In       5.96234466       0.05170696       5.95597510       0.67500000
In       8.88926238       0.07751400       8.87805817       0.67500000
In       5.93745316       3.01829726       8.89993752       0.67500000
In       8.90723211       3.01928532       5.93191805       0.67500000
P        7.38502312       7.44585498       4.42880637      -0.67500000
P       10.37604756       7.49057082       1.48650993      -0.67500000
P        7.39556261      10.41875989       1.48952809      -0.67500000
P       10.35027085      10.35485501       4.43626980      -0.67500000
In       5.92157925       5.99746972      -0.00872040       0.67500000
In       8.90099819       6.01432237       2.94633692       0.67500000
In       5.92156916       8.94854052       2.96399401       0.67500000
In       8.87274755       8.94116992       0.00937651       0.67500000
P        7.39671857       7.46490280      10.32711284      -0.67500000
P       10.33307695       7.46624565       7.38881738      -0.67500000
P        7.42518904      10.37449337       7.41433431      -0.67500000
P       10.36424223      10.41597066      10.35476210      -0.67500000
In       6.06608172       6.10469234       6.06814321       0.67500000
In       8.87254889       5.99124802       8.86652625       0.67500000
In       5.91597559       8.92219973       8.86599543       0.67500000
In       8.86828284       8.91708747       5.90340923       0.67500000
63
Lattice="11.8016818 -7.6e-06 -7.6e-06 -7.6e-06 11.8016818 -7.8e-06 -7.6e-06 -7.8e-06 11.8016816" Properties=species:S:1:pos:R:3:mulliken_charges:R:1 virial="-0.001343979365248383 3.847269175329341e-05 3.847269175329341e-05 3.847269175329341e-05 -0.001345261788306826 3.847269175329341e-05 3.847269175329341e-05 3.847269175329341e-05 -0.0013426969421899398" fermi_energy=3.4539138232004998 core_to_fermi_energy=15.43004959127955 config_type=Accurate_Bulk energy=-216.41279339471677 pbc="T T T"
P        1.43687491       1.58143485       4.50574771      -0.67500000
P        4.49822379       1.58182941       1.44101720      -0.67500000
P        1.45527004       4.48441750       1.44769790      -0.67500000
In       0.03600217       0.11018787       0.02117095       0.67500000
In       3.10163626       0.24292812       3.10817358       0.67500000
In      -0.01486041       3.02874134       2.96174085       0.67500000
In       2.96265089       3.02544296      -0.02433477       0.67500000
P        1.49281858       1.56519622      10.27277302      -0.67500000
P        4.48038983       1.45525677       7.49236017      -0.67500000
P        1.40268631       4.57413278       7.48141519      -0.67500000
P        4.43205302       4.51015275      10.31895283      -0.67500000
In      -0.04645035       0.01961925       5.89449382       0.67500000
In       2.98169828      -0.02538778       8.94204352       0.67500000
In      -0.06290841       3.07081640       8.92648986       0.67500000
In       2.37358570       2.45846661       6.63634754       0.67500000
P        1.50424112       7.44915362       4.43097365      -0.67500000
P        4.43609159       7.43861062       1.50810491      -0.67500000
P        1.54706782      10.48874470       1.53720102      -0.67500000
P        4.49664385      10.42805155       4.49426069      -0.67500000
In       0.00156288       6.01005234      -0.00665240       0.67500000
In       2.81431805       6.06409334       2.81905298       0.67500000
In       0.06391924       8.95876041       2.95363561       0.67500000
In       2.96582118       8.94978010       0.06391768       0.67500000
P        1.49307755       7.50295817      10.36675717      -0.67500000
P        4.43227532       7.44990993       7.37484313      -0.67500000
P        1.49369504      10.43701520       7.37603717      -0.67500000
P        4.45316846      10.33403225      10.36162860      -0.67500000
In      -0.00842771       5.99233749       5.90115578       0.67500000
In       2.94962528       6.02157199       8.89151798       0.67500000
In       0.01572926       8.94510528       8.85264229       0.67500000
In       2.96565880       8.94921385       5.90877557       0.67500000
P        7.48679323       1.47089575       4.47996090      -0.67500000
P       10.30012022       1.56469476       1.48314808      -0.67500000
P        7.47447682       4.58085452       1.40714203      -0.67500000
P       10.32183954       4.51288648       4.42517352      -0.67500000
In       5.90948453       0.03315590      -0.03483054       0.67500000
In       8.92767389       0.00071516       2.96536441       0.67500000
In       6.48367136       2.60833873       2.51684110       0.67500000
In       8.91099571       3.06221742      -0.04562463       0.67500000
P        7.40927900       1.55180177      10.36490471      -0.67500000
P       10.38496407       1.55504704       7.40140260      -0.67500000
P        7.40723263       4.48162931       7.40013378      -0.67500000
P       10.32545227       4.56299257      10.33784809      -0.67500000
In       5.98566862       0.04594190       5.98314210       0.67500000
In       8.89607381       0.07920044       8.88222052       0.67500000
In       5.92970417       3.01637770       8.89096728       0.67500000
In       8.90198577       3.01769883       5.92838670       0.67500000
P        7.37641931       7.44309513       4.42569720      -0.67500000
P       10.37781053       7.50492736       1.48148787      -0.67500000
P        7.38466345      10.42538867       1.48689464      -0.67500000
P       10.35003226      10.34100317       4.43092466      -0.67500000
In       5.90802699       5.99907082      -0.01901332       0.67500000
In       8.90158685       6.02870030       2.93890563       0.67500000
In       5.91288687       8.94815556       2.96196580       0.67500000
In       8.86358902       8.94477751       0.00491184       0.67500000
P        7.38958308       7.46533321      10.32320433      -0.67500000
P       10.33364121       7.46385678       7.37914811      -0.67500000
P        7.44235945      10.36352178       7.42941363      -0.67500000
P       10.36763704      10.41691952      10.35667522      -0.67500000
In       6.05083438       6.08360041       6.05054383       0.67500000
In       8.86544387       5.99922524       8.85816919       0.67500000
In       5.91368108       8.91296966       8.85853321       0.67500000
In       8.86494452       8.90838672       5.89909897       0.67500000
63
Lattice="11.8016818 -7.6e-06 -7.6e-06 -7.6e-06 11.8016818 -7.8e-06 -7.6e-06 -7.8e-06 11.8016816" Properties=species:S:1:pos:R:3:mulliken_charges:R:1 virial="-0.001343979365248383 3.847269175329341e-05 3.847269175329341e-05 3.847269175329341e-05 -0.001345261788306826 3.847269175329341e-05 3.847269175329341e-05 3.847269175329341e-05 -0.0013426969421899398" fermi_energy=3.4539138232004998 core_to_fermi_energy=15.43004959127955 config_type=Accurate_Bulk energy=-215.848643469803 pbc="T T T"
P        1.43726374       1.62352347       4.54848565      -0.67500000
P        4.53143032       1.61706097       1.44237577      -0.67500000
P        1.44863334       4.48063170       1.44127873      -0.67500000
In       0.02407808       0.11313389       0.01166310       0.67500000
In       3.28117447       0.44358660       3.29596850       0.67500000
In      -0.01763691       3.02543720       2.95976797       0.67500000
In       2.95845957       3.02124847      -0.02754412       0.67500000
P        1.48940126       1.56776718      10.24911749      -0.67500000
P        4.47084124       1.44821378       7.47821492      -0.67500000
P        1.38976670       4.58257516       7.49035809      -0.67500000
P        4.42588372       4.50337987      10.31091392      -0.67500000
In      -0.04899689       0.01582152       5.88233736       0.67500000
In       2.98288004      -0.03802225       8.94034436       0.67500000
In      -0.08046753       3.07749069       8.92566641       0.67500000
In       2.28742479       2.40109006       6.75168307       0.67500000
P        1.49929625       7.44402873       4.42533466      -0.67500000
P        4.43077192       7.43436402       1.50318057      -0.67500000
P        1.50557454      10.45853166       1.49490672      -0.67500000
P        4.52298137      10.42517040       4.52211358      -0.67500000
In      -0.00224877       6.01250851      -0.01105473       0.67500000
In       2.81194226       6.05618400       2.81605814       0.67500000
In       0.05732113       8.95448349       2.94677258       0.67500000
In       2.95894411       8.94460129       0.05654223       0.67500000
P        1.49155457       7.49862385      10.35690268      -0.67500000
P        4.43056979       7.44854318       7.36980576      -0.67500000
P        1.49210682      10.44185428       7.36761062      -0.67500000
P        4.45210067      10.32721792      10.35592528      -0.67500000
In      -0.01177399       5.98362341       5.89339789       0.67500000
In       2.94926595       6.01972008       8.88555200       0.67500000
In       0.01403652       8.94459815       8.84591816       0.67500000
In       2.96095357       8.94706429       5.90198846       0.67500000
P        7.47158188       1.46280659       4.47963081      -0.67500000
P       10.27778874       1.56805931       1.48286123      -0.67500000
P        7.48797486       4.59876278       1.38698898      -0.67500000
P       10.31202031       4.50670965       4.41847562      -0.67500000
In       5.89764423       0.02802650      -0.03822836       0.67500000
In       8.92274737      -0.00928317       2.96822360       0.67500000
In       6.60047875       2.55397670       2.42902987       0.67500000
In       8.91065115       3.06725657      -0.06317013       0.67500000
P        7.40147001       1.54995767      10.36340774      -0.67500000
P       10.38533290       1.55344006       7.39474156      -0.67500000
P        7.40676254       4.47947613       7.39990426      -0.67500000
P       10.32138735       4.56850982      10.33377806      -0.67500000
In       6.00790487       0.03376659       6.01008949       0.67500000
In       8.89796742       0.07993376       8.88328259       0.67500000
In       5.92057078       3.01105237       8.88008340       0.67500000
In       8.89237434       3.01287431       5.92190661       0.67500000
P        7.37354764       7.44369733       4.42296848      -0.67500000
P       10.37042920       7.50261648       1.47858295      -0.67500000
P        7.37641961      10.43027061       1.48552672      -0.67500000
P       10.34523477      10.33703590       4.42827932      -0.67500000
In       5.89995393       5.99491994      -0.02559467       0.67500000
In       8.89817074       6.03065979       2.93712769       0.67500000
In       5.90590779       8.94738529       2.95768318       0.67500000
In       8.85717133       8.94463702       0.00292929       0.67500000
P        7.38480724       7.46197500      10.32155616      -0.67500000
P       10.33458300       7.45845730       7.37304522      -0.67500000
P        7.45595372      10.35185233       7.44205685      -0.67500000
P       10.36216744      10.41405689      10.35112239      -0.67500000
In       6.04859565       6.07863114       6.04580788       0.67500000
In       8.86269128       6.00120406       8.85496601       0.67500000
In       5.91313578       8.90644477       8.85635420       0.67500000
In       8.86571626       8.90272588       5.89766145       0.67500000
63
Lattice="11.8016818 -7.6e-06 -7.6e-06 -7.6e-06 11.8016818 -7.8e-06 -7.6e-06 -7.8e-06 11.8016816" Properties=species:S:1:pos:R:3:mulliken_charges:R:1 virial="-0.001343979365248383 3.847269175329341e-05 3.847269175329341e-05 3.847269175329341e-05 -0.001345261788306826 3.847269175329341e-05 3.847269175329341e-05 3.847269175329341e-05 -0.0013426969421899398" fermi_energy=3.4539138232004998 core_to_fermi_energy=15.43004959127955 config_type=Accurate_Bulk energy=-215.26050867755487 pbc="T T T"
P        1.44750902       1.65623160       4.57725387      -0.67500000
P        4.55055227       1.64255679       1.45385558      -0.67500000
P        1.44342685       4.47909460       1.43584280      -0.67500000
In       0.00983972       0.11415713       0.00310757       0.67500000
In       3.50214516       0.68489074       3.52561201       0.67500000
In      -0.01459049       3.01956661       2.95628963       0.67500000
In       2.95333131       3.01466015      -0.02561764       0.67500000
P        1.48567651       1.56860050      10.23004626      -0.67500000
P        4.45883039       1.44435752       7.45303058      -0.67500000
P        1.38291999       4.58329068       7.49354864      -0.67500000
P        4.42072821       4.49451375      10.30608431      -0.67500000
In      -0.04344153       0.01358448       5.86619667       0.67500000
In       2.98409169      -0.04632070       8.93699199       0.67500000
In      -0.09414851       3.08153442       8.92377722       0.67500000
In       2.21743647       2.35586371       6.83551336       0.67500000
P        1.49280572       7.43941844       4.42185786      -0.67500000
P        4.42776106       7.43034495       1.49710901      -0.67500000
P        1.45048000      10.40841888       1.43916291      -0.67500000
P        4.53616922      10.42653235       4.53659584      -0.67500000
In      -0.00581622       6.01394891      -0.01547634       0.67500000
In       2.80696796       6.05533722       2.81062696       0.67500000
In       0.04578608       8.94682665       2.94294679       0.67500000
In       2.95552467       8.93611377       0.04483352       0.67500000
P        1.49083367       7.49066437      10.34520369      -0.67500000
P        4.42851696       7.45030863       7.36611359      -0.67500000
P        1.49066254      10.44619265       7.36123228      -0.67500000
P        4.45179761      10.32406517      10.35023811      -0.67500000
In      -0.01323523       5.97334117       5.88763485       0.67500000
In       2.95003336       6.01411079       8.87854266       0.67500000
In       0.01267830       8.94323510       8.84037170       0.67500000
In       2.95564415       8.94864662       5.89365527       0.67500000
P        7.44188617       1.46004322       4.47571089      -0.67500000
P       10.25763301       1.57031339       1.48359991      -0.67500000
P        7.49352724       4.60695279       1.37451287      -0.67500000
P       10.30621313       4.49805099       4.41245075      -0.67500000
In       5.88329372       0.02464493      -0.03457969       0.67500000
In       8.91459217      -0.01457093       2.97215704       0.67500000
In       6.68822922       2.50702010       2.35390554       0.67500000
In       8.90912690       3.07044090      -0.07646784       0.67500000
P        7.39249585       1.54688951      10.36351642      -0.67500000
P       10.38736273       1.55043780       7.38528399      -0.67500000
P        7.40708537       4.47697421       7.40028999      -0.67500000
P       10.31812530       4.57062405      10.33071075      -0.67500000
In       6.02580972       0.01787165       6.03271879       0.67500000
In       8.89824109       0.07989679       8.88234865       0.67500000
In       5.91123783       3.00461223       8.86869635       0.67500000
In       8.88160977       3.00688871       5.91390684       0.67500000
P        7.37242160       7.44708057       4.41971080      -0.67500000
P       10.36072998       7.49588626       1.47639720      -0.67500000
P        7.37053674      10.43475150       1.48412281      -0.67500000
P       10.33979076      10.33694528       4.42565619      -0.67500000
In       5.89402701       5.98872275      -0.02993756       0.67500000
In       8.89320486       6.02733934       2.93636289       0.67500000
In       5.89778050       8.95005387       2.95278378       0.67500000
In       8.85215987       8.94358238       0.00117105       0.67500000
P        7.38103629       7.45692250      10.32061980      -0.67500000
P       10.33611370       7.45170166       7.36769103      -0.67500000
P        7.46682361      10.33953496       7.45124983      -0.67500000
P       10.35510642      10.41074288      10.34397143      -0.67500000
In       6.05181521       6.08083303       6.04629310       0.67500000
In       8.86131544       6.00108892       8.85284118       0.67500000
In       5.91312777       8.90123019       8.85665008       0.67500000
In       8.86928629       8.89831694       5.89612456       0.67500000
63