63
Lattice="11.8016818 -7.6e-06 -7.6e-06 -7.6e-06 11.8016818 -7.8e-06 -7.6e-06 -7.8e-06 11.8016816" Properties=species:S:1:pos:R:3:mulliken_charges:R:1 virial="-0.001343979365248383 3.847269175329341e-05 3.847269175329341e-05 3.847269175329341e-05 -0.001345261788306826 3.847269175329341e-05 3.847269175329341e-05 3.847269175329341e-05 -0.0013426969421899398" fermi_energy=3.4539138232004998 core_to_fermi_energy=15.43004959127955 config_type=Accurate_Bulk energy=-216.95161169637282 pbc="T T T"
P        1.45986891       1.45986885       4.40982793      -0.67500000
P        4.40982801       1.45986894       1.45986892      -0.67500000
P        1.45986892       4.40982801       1.45986884      -0.67500000
In      -0.00217240      -0.00217241      -0.00217241       0.67500000
In       2.94020490      -0.02209591       2.94020484       0.67500000
In      -0.02209585       2.94020484       2.94020479       0.67500000
In       2.94020491       2.94020490      -0.02209590       0.67500000
P        1.47059149       1.47059133      10.31041015      -0.67500000
P        4.44142591       1.45986300       7.39138544      -0.67500000
P        1.45986314       4.44142578       7.39138536      -0.67500000
P        4.42562056       4.42562040      10.32646479      -0.67500000
In      -0.01455439      -0.01455451       5.89451371       0.67500000
In       2.95674285      -0.01455865       8.86581179       0.67500000
In      -0.01455847       2.95674269       8.86581174       0.67500000
In       2.74902901       2.74902888       6.10222557       0.67500000
P        1.45986313       7.39138550       4.44142571      -0.67500000
P        4.44142591       7.39138557       1.45986298      -0.67500000
P        1.47059148      10.31041032       1.47059130      -0.67500000
P        4.42562056      10.32646496       4.42562032      -0.67500000
In      -0.01455439       5.89451380      -0.01455451       0.67500000
In       2.74902901       6.10222568       2.74902885       0.67500000
In      -0.01455848       8.86581189       2.95674264       0.67500000
In       2.95674285       8.86581194      -0.01455865       0.67500000
P        1.47058721       7.38065362      10.34252386      -0.67500000
P        4.40981859       7.39137967       7.39137954      -0.67500000
P        1.47058721      10.34252403       7.38065350      -0.67500000
P        4.42561683      10.32646104      10.32646087      -0.67500000
In      -0.02210026       5.91105216       5.91105206       0.67500000
In       2.94019665       5.91104828       8.87334942       0.67500000
In      -0.00218455       8.85342909       8.85342895       0.67500000
In       2.94019665       8.87334958       5.91104818       0.67500000
P        7.39138556       1.45986307       4.44142583      -0.67500000
P       10.31041032       1.47059148       1.47059145      -0.67500000
P        7.39138555       4.44142591       1.45986306      -0.67500000
P       10.32646502       4.42562050       4.42562042      -0.67500000
In       5.89451381      -0.01455439      -0.01455440       0.67500000
In       8.86581196      -0.01455854       2.95674280       0.67500000
In       6.10222576       2.74902895       2.74902892       0.67500000
In       8.86581195       2.95674285      -0.01455854       0.67500000
P        7.38065378       1.47058705      10.34252397      -0.67500000
P       10.34252414       1.47058709       7.38065366      -0.67500000
P        7.39137980       4.40981846       7.39137961      -0.67500000
P       10.32646119       4.42561667      10.32646097      -0.67500000
In       5.91105228      -0.02210039       5.91105217       0.67500000
In       8.85342926      -0.00218471       8.85342911       0.67500000
In       5.91104845       2.94019648       8.87334947       0.67500000
In       8.87334970       2.94019653       5.91104829       0.67500000
P        7.39137981       7.39137975       4.40981839      -0.67500000
P       10.34252414       7.38065378       1.47058706      -0.67500000
P        7.38065378      10.34252415       1.47058702      -0.67500000
P       10.32646119      10.32646114       4.42561660      -0.67500000
In       5.91105228       5.91105227      -0.02210038       0.67500000
In       8.87334970       5.91104839       2.94019648       0.67500000
In       5.91104846       8.87334963       2.94019643       0.67500000
In       8.85342926       8.85342925      -0.00218472       0.67500000
P        7.38064945       7.38064929      10.31040125      -0.67500000
P       10.31040154       7.38064934       7.38064921      -0.67500000
P        7.38064945      10.31040143       7.38064917      -0.67500000
P       10.32645754      10.32645738      10.32645721      -0.67500000
In       6.10222041       6.10222027       6.10222015       0.67500000
In       8.86580335       5.89450148       8.86580308       0.67500000
In       5.89450165       8.86580317       8.86580302       0.67500000
In       8.86580336       8.86580323       5.89450139       0.67500000
63
Lattice="11.8016818 -7.6e-06 -7.6e-06 -7.6e-06 11.8016818 -7.8e-06 -7.6e-06 -7.8e-06 11.8016816" Properties=species:S:1:pos:R:3:mulliken_charges:R:1 virial="-0.001343979365248383 3.847269175329341e-05 3.847269175329341e-05 3.847269175329341e-05 -0.001345261788306826 3.847269175329341e-05 3.847269175329341e-05 3.847269175329341e-05 -0.0013426969421899398" fermi_energy=3.4539138232004998 core_to_fermi_energy=15.43004959127955 config_type=Accurate_Bulk energy=-216.8593453552491 pbc="T T T"
P        1.62230696       1.62230691       4.37619060      -0.67500000
P        4.45270551       1.46512607       1.39414364      -0.67500000
P        1.46512606       4.45270551       1.39414358      -0.67500000
In       0.01084256       0.01084256       0.00916436       0.67500000
In       3.00138511       0.02893585       2.91839513       0.67500000
In       0.02893591       3.00138505       2.91839507       0.67500000
In       2.95288055       2.95288054      -0.05344439       0.67500000
P        1.47362287       1.47362271      10.30484704      -0.67500000
P        4.47780199       1.45880969       7.44217440      -0.67500000
P        1.45880982       4.47780187       7.44217434      -0.67500000
P        4.44443754       4.44443738      10.31912986      -0.67500000
In       0.07252311       0.07252298       5.84905897       0.67500000
In       2.97224740      -0.02169994       8.88220183       0.67500000
In      -0.02169977       2.97224724       8.88220178       0.67500000
In       2.83805233       2.83805219       6.18498651       0.67500000
P        1.47190498       7.38605664       4.43883898      -0.67500000
P        4.44448956       7.38637948       1.48042410      -0.67500000
P        1.49282975      10.34568631       1.49501785      -0.67500000
P        4.44110634      10.34651401       4.42264857      -0.67500000
In      -0.02979982       5.93811689      -0.04205549       0.67500000
In       2.75900175       6.07581045       2.75723507       0.67500000
In       0.00496085       8.88022370       2.96187681       0.67500000
In       2.96342878       8.87768341       0.01465380       0.67500000
P        1.46762210       7.43215944      10.34286553      -0.67500000
P        4.41249986       7.39495126       7.38219227      -0.67500000
P        1.49194740      10.37466662       7.35445110      -0.67500000
P        4.44122018      10.30775926      10.33230995      -0.67500000
In      -0.01232220       5.92125020       5.92352168       0.67500000
In       2.94569764       5.95099894       8.90115952       0.67500000
In       0.00665482       8.89054350       8.83057942       0.67500000
In       2.95163545       8.88163264       5.89686251       0.67500000
P        7.38605670       1.47190493       4.43883909      -0.67500000
P       10.34568631       1.49282975       1.49501800      -0.67500000
P        7.38637946       4.44448956       1.48042417      -0.67500000
P       10.34651406       4.44110629       4.42264867      -0.67500000
In       5.93811690      -0.02979983      -0.04205538       0.67500000
In       8.88022376       0.00496078       2.96187696       0.67500000
In       6.07581052       2.75900167       2.75723514       0.67500000
In       8.87768341       2.96342878       0.01465391       0.67500000
P        7.43215960       1.46762195      10.34286564      -0.67500000
P       10.37466674       1.49194729       7.35445125      -0.67500000
P        7.39495140       4.41249974       7.38219234      -0.67500000
P       10.30775942       4.44122002      10.33231006      -0.67500000
In       5.92125033      -0.01232233       5.92352178       0.67500000
In       8.89054367       0.00665465       8.83057957       0.67500000
In       5.95099911       2.94569747       8.90115957       0.67500000
In       8.88163277       2.95163533       5.89686262       0.67500000
P        7.40973883       7.40973877       4.41611339      -0.67500000
P       10.34426573       7.40049575       1.47882498      -0.67500000
P        7.40049575      10.34426573       1.47882494      -0.67500000
P       10.37593286      10.37593280       4.43038474      -0.67500000
In       5.91752613       5.91752612      -0.00923260       0.67500000
In       8.87939709       5.92028431       2.94557296       0.67500000
In       5.92028437       8.87939703       2.94557291       0.67500000
In       8.86247365       8.86247364      -0.00538000       0.67500000
P        7.38428390       7.38428374      10.31503344      -0.67500000
P       10.31491180       7.39821849       7.37874241      -0.67500000
P        7.39821860      10.31491169       7.37874236      -0.67500000
P       10.34104118      10.34104103      10.32910866      -0.67500000
In       6.11311189       6.11311174       6.09622673       0.67500000
In       8.86103592       5.90602408       8.85599104       0.67500000
In       5.90602424       8.86103575       8.85599098       0.67500000
In       8.89637352       8.89637339       5.88158246       0.67500000
63
Lattice="11.8016818 -7.6e-06 -7.6e-06 -7.6e-06 11.8016818 -7.8e-06 -7.6e-06 -7.8e-06 11.8016816" Properties=species:S:1:pos:R:3:mulliken_charges:R:1 virial="-0.001343979365248383 3.847269175329341e-05 3.847269175329341e-05 3.847269175329341e-05 -0.001345261788306826 3.847269175329341e-05 3.847269175329341e-05 3.847269175329341e-05 -0.0013426969421899398" fermi_energy=3.4539138232004998 core_to_fermi_energy=15.43004959127955 config_type=Accurate_Bulk energy=-216.62229041848352 pbc="T T T"
P        1.78077945       1.78077941       4.28767178      -0.67500000
P        4.47379281       1.45710048       1.35449632      -0.67500000
P        1.45710047       4.47379281       1.35449626      -0.67500000
In       0.01065758       0.01065758       0.01337784       0.67500000
In       3.03173934       0.04506153       2.89700270       0.67500000
In       0.04506158       3.03173928       2.89700264       0.67500000
In       2.95221761       2.95221760      -0.06213176       0.67500000
P        1.46983331       1.46983315      10.30307192      -0.67500000
P        4.48615064       1.44779562       7.46698059      -0.67500000
P        1.44779575       4.48615052       7.46698053      -0.67500000
P        4.44551249       4.44551234      10.31670854      -0.67500000
In       0.06599752       0.06599739       5.86205871       0.67500000
In       2.97293293      -0.03332110       8.89347580       0.67500000
In      -0.03332092       2.97293276       8.89347575       0.67500000
In       2.87161166       2.87161151       6.23516860       0.67500000
P        1.47252807       7.37546909       4.43697691      -0.67500000
P        4.43755156       7.37392027       1.49221406      -0.67500000
P        1.49381843      10.35473286       1.50622347      -0.67500000
P        4.43827651      10.34888790       4.42263562      -0.67500000
In      -0.04424031       5.95386374      -0.05765079       0.67500000
In       2.75909839       6.04606211       2.76552334       0.67500000
In       0.00545593       8.87519854       2.96279344       0.67500000
In       2.96046129       8.87440468       0.02937723       0.67500000
P        1.46350042       7.44568874      10.34408179      -0.67500000
P        4.40862133       7.38773058       7.37948968      -0.67500000
P        1.49241693      10.37437781       7.35151262      -0.67500000
P        4.44237805      10.29169148      10.33669375      -0.67500000
In      -0.01278487       5.91724662       5.92710193       0.67500000
In       2.94189040       5.95957216       8.91327122       0.67500000
In       0.00405848       8.89298620       8.82776379       0.67500000
In       2.95080565       8.87572105       5.89353252       0.67500000
P        7.37546915       1.47252802       4.43697702      -0.67500000
P       10.35473285       1.49381843       1.50622362      -0.67500000
P        7.37392026       4.43755156       1.49221413      -0.67500000
P       10.34888794       4.43827646       4.42263571      -0.67500000
In       5.95386375      -0.04424032      -0.05765068       0.67500000
In       8.87519860       0.00545587       2.96279360       0.67500000
In       6.04606218       2.75909832       2.76552342       0.67500000
In       8.87440468       2.96046128       0.02937733       0.67500000
P        7.44568889       1.46350026      10.34408189      -0.67500000
P       10.37437793       1.49241682       7.35151277      -0.67500000
P        7.38773071       4.40862121       7.37948975      -0.67500000
P       10.29169164       4.44237789      10.33669385      -0.67500000
In       5.91724674      -0.01278499       5.92710203       0.67500000
In       8.89298637       0.00405832       8.82776394       0.67500000
In       5.95957233       2.94189022       8.91327127       0.67500000
In       8.87572118       2.95080553       5.89353262       0.67500000
P        7.40465943       7.40465938       4.41722585      -0.67500000
P       10.33725255       7.39993832       1.48146421      -0.67500000
P        7.39993832      10.33725256       1.48146417      -0.67500000
P       10.37750302      10.37750296       4.43296160      -0.67500000
In       5.91433016       5.91433015      -0.00395013       0.67500000
In       8.87464732       5.91509793       2.94842633       0.67500000
In       5.91509798       8.87464726       2.94842628       0.67500000
In       8.86022459       8.86022459      -0.00498064       0.67500000
P        7.38102264       7.38102248      10.31738343      -0.67500000
P       10.31162346       7.39758558       7.37802743      -0.67500000
P        7.39758570      10.31162334       7.37802738      -0.67500000
P       10.34041398      10.34041382      10.33098787      -0.67500000
In       6.10494654       6.10494639       6.09047872       0.67500000
In       8.85267241       5.90455742       8.85203322       0.67500000
In       5.90455758       8.85267224       8.85203317       0.67500000
In       8.89237677       8.89237665       5.87809907       0.67500000
63
Lattice="11.8016818 -7.6e-06 -7.6e-06 -7.6e-06 11.8016818 -7.8e-06 -7.6e-06 -7.8e-06 11.8016816" Properties=species:S:1:pos:R:3:mulliken_charges:R:1 virial="-0.001343979365248383 3.847269175329341e-05 3.847269175329341e-05 3.847269175329341e-05 -0.001345261788306826 3.847269175329341e-05 3.847269175329341e-05 3.847269175329341e-05 -0.0013426969421899398" fermi_energy=3.4539138232004998 core_to_fermi_energy=15.43004959127955 config_type=Accurate_Bulk energy=-216.35173202974073 pbc="T T T"
P        1.95482026       1.95482023       4.17928519      -0.67500000
P        4.48824214       1.44897962       1.32703727      -0.67500000
P        1.44897961       4.48824214       1.32703721      -0.67500000
In       0.01051521       0.01051521       0.01574658       0.67500000
In       3.04885864       0.05610032       2.88546906       0.67500000
In       0.05610037       3.04885858       2.88546900       0.67500000
In       2.95119356       2.95119355      -0.06336896       0.67500000
P        1.46757207       1.46757191      10.30274106      -0.67500000
P        4.48946615       1.43986522       7.48054195      -0.67500000
P        1.43986535       4.48946603       7.48054189      -0.67500000
P        4.44526448       4.44526433      10.31589097      -0.67500000
In       0.02475183       0.02475169       5.90082820       0.67500000
In       2.97370469      -0.04062260       8.90187847       0.67500000
In      -0.04062242       2.97370452       8.90187842       0.67500000
In       2.88707208       2.88707194       6.26743414       0.67500000
P        1.47324031       7.36923472       4.43527550      -0.67500000
P        4.43171401       7.36410751       1.50102889      -0.67500000
P        1.49337882      10.36166148       1.51459271      -0.67500000
P        4.43435230      10.35176826       4.42376965      -0.67500000
In      -0.05390824       5.96346744      -0.06756676       0.67500000
In       2.75933369       6.02007049       2.77358240       0.67500000
In       0.00525554       8.86990450       2.96204597       0.67500000
In       2.95850207       8.87215467       0.03938413       0.67500000
P        1.46204126       7.45211404      10.34561173      -0.67500000
P        4.40673347       7.38244565       7.37772361      -0.67500000
P        1.49296122      10.36913589       7.35449521      -0.67500000
P        4.44321544      10.28139986      10.33952897      -0.67500000
In      -0.01218855       5.91449435       5.92844759       0.67500000
In       2.93942791       5.96314233       8.91962112       0.67500000
In       0.00308978       8.89102108       8.82933057       0.67500000
In       2.95084283       8.87071678       5.89206877       0.67500000
P        7.36923478       1.47324026       4.43527561      -0.67500000
P       10.36166147       1.49337882       1.51459286      -0.67500000
P        7.36410749       4.43171401       1.50102896      -0.67500000
P       10.35176831       4.43435225       4.42376974      -0.67500000
In       5.96346745      -0.05390825      -0.06756666       0.67500000
In       8.86990456       0.00525547       2.96204613       0.67500000
In       6.02007056       2.75933363       2.77358247       0.67500000
In       8.87215467       2.95850207       0.03938423       0.67500000
P        7.45211420       1.46204110      10.34561183      -0.67500000
P       10.36913602       1.49296111       7.35449536      -0.67500000
P        7.38244579       4.40673335       7.37772368      -0.67500000
P       10.28140001       4.44321528      10.33952907      -0.67500000
In       5.91449447      -0.01218867       5.92844770       0.67500000
In       8.89102126       0.00308961       8.82933072       0.67500000
In       5.96314250       2.93942774       8.91962118       0.67500000
In       8.87071691       2.95084270       5.89206887       0.67500000
P        7.39927785       7.39927779       4.41713430      -0.67500000
P       10.33242572       7.39858404       1.48246769      -0.67500000
P        7.39858404      10.33242572       1.48246764      -0.67500000
P       10.37088108      10.37088102       4.43283050      -0.67500000
In       5.91211218       5.91211217      -0.00065464       0.67500000
In       8.87198314       5.91034122       2.95038307       0.67500000
In       5.91034128       8.87198308       2.95038303       0.67500000
In       8.85878260       8.85878259      -0.00462212       0.67500000
P        7.37911559       7.37911543      10.31879342      -0.67500000
P       10.31019732       7.39742445       7.37728702      -0.67500000
P        7.39742457      10.31019720       7.37728697      -0.67500000
P       10.33996970      10.33996955      10.33155682      -0.67500000
In       6.09720573       6.09720557       6.08509748       0.67500000
In       8.84754536       5.90363415       8.84926169       0.67500000
In       5.90363432       8.84754519       8.84926164       0.67500000
In       8.88559903       8.88559890       5.87580022       0.67500000
63
Lattice="11.8016818 -7.6e-06 -7.6e-06 -7.6e-06 11.8016818 -7.8e-06 -7.6e-06 -7.8e-06 11.8016816" Properties=species:S:1:pos:R:3:mulliken_charges:R:1 virial="-0.001343979365248383 3.847269175329341e-05 3.847269175329341e-05 3.847269175329341e-05 -0.001345261788306826 3.847269175329341e-05 3.847269175329341e-05 3.847269175329341e-05 -0.0013426969421899398" fermi_energy=3.4539138232004998 core_to_fermi_energy=15.43004959127955 config_type=Accurate_Bulk energy=-216.10567082832242 pbc="T T T"
P        2.15470914       2.15470911       4.06826620      -0.67500000
P        4.50099249       1.43969427       1.29745647      -0.67500000
P        1.43969426       4.50099248       1.29745641      -0.67500000
In       0.01035452       0.01035452       0.01802049       0.67500000
In       3.06211440       0.07689985       2.88105058       0.67500000
In       0.07689990       3.06211434       2.88105052       0.67500000
In       2.95024635       2.95024634      -0.06495030       0.67500000
P        1.46493703       1.46493687      10.30231002      -0.67500000
P        4.49076312       1.43227912       7.49206056      -0.67500000
P        1.43227925       4.49076300       7.49206050      -0.67500000
P        4.44508022       4.44508006      10.31487527      -0.67500000
In      -0.01312957      -0.01312971       5.93563241       0.67500000
In       2.97442300      -0.04855459       8.91068628       0.67500000
In      -0.04855442       2.97442283       8.91068623       0.67500000
In       2.89874614       2.89874599       6.29349347       0.67500000
P        1.47484784       7.36114825       4.43264603      -0.67500000
P        4.42435656       7.35135892       1.51208582      -0.67500000
P        1.49451307      10.37246191       1.52570996      -0.67500000
P        4.42853438      10.35842938       4.42488625      -0.67500000
In      -0.06483016       5.97320698      -0.07772773       0.67500000
In       2.76091249       5.98455192       2.78464704       0.67500000
In       0.00602918       8.86403415       2.96104066       0.67500000
In       2.95648431       8.87001282       0.05177443       0.67500000
P        1.46055588       7.45874870      10.34753530      -0.67500000
P        4.40456039       7.37612822       7.37471884      -0.67500000
P        1.49448845      10.36369966       7.35703909      -0.67500000
P        4.44421854      10.26963251      10.34220327      -0.67500000
In      -0.01103435       5.91226869       5.93012823       0.67500000
In       2.93651659       5.96611358       8.92541297       0.67500000
In       0.00217168       8.88916749       8.83081329       0.67500000
In       2.95076766       8.86546206       5.88967424       0.67500000
P        7.36114831       1.47484778       4.43264614      -0.67500000
P       10.37246190       1.49451308       1.52571010      -0.67500000
P        7.35135890       4.42435656       1.51208589      -0.67500000
P       10.35842943       4.42853433       4.42488634      -0.67500000
In       5.97320699      -0.06483017      -0.07772762       0.67500000
In       8.86403421       0.00602912       2.96104082       0.67500000
In       5.98455198       2.76091242       2.78464711       0.67500000
In       8.87001281       2.95648431       0.05177453       0.67500000
P        7.45874886       1.46055572      10.34753540      -0.67500000
P       10.36369979       1.49448833       7.35703923      -0.67500000
P        7.37612836       4.40456027       7.37471891      -0.67500000
P       10.26963267       4.44421838      10.34220337      -0.67500000
In       5.91226881      -0.01103447       5.93012833       0.67500000
In       8.88916767       0.00217152       8.83081344       0.67500000
In       5.96611375       2.93651641       8.92541302       0.67500000
In       8.86546219       2.95076754       5.88967434       0.67500000
P        7.39212629       7.39212624       4.41723481      -0.67500000
P       10.32713079       7.39712834       1.48379248      -0.67500000
P        7.39712834      10.32713079       1.48379244      -0.67500000
P       10.36386293      10.36386287       4.43104878      -0.67500000
In       5.90957231       5.90957231       0.00318182       0.67500000
In       8.86970558       5.90377714       2.95279490       0.67500000
In       5.90377719       8.86970552       2.95279486       0.67500000
In       8.85710744       8.85710744      -0.00411552       0.67500000
P        7.37693205       7.37693189      10.32051797      -0.67500000
P       10.30876289       7.39731600       7.37633943      -0.67500000
P        7.39731611      10.30876278       7.37633939      -0.67500000
P       10.33944680      10.33944664      10.33235123      -0.67500000
In       6.08437793       6.08437777       6.07581470       0.67500000
In       8.84124877       5.90263412       8.84553536       0.67500000
In       5.90263429       8.84124859       8.84553530       0.67500000
In       8.87792160       8.87792148       5.87273683       0.67500000
63
Lattice="11.8016818 -7.6e-06 -7.6e-06 -7.6e-06 11.8016818 -7.8e-06 -7.6e-06 -7.8e-06 11.8016816" Properties=species:S:1:pos:R:3:mulliken_charges:R:1 virial="-0.001343979365248383 3.847269175329341e-05 3.847269175329341e-05 3.847269175329341e-05 -0.001345261788306826 3.847269175329341e-05 3.847269175329341e-05 3.847269175329341e-05 -0.0013426969421899398" fermi_energy=3.4539138232004998 core_to_fermi_energy=15.43004959127955 config_type=Accurate_Bulk energy=-215.90975194154797 pbc="T T T"
P        2.39365812       2.39365809       3.95871368      -0.67500000
P        4.51039801       1.42874984       1.26597565      -0.67500000
P        1.42874983       4.51039801       1.26597560      -0.67500000
In       0.00981829       0.00981828       0.02002341       0.67500000
In       3.07378812       0.10948665       2.88319847       0.67500000
In       0.10948670       3.07378806       2.88319840       0.67500000
In       2.94977295       2.94977294      -0.06790785       0.67500000
P        1.46180506       1.46180490      10.30183694      -0.67500000
P        4.48994470       1.42547868       7.50098942      -0.67500000
P        1.42547881       4.48994458       7.50098936      -0.67500000
P        4.44521684       4.44521668      10.31332013      -0.67500000
In      -0.05805848      -0.05805863       5.97643558       0.67500000
In       2.97499563      -0.05678828       8.91950712       0.67500000
In      -0.05678811       2.97499546       8.91950707       0.67500000
In       2.90782581       2.90782567       6.31026663       0.67500000
P        1.47786122       7.35039989       4.42860027      -0.67500000
P        4.41608453       7.33643713       1.52444944      -0.67500000
P        1.49803331      10.38705073       1.53892091      -0.67500000
P        4.42144358      10.36867408       4.42519979      -0.67500000
In      -0.07648796       5.98210933      -0.08697152       0.67500000
In       2.76600504       5.93567676       2.79971392       0.67500000
In       0.00842518       8.85761730       2.95968011       0.67500000
In       2.95449672       8.86768909       0.06580294       0.67500000
P        1.45900030       7.46465616      10.35009622      -0.67500000
P        4.40223928       7.36846679       7.37004261      -0.67500000
P        1.49679850      10.35616283       7.36060230      -0.67500000
P        4.44546613      10.25670251      10.34447402      -0.67500000
In      -0.00941595       5.91060753       5.93186606       0.67500000
In       2.93321322       5.96838415       8.93032600       0.67500000
In       0.00124814       8.88624183       8.83300721       0.67500000
In       2.95067549       8.85973454       5.88592337       0.67500000
P        7.35039994       1.47786116       4.42860038      -0.67500000
P       10.38705071       1.49803331       1.53892105      -0.67500000
P        7.33643711       4.41608453       1.52444950      -0.67500000
P       10.36867413       4.42144353       4.42519989      -0.67500000
In       5.98210934      -0.07648798      -0.08697142       0.67500000
In       8.85761736       0.00842512       2.95968026       0.67500000
In       5.93567682       2.76600498       2.79971399       0.67500000
In       8.86768908       2.95449671       0.06580304       0.67500000
P        7.46465632       1.45900014      10.35009632      -0.67500000
P       10.35616296       1.49679838       7.36060244      -0.67500000
P        7.36846692       4.40223916       7.37004268      -0.67500000
P       10.25670266       4.44546597      10.34447413      -0.67500000
In       5.91060766      -0.00941608       5.93186617       0.67500000
In       8.88624201       0.00124797       8.83300736       0.67500000
In       5.96838432       2.93321304       8.93032605       0.67500000
In       8.85973467       2.95067536       5.88592347       0.67500000
P        7.38228010       7.38228004       4.41758795      -0.67500000
P       10.32166390       7.39578194       1.48538526      -0.67500000
P        7.39578194      10.32166390       1.48538521      -0.67500000
P       10.35479288      10.35479282       4.42777684      -0.67500000
In       5.90705635       5.90705634       0.00694829       0.67500000
In       8.86762082       5.89593100       2.95523756       0.67500000
In       5.89593105       8.86762076       2.95523752       0.67500000
In       8.85527855       8.85527855      -0.00358190       0.67500000
P        7.37467751       7.37467735      10.32230612      -0.67500000
P       10.30740885       7.39735538       7.37493071      -0.67500000
P        7.39735550      10.30740874       7.37493066      -0.67500000
P       10.33870050      10.33870035      10.33285619      -0.67500000
In       6.06370863       6.06370848       6.06054818       0.67500000
In       8.83380679       5.90160876       8.84057809       0.67500000
In       5.90160893       8.83380661       8.84057803       0.67500000
In       8.86819605       8.86819592       5.86882359       0.67500000
63