4
Lattice="3.7561 0.0 0.0 1.87805 3.252878 0.0 0.0 0.0 6.2727242" Properties=species:S:1:pos:R:3:forces:R:3 energy=-17.55730043 stress="-0.20132249204768823 -0.0 -0.0 -0.0 -0.20132249204768823 -0.0 -0.0 -0.0 -0.20081697974056467" pbc="T T T"
In       1.87805000       1.08429000       2.31696000       0.00000000       0.00000000      -0.04016700
In       3.75610000       2.16859000       5.45332000      -0.00000000      -0.00000000      -0.04016700
P        1.87805000       1.08429000       0.00000000      -0.00000000      -0.00000000       0.04016700
P        3.75610000       2.16859000       3.13636000       0.00000000      -0.00000000       0.04016700
