4
Lattice="4.1299634 0.0 0.0 2.0649817 3.5766533 0.0 0.0 0.0 6.7867689" Properties=species:S:1:pos:R:3:forces:R:3 energy=-19.33946215 stress="0.005578342539749036 -0.0 -0.0 -0.0 0.005578342539749036 -0.0 -0.0 -0.0 0.005917275209811875" pbc="T T T"
In       2.06498000       1.19222000       2.54117000      -0.00000000       0.00000000      -0.00234800
In       4.12996000       2.38444000       5.93455000       0.00000000       0.00000000      -0.00234800
P        2.06498000       1.19222000       0.00000000      -0.00000000      -0.00000000       0.00234800
P        4.12996000       2.38444000       3.39338000       0.00000000      -0.00000000       0.00234800
