4
Lattice="3.6943448 0.0 0.0 1.8471724 3.1993964 0.0 0.0 0.0 6.2222371" Properties=species:S:1:pos:R:3:forces:R:3 energy=-16.85354169 stress="-0.25519831252801667 0.0 -0.0 0.0 -0.2551983062865075 -0.0 -0.0 -0.0 -0.25523296538668355" pbc="T T T"
In       1.84717000       1.06647000       2.28275000      -0.00000000       0.00000000      -0.05214100
In       3.69434000       2.13293000       5.39387000       0.00000000       0.00000000      -0.05214100
P        1.84717000       1.06647000       0.00000000      -0.00000000      -0.00000000       0.05214100
P        3.69434000       2.13293000       3.11112000      -0.00000000      -0.00000000       0.05214100
