4
Lattice="3.900777 0.0 0.0 1.9503884 3.3781719 0.0 0.0 0.0 6.4481793" Properties=species:S:1:pos:R:3:forces:R:3 energy=-18.75980296 stress="-0.09559551550784931 0.0 -0.0 0.0 -0.09559551550784931 -0.0 -0.0 -0.0 -0.09516996317413748" pbc="T T T"
In       1.95039000       1.12606000       2.40124000       0.00000000       0.00000000      -0.01320800
In       3.90078000       2.25211000       5.62533000       0.00000000      -0.00000000      -0.01320800
P        1.95039000       1.12606000       0.00000000      -0.00000000       0.00000000       0.01320800
P        3.90078000       2.25211000       3.22409000      -0.00000000      -0.00000000       0.01320800
