4
Lattice="4.2926326 0.0 0.0 2.1463163 3.7175288 0.0 0.0 0.0 7.0431371" Properties=species:S:1:pos:R:3:forces:R:3 energy=-19.02621709 stress="0.04199561966295796 -0.0 -0.0 -0.0 0.04199561966295796 -0.0 -0.0 -0.0 0.04207848193811317" pbc="T T T"
In       2.14632000       1.23918000       2.64266000       0.00000000       0.00000000      -0.00024500
In       4.29263000       2.47835000       6.16422000      -0.00000000      -0.00000000      -0.00024500
P        2.14632000       1.23918000       0.00000000       0.00000000      -0.00000000       0.00024500
P        4.29263000       2.47835000       3.52157000      -0.00000000      -0.00000000       0.00024500
