4
Lattice="4.2269616 0.0 0.0 2.1134808 3.6606562 0.0 0.0 0.0 6.9389806" Properties=species:S:1:pos:R:3:forces:R:3 energy=-19.20780056 stress="0.02999913953057229 0.0 -0.0 0.0 0.02999913953057229 -0.0 -0.0 -0.0 0.030150864375913376" pbc="T T T"
In       2.11348000       1.22022000       2.60142000      -0.00000000      -0.00000000       0.00025700
In       4.22696000       2.44044000       6.07091000       0.00000000      -0.00000000       0.00025700
P       2.11348000       1.22022000       0.00000000      -0.00000000       0.00000000      -0.00025700
P       4.22696000       2.44044000       3.46949000       0.00000000      -0.00000000      -0.00025700
