4
Lattice="4.0565138 0.0 0.0 2.0282569 3.5130439 0.0 0.0 0.0 6.6737356" Properties=species:S:1:pos:R:3:forces:R:3 energy=-19.30657301 stress="-0.01930418257167968 0.0 -0.0 0.0 -0.019304176330170553 -0.0 -0.0 -0.0 -0.01896589901856593" pbc="T T T"
In       2.02826000       1.17101000       2.49564000       0.00000000      -0.00000000      -0.00368800
In       4.05651000       2.34203000       5.83251000      -0.00000000      -0.00000000      -0.00368800
P        2.02826000       1.17101000       0.00000000      -0.00000000       0.00000000       0.00368800
P        4.05651000       2.34203000       3.33687000       0.00000000       0.00000000       0.00368800
