4
Lattice="4.3820634 0.0 0.0 2.1910317 3.7949784 0.0 0.0 0.0 7.1863213" Properties=species:S:1:pos:R:3:forces:R:3 energy=-18.68388388 stress="0.053704247635967005 -0.0 -0.0 -0.0 0.053704247635967005 0.0 -0.0 0.0 0.05366777849814446" pbc="T T T"
In       2.19103000       1.26499000       2.69846000      -0.00000000       0.00000000       0.00273400
In       4.38206000       2.52999000       6.29162000       0.00000000      -0.00000000       0.00273400
P        2.19103000       1.26499000       0.00000000      -0.00000000       0.00000000      -0.00273400
P        4.38206000       2.52999000       3.59316000      -0.00000000       0.00000000      -0.00273400
