4
Lattice="4.5464258 0.0 0.0 2.2732129 3.9373206 0.0 0.0 0.0 7.4607306" Properties=species:S:1:pos:R:3:forces:R:3 energy=-17.83772988 stress="0.0651462320976092 -0.0 -0.0 -0.0 0.06514624458062744 -0.0 -0.0 -0.0 0.06491032177717819" pbc="T T T"
In       2.27321000       1.31244000       2.80591000       0.00000000       0.00000000       0.00492000
In       4.54643000       2.62488000       6.53627000      -0.00000000       0.00000000       0.00492000
P        2.27321000       1.31244000       0.00000000      -0.00000000      -0.00000000      -0.00492000
P        4.54643000       2.62488000       3.73037000       0.00000000      -0.00000000      -0.00492000
