4
Lattice="3.9456512 0.0 0.0 1.9728256 3.4170342 0.0 0.0 0.0 6.5111923" Properties=species:S:1:pos:R:3:forces:R:3 energy=-18.99216114 stress="-0.06977798112181766 -0.0 -0.0 -0.0 -0.06977798112181766 -0.0 -0.0 -0.0 -0.06945560717546578" pbc="T T T"
In       1.97283000       1.13901000       2.42809000       0.00000000      -0.00000000      -0.00754800
In       3.94565000       2.27802000       5.68368000      -0.00000000       0.00000000      -0.00754800
P        1.97283000       1.13901000       0.00000000       0.00000000       0.00000000       0.00754800
P        3.94565000       2.27802000       3.25560000      -0.00000000      -0.00000000       0.00754800
