4
Lattice="3.7888561 0.0 0.0 1.894428 3.2812455 0.0 0.0 0.0 6.3068915" Properties=species:S:1:pos:R:3:forces:R:3 energy=-17.88899513 stress="-0.1744868364515334 0.0 -0.0 0.0 -0.17448682396851514 -0.0 -0.0 -0.0 -0.17403445811159848" pbc="T T T"
In       1.89443000       1.09375000       2.33550000      -0.00000000       0.00000000      -0.03172600
In       3.78886000       2.18750000       5.48895000      -0.00000000       0.00000000      -0.03172600
P        1.89443000       1.09375000       0.00000000      -0.00000000      -0.00000000       0.03172600
P        3.78886000       2.18750000       3.15345000       0.00000000      -0.00000000       0.03172600
