4
Lattice="3.7254076 0.0 0.0 1.8627038 3.2262976 0.0 0.0 0.0 6.2437458" Properties=species:S:1:pos:R:3:forces:R:3 energy=-17.2153404 stress="-0.22785045996846442 0.0 -0.0 0.0 -0.22785045996846442 -0.0 -0.0 -0.0 -0.22780550237823066" pbc="T T T"
In       1.86270000       1.07543000       2.29945000       0.00000000      -0.00000000      -0.04367300
In       3.72541000       2.15087000       5.42132000      -0.00000000      -0.00000000      -0.04367300
P        1.86270000       1.07543000       0.00000000      -0.00000000      -0.00000000       0.04367300
P        3.72541000       2.15087000       3.12187000       0.00000000       0.00000000       0.04367300
