 +-------------------------------------------------+
 |                                                 |
 |      CCC   AA    SSS  TTTTT  EEEEE  PPPP        |
 |     C     A  A  S       T    E      P   P       |
 |     C     AAAA   SS     T    EEE    PPPP        |
 |     C     A  A     S    T    E      P           |
 |      CCC  A  A  SSS     T    EEEEE  P           |
 |                                                 |
 +-------------------------------------------------+
 |                                                 |
 | Welcome to Academic Release CASTEP version 22.11|
 | Ab Initio Total Energy Program                  |
 |                                                 |
 | Authors:                                        |
 | M. Segall, M. Probert, C. Pickard, P. Hasnip,   |
 | S. Clark, K. Refson, J. R. Yates, M. Payne      |
 |                                                 |
 | Contributors:                                   |
 | P. Lindan, P. Haynes, J. White, V. Milman,      |
 | N. Govind, M. Gibson, P. Tulip, V. Cocula,      |
 | B. Montanari, D. Quigley, M. Glover,            |
 | L. Bernasconi, A. Perlov, M. Plummer,           |
 | E. McNellis, J. Meyer, J. Gale, D. Jochym       |
 | J. Aarons, B. Walker, R. Gillen, D. Jones       |
 | T. Green, I. J. Bush, C. J. Armstrong,          |
 | E. J. Higgins, E. L. Brown, M. S. McFly,        |
 | J. Wilkins, B-C. Shih, P. J. P. Byrne,          |
 | R. J. Maurer, J. C. Womack, J. Dziedzic,        |
 | A. Bartok-Partay, L. LeBlanc, T. K. Stenczel,   |
 | J. Kermode, S. Sturniolo, B. Shi, B. Durham     |
 | M. Evans, M. J. Smith                           |
 |                                                 |
 | Copyright (c) 2000 - 2021                       |
 |                                                 |
 |     Distributed under license from Cambridge    |
 |     Enterprise for academic use only.           |
 |                                                 |
 | Please cite                                     |
 |                                                 |
 |     "First principles methods using CASTEP"     |
 |                                                 |
 |         Zeitschrift fuer Kristallographie       |
 |           220(5-6) pp. 567-570 (2005)           |
 |                                                 |
 | S. J. Clark, M. D. Segall, C. J. Pickard,       |
 | P. J. Hasnip, M. J. Probert, K. Refson,         |
 | M. C. Payne                                     |
 |                                                 |
 |       in all publications arising from          |
 |              your use of CASTEP                 |
 |                                                 |
 +-------------------------------------------------+
 |                                                 |
 |              http://www.castep.org              |
 |                                                 |
 +-------------------------------------------------+



 Compiled for linux_x86_64_gfortran10-XT on Thu, 16 Mar 2023 13:12:36 +0000
 from code version Version unavailable
 Compiler: GNU Fortran 11.2.0; Optimisation: fast
 MATHLIBS: LibSci (LAPACK version 3.10.1)
 FFT Lib : fftw3 version commercial-fftw-3.3.10-sse2-avx-avx2-avx2_128
 Fundamental constants values: CODATA 2014

 Run started: Mon, 25 Mar 2024 16:18:36 +0000

 Atomic calculation performed for P: 1s2 2s2 2p6 3s2 3p3

 Converged in 47 iterations to an ae energy of -9309.074 eV

   ============================================================                
   | Pseudopotential Report - Date of generation 25-03-2024   |                
   ------------------------------------------------------------                
   | Element: P Ionic charge:  5.00 Level of theory: RSCAN    |                
   | Atomic Solver: Koelling-Harmon                           |                
   |                                                          |                
   |               Reference Electronic Structure             |                
   |         Orbital         Occupation         Energy        |                
   |            3s              2.000           -0.535        |                
   |            3p              3.000           -0.209        |                
   |                                                          |                
   |                 Pseudopotential Definition               |                
   |        Beta     l      e      Rc     scheme   norm       |                
   |          1      0   -0.535   1.807     qc      0         |                
   |          2      0    0.250   1.807     qc      0         |                
   |          3      1   -0.209   1.807     qc      0         |                
   |          4      1    0.250   1.807     qc      0         |                
   |          5      2    0.000   1.807     qc      0         |                
   |          6      2    0.250   1.807     qc      0         |                
   |         loc     3    0.000   1.807     pn      0         |                
   |                                                          |                
   | Augmentation charge Rinner = 1.263                       |                
   | Partial core correction Rc = 1.263                       |                
   ------------------------------------------------------------                
   | "3|1.8|4|4|5|30:31:32"                                   |                
   ------------------------------------------------------------                
   |      Author: Chris J. Pickard, Cambridge University      |                
   ============================================================                
 Warning: otfg_output_psp cannot write out meta-GGA pseudopotentials presently.

 Atomic calculation performed for In:
 1s2 2s2 2p6 3s2 3p6 3d10 4s2 4p6 4d10 5s2 5p1

 Converged in 84 iterations to an ae energy of -160093.327 eV

   ============================================================                
   | Pseudopotential Report - Date of generation 25-03-2024   |                
   ------------------------------------------------------------                
   | Element: In Ionic charge: 13.00 Level of theory: RSCAN   |                
   | Atomic Solver: Koelling-Harmon                           |                
   |                                                          |                
   |               Reference Electronic Structure             |                
   |         Orbital         Occupation         Energy        |                
   |            4d             10.000           -0.711        |                
   |            5s              2.000           -0.313        |                
   |            5p              1.000           -0.095        |                
   |                                                          |                
   |                 Pseudopotential Definition               |                
   |        Beta     l      e      Rc     scheme   norm       |                
   |          1      0   -0.313   2.501     qc      0         |                
   |          2      0    0.250   2.501     qc      0         |                
   |          3      1   -0.095   2.501     qc      0         |                
   |          4      1    0.250   2.501     qc      0         |                
   |          5      2   -0.711   2.207     qc      0         |                
   |          6      2    0.250   2.207     qc      0         |                
   |         loc     3    0.000   2.501     pn      0         |                
   |                                                          |                
   | Augmentation charge Rinner = 1.504                       |                
   | Partial core correction Rc = 1.504                       |                
   ------------------------------------------------------------                
   | "3|2.5|2.5|1.5|7|8|9|50:51:42U2.2U2.2"                   |                
   ------------------------------------------------------------                
   |      Author: Chris J. Pickard, Cambridge University      |                
   ============================================================                
 Warning: otfg_output_psp cannot write out meta-GGA pseudopotentials presently.

 Pseudo atomic calculation performed for P 3s2 3p3

 Converged in 23 iterations to a total energy of -208.0292 eV

 Pseudo atomic calculation performed for In 4d10 5s2 5p1

 Converged in 42 iterations to a total energy of -1747.4500 eV
 Calculation parallelised over 208 processes.
 Data is distributed by G-vector(4-way) and k-point(52-way)
 Each process may use up to 2 threads.

 ************************************ Title ************************************
 

 ***************************** General Parameters ******************************
  
 output verbosity                               : normal  (1)
 write checkpoint data to                       : StackingFaultStructs_(0_0_1)_(1_1_0)_4.check
 type of calculation                            : geometry optimization
 stress calculation                             : off
 density difference calculation                 : off
 electron localisation func (ELF) calculation   : off
 Hirshfeld analysis                             : on
 polarisation (Berry phase) analysis            : off
 molecular orbital projected DOS                : off
 deltaSCF calculation                           : off
 unlimited duration calculation
 timing information                             : on
 memory usage estimate                          : on
 write extra output files                       : on
 write final potential to formatted file        : off
 write final density to formatted file          : off
 write BibTeX reference list                    : on
 write OTFG pseudopotential files               : on
 write electrostatic potential file             : on
 write bands file                               : on
 checkpoint writing                             : off
  
 output         length unit                     : A
 output           mass unit                     : amu
 output           time unit                     : ps
 output         charge unit                     : e
 output           spin unit                     : hbar/2
 output         energy unit                     : eV
 output          force unit                     : eV/A
 output       velocity unit                     : A/ps
 output       pressure unit                     : GPa
 output     inv_length unit                     : 1/A
 output      frequency unit                     : cm-1
 output force constant unit                     : eV/A**2
 output         volume unit                     : A**3
 output   IR intensity unit                     : (D/A)**2/amu
 output         dipole unit                     : D
 output         efield unit                     : eV/A/e
 output        entropy unit                     : J/mol/K
 output    efield chi2 unit                     : pm/V
  
 wavefunctions paging                           : none
 random number generator seed                   : randomised (161837146)
 data distribution                              : optimal for this architecture
 optimization strategy                          : balance speed and memory

 *********************** Exchange-Correlation Parameters ***********************
  
 using functional                               : RSCAN
 relativistic treatment                         : Koelling-Harmon
 DFT+D: Semi-empirical dispersion correction    : off

 ************************* Pseudopotential Parameters **************************
  
 pseudopotential representation                 : reciprocal space
 <beta|phi> representation                      : reciprocal space
 spin-orbit coupling                            : off

 **************************** Basis Set Parameters *****************************
  
 plane wave basis set cut-off                   :   900.0000   eV
 size of standard grid                          :     2.0000
 size of   fine   gmax                          :    30.7390   1/A
 finite basis set correction                    : none

 **************************** Electronic Parameters ****************************
  
 number of  electrons                           :  288.0    
 net charge of system                           :  0.000    
 treating system as non-spin-polarized
 number of bands                                :        173

 ********************* Electronic Minimization Parameters **********************
  
 Method: Treating system as metallic with density mixing treatment of electrons,
         and number of  SD  steps               :          1
         and number of  CG  steps               :          4
  
 total energy / atom convergence tol.           : 0.1000E-07   eV
 eigen-energy convergence tolerance             : 0.2222E-08   eV
 max force / atom convergence tol.              : ignored
 convergence tolerance window                   :          3   cycles
 max. number of SCF cycles                      :         50
 number of fixed-spin iterations                :         10
 smearing scheme                                : Gaussian
 smearing width                                 : 0.2000       eV
 Fermi energy convergence tolerance             : 0.2721E-13   eV
 periodic dipole correction                     : NONE

 ************************** Density Mixing Parameters **************************
  
 density-mixing scheme                          : Pulay
 max. length of mixing history                  :         15
 charge density mixing amplitude                : 0.5000    
 cut-off energy for mixing                      :  900.0       eV

 *********************** Population Analysis Parameters ************************
  
 Population analysis with cutoff                :  3.000       A
 Population analysis output                     : summary and pdos components

 ********************** Geometry Optimization Parameters ***********************
  
 optimization method                            : LBFGS
 max. no. of LBFGS updates                      : unbounded
 preconditioned LBFGS is activated
 preconditioner type                            : EXP
     stabilization constant                     :     0.1000
     parameter A                                :     3.0000
     nearest neighbor distance                  : automatic
     cut-off distance                           : automatic
     parameter mu                               : automatic
 variable cell method                           : fixed basis quality
 max. number of steps                           :         30
 estimated bulk modulus                         :  500.0       GPa
 estimated <frequency>                          :  1668.       cm-1
 geom line minimiser                            : on
 with line minimiser tolerance                  :     0.4000
 total energy convergence tolerance             : 0.2000E-04   eV/atom
        max ionic |force| tolerance             : 0.1000E-02   eV/A
 max ionic |displacement| tolerance             : 0.1000E-02   A
   max |stress component| tolerance             : 0.1000       GPa
 convergence tolerance window                   :          2   steps
 backup results every                           :          5   steps
 write geom trajectory file                     : on

 *******************************************************************************
  

                           -------------------------------
                                      Unit Cell
                           -------------------------------
        Real Lattice(A)                      Reciprocal Lattice(1/A)
     8.3456610     0.0000000     0.0000000        0.752868503   0.000000000   0.000000000
     0.0000000     8.3456610     0.0000000        0.000000000   0.752868503  -0.122851958
     0.0000000     1.9259220    11.8025470        0.000000000   0.000000000   0.532358423

                       Lattice parameters(A)       Cell Angles
                    a =      8.345661          alpha =   80.732242
                    b =      8.345661          beta  =   90.000000
                    c =     11.958649          gamma =   90.000000

                       Current cell volume =           822.048078       A**3
                                   density =             2.837630   AMU/A**3
                                           =             4.711995     g/cm^3

                           -------------------------------
                                     Cell Contents
                           -------------------------------
                         Total number of ions in cell =   32
                      Total number of species in cell =    2
                        Max number of any one species =   16

            xxxxxxxxxxxxxxxxxxxxxxxxxxxxxxxxxxxxxxxxxxxxxxxxxxxxxxxxxxxx
            x  Element    Atom        Fractional coordinates of atoms  x
            x            Number           u          v          w      x
            x----------------------------------------------------------x
            x  P            1         0.500000   0.662526   0.379053   x 
            x  P            2         0.250000  -0.033549   0.145381   x 
            x  P            3         0.500000   0.556670   0.837764   x 
            x  P            4         0.500000   0.162526   0.379053   x 
            x  P            5         0.750000   0.359016   0.610930   x 
            x  P            6         0.000000   0.162526   0.379053   x 
            x  P            7         0.250000   0.466451   0.145381   x 
            x  P            8         0.250000   0.359016   0.610930   x 
            x  P            9         0.750000   0.466451   0.145381   x 
            x  P           10         0.000000   0.056670   0.837764   x 
            x  P           11         0.000000   0.662526   0.379053   x 
            x  P           12         0.500000   0.056670   0.837764   x 
            x  P           13         0.250000  -0.140984   0.610930   x 
            x  P           14         0.750000  -0.140984   0.610930   x 
            x  P           15         0.000000   0.556670   0.837764   x 
            x  P           16         0.750000  -0.033549   0.145381   x 
            x  In           1         0.250000   0.689047   0.264129   x 
            x  In           2         0.500000   0.385254   0.497235   x 
            x  In           3         0.750000   0.081316   0.730963   x 
            x  In           4         0.000000   0.385254   0.497235   x 
            x  In           5         0.250000   0.081316   0.730963   x 
            x  In           6         0.000000  -0.114746   0.497235   x 
            x  In           7         0.500000  -0.114746   0.497235   x 
            x  In           8         0.750000   0.581316   0.730963   x 
            x  In           9         0.750000   0.689047   0.264129   x 
            x  In          10         0.500000   0.492028   0.034546   x 
            x  In          11         0.750000   0.189047   0.264129   x 
            x  In          12         0.250000   0.581316   0.730963   x 
            x  In          13         0.000000   0.492028   0.034546   x 
            x  In          14         0.250000   0.189047   0.264129   x 
            x  In          15         0.000000  -0.007972   0.034546   x 
            x  In          16         0.500000  -0.007972   0.034546   x 
            xxxxxxxxxxxxxxxxxxxxxxxxxxxxxxxxxxxxxxxxxxxxxxxxxxxxxxxxxxxx


                         No user defined ionic velocities

                           -------------------------------
                                   Details of Species
                           -------------------------------

                               Mass of species in AMU
                                    P   30.9737600
                                    In  114.8180000

                          Electric Quadrupole Moment (Barn)
                                    P    1.0000000 No Isotope Defined
                                    In    0.7700000 Isotope115

                          Files used for pseudopotentials:
                                    P 3|1.8|4|4|5|30:31:32
                                    In 3|2.5|2.5|1.5|7|8|9|50:51:42U2.2U2.2

                           -------------------------------
                              k-Points For BZ Sampling
                           -------------------------------
                       MP grid size for SCF calculation is  4  6  4
                            with an offset of   0.125  0.083  0.125
                       Number of kpoints used =            52

                           -------------------------------
                               Symmetry and Constraints
                           -------------------------------

                      Cell is a supercell containing 4 primitive cells
                      Maximum deviation from symmetry =  0.00000         ANG

                      Number of symmetry operations   =           1
                      Number of ionic constraints     =          64
                      Point group of crystal =     1: C1, 1, 1
                      Space group of crystal =     6: Pm, P -2y

             Set iprint > 1 for details on symmetry rotations/translations

                         Centre of mass is NOT constrained
             Set iprint > 1 for details of linear ionic constraints

                         Number of cell constraints= 6
                         Cell constraints are:  0 0 0 0 0 0

                         External pressure/stress (GPa)
                          0.00000   0.00000   0.00000
                                    0.00000   0.00000
                                              0.00000
 
+---------------- MEMORY AND SCRATCH DISK ESTIMATES PER PROCESS --------------+
|                                                     Memory          Disk    |
| Baseline code, static data and system overhead      488.0 MB         0.0 MB |
| BLAS internal memory storage                          0.0 MB         0.0 MB |
| Model and support data                             1650.6 MB         0.0 MB |
| Electronic energy minimisation requirements         214.1 MB         0.0 MB |
| Force calculation requirements                       35.7 MB         0.0 MB |
|                                               ----------------------------- |
| Approx. total storage required per process         2352.7 MB         0.0 MB |
|                                                                             |
| Requirements will fluctuate during execution and may exceed these estimates |
+-----------------------------------------------------------------------------+
Calculating approximate eigenstates for fixed initial Hamiltonian
Cut-off for approx. calculation is   89.988 eV
Improving approx. states at cut-off of  450.000 eV
Resetting cut-off to  900.000 eV
Calculating total energy with cut-off of  900.000 eV.
------------------------------------------------------------------------ <-- SCF
SCF loop      Energy           Fermi           Energy gain       Timer   <-- SCF
                               energy          per atom          (sec)   <-- SCF
------------------------------------------------------------------------ <-- SCF
Initial  -3.15024790E+004  0.00000000E+000                        61.60  <-- SCF
      1  -3.13985052E+004  2.85648799E+000  -3.24918021E+000     102.07  <-- SCF
      2  -3.13985944E+004  2.85597240E+000   2.78938927E-003     135.14  <-- SCF
      3  -3.14290419E+004  3.36634682E+000   9.51483906E-001     173.09  <-- SCF
      4  -3.14345890E+004  3.45117430E+000   1.73345179E-001     217.81  <-- SCF
      5  -3.14310065E+004  3.71965993E+000  -1.11950951E-001     254.93  <-- SCF
      6  -3.14320614E+004  3.80448108E+000   3.29655143E-002     292.69  <-- SCF
      7  -3.14316342E+004  3.85726469E+000  -1.33499086E-002     332.13  <-- SCF
      8  -3.14325095E+004  3.86802849E+000   2.73530001E-002     369.94  <-- SCF
      9  -3.14325284E+004  3.83877131E+000   5.88130801E-004     407.08  <-- SCF
     10  -3.14325677E+004  3.82166415E+000   1.22800267E-003     446.42  <-- SCF
     11  -3.14325883E+004  3.82551464E+000   6.44275031E-004     483.89  <-- SCF
     12  -3.14325936E+004  3.82326980E+000   1.66502742E-004     521.67  <-- SCF
     13  -3.14325944E+004  3.82641212E+000   2.51567060E-005     560.91  <-- SCF
     14  -3.14325945E+004  3.82612368E+000   2.90236808E-006     595.08  <-- SCF
     15  -3.14325945E+004  3.82569197E+000   7.93447443E-007     627.76  <-- SCF
     16  -3.14325945E+004  3.82569233E+000   2.43230513E-008     655.77  <-- SCF
     17  -3.14325945E+004  3.82572347E+000  -2.36059216E-009     682.87  <-- SCF
     18  -3.14325945E+004  3.82569270E+000   2.70803946E-009     709.86  <-- SCF
------------------------------------------------------------------------ <-- SCF
 
Final energy, E             =  -31432.56298316     eV
Final free energy (E-TS)    =  -31432.59452911     eV
(energies not corrected for finite basis set)
 
NB est. 0K energy (E-0.5TS)      =  -31432.57875614     eV
 
 
+---------------- MEMORY AND SCRATCH DISK ESTIMATES PER PROCESS --------------+
|                                                     Memory          Disk    |
| Model and support data                             1010.6 MB         0.0 MB |
| Electronic energy minimisation requirements         214.1 MB         0.0 MB |
| Geometry minimisation requirements                  251.9 MB         0.0 MB |
|                                               ----------------------------- |
| Approx. total storage required per process         1476.5 MB         0.0 MB |
|                                                                             |
| Requirements will fluctuate during execution and may exceed these estimates |
+-----------------------------------------------------------------------------+
 

 ******************************** Constrained Forces ********************************
 *                                                                                  *
 *                           Cartesian components (eV/A)                            *
 * -------------------------------------------------------------------------------- *
 *                         x                    y                    z              *
 *                                                                                  *
 * P               1      0.00000(cons'd)      0.00000(cons'd)     -0.17053         *
 * P               2      0.00000(cons'd)      0.00000(cons'd)      0.06813         *
 * P               3      0.00000(cons'd)      0.00000(cons'd)      0.17977         *
 * P               4     -0.00000(cons'd)      0.00000(cons'd)     -0.17053         *
 * P               5     -0.00000(cons'd)     -0.00000(cons'd)     -0.00226         *
 * P               6      0.00000(cons'd)     -0.00000(cons'd)     -0.17052         *
 * P               7      0.00000(cons'd)      0.00000(cons'd)      0.06814         *
 * P               8      0.00000(cons'd)      0.00000(cons'd)     -0.00226         *
 * P               9      0.00000(cons'd)     -0.00000(cons'd)      0.06814         *
 * P              10      0.00000(cons'd)      0.00000(cons'd)      0.17978         *
 * P              11      0.00000(cons'd)     -0.00000(cons'd)     -0.17052         *
 * P              12     -0.00000(cons'd)      0.00000(cons'd)      0.17977         *
 * P              13      0.00000(cons'd)      0.00000(cons'd)     -0.00226         *
 * P              14     -0.00000(cons'd)      0.00000(cons'd)     -0.00226         *
 * P              15      0.00000(cons'd)      0.00000(cons'd)      0.17978         *
 * P              16      0.00000(cons'd)     -0.00000(cons'd)      0.06814         *
 * In              1      0.00000(cons'd)      0.00000(cons'd)      0.22183         *
 * In              2      0.00000(cons'd)      0.00000(cons'd)      0.03657         *
 * In              3     -0.00000(cons'd)      0.00000(cons'd)      0.13725         *
 * In              4      0.00000(cons'd)      0.00000(cons'd)      0.03657         *
 * In              5      0.00000(cons'd)      0.00000(cons'd)      0.13725         *
 * In              6      0.00000(cons'd)      0.00000(cons'd)      0.03657         *
 * In              7      0.00000(cons'd)      0.00000(cons'd)      0.03657         *
 * In              8      0.00000(cons'd)      0.00000(cons'd)      0.13725         *
 * In              9      0.00000(cons'd)      0.00000(cons'd)      0.22183         *
 * In             10      0.00000(cons'd)      0.00000(cons'd)     -0.47078         *
 * In             11      0.00000(cons'd)      0.00000(cons'd)      0.22183         *
 * In             12      0.00000(cons'd)      0.00000(cons'd)      0.13726         *
 * In             13     -0.00000(cons'd)      0.00000(cons'd)     -0.47078         *
 * In             14     -0.00000(cons'd)      0.00000(cons'd)      0.22183         *
 * In             15      0.00000(cons'd)      0.00000(cons'd)     -0.47078         *
 * In             16      0.00000(cons'd)      0.00000(cons'd)     -0.47078         *
 *                                                                                  *
 ************************************************************************************
 EXP precond LBFGS => estimated nearest neighbor distance :  2.489       A
 EXP precond LBFGS => estimated cutoff distance :  4.977       A

 ************************************** Forces **************************************
 *                                                                                  *
 *                           Cartesian components (eV/A)                            *
 * -------------------------------------------------------------------------------- *
 *                         x                    y                    z              *
 *                                                                                  *
 * P               1     -0.00001(cons'd)     -0.00362(cons'd)     -0.17053         *
 * P               2      0.00001(cons'd)     -0.05290(cons'd)      0.06813         *
 * P               3     -0.00001(cons'd)      0.12706(cons'd)      0.17977         *
 * P               4     -0.00001(cons'd)     -0.00361(cons'd)     -0.17053         *
 * P               5     -0.00000(cons'd)     -0.02244(cons'd)     -0.00226         *
 * P               6      0.00000(cons'd)     -0.00361(cons'd)     -0.17052         *
 * P               7      0.00001(cons'd)     -0.05291(cons'd)      0.06814         *
 * P               8      0.00001(cons'd)     -0.02244(cons'd)     -0.00226         *
 * P               9     -0.00000(cons'd)     -0.05291(cons'd)      0.06814         *
 * P              10      0.00000(cons'd)      0.12706(cons'd)      0.17978         *
 * P              11      0.00000(cons'd)     -0.00362(cons'd)     -0.17052         *
 * P              12     -0.00001(cons'd)      0.12706(cons'd)      0.17977         *
 * P              13      0.00001(cons'd)     -0.02243(cons'd)     -0.00226         *
 * P              14     -0.00000(cons'd)     -0.02243(cons'd)     -0.00226         *
 * P              15      0.00000(cons'd)      0.12706(cons'd)      0.17978         *
 * P              16     -0.00000(cons'd)     -0.05290(cons'd)      0.06814         *
 * In              1      0.00001(cons'd)      0.01232(cons'd)      0.22183         *
 * In              2     -0.00001(cons'd)     -0.00158(cons'd)      0.03657         *
 * In              3      0.00000(cons'd)     -0.01503(cons'd)      0.13725         *
 * In              4      0.00000(cons'd)     -0.00158(cons'd)      0.03657         *
 * In              5      0.00001(cons'd)     -0.01503(cons'd)      0.13725         *
 * In              6      0.00000(cons'd)     -0.00158(cons'd)      0.03657         *
 * In              7     -0.00001(cons'd)     -0.00158(cons'd)      0.03657         *
 * In              8      0.00000(cons'd)     -0.01504(cons'd)      0.13725         *
 * In              9     -0.00000(cons'd)      0.01232(cons'd)      0.22183         *
 * In             10     -0.00001(cons'd)     -0.04381(cons'd)     -0.47078         *
 * In             11     -0.00000(cons'd)      0.01233(cons'd)      0.22183         *
 * In             12      0.00001(cons'd)     -0.01504(cons'd)      0.13726         *
 * In             13      0.00000(cons'd)     -0.04381(cons'd)     -0.47078         *
 * In             14      0.00001(cons'd)      0.01233(cons'd)      0.22183         *
 * In             15      0.00000(cons'd)     -0.04381(cons'd)     -0.47078         *
 * In             16     -0.00001(cons'd)     -0.04381(cons'd)     -0.47078         *
 *                                                                                  *
 ************************************************************************************
 doing test perturbation to get energy scale for EXP preconditioner

                           -------------------------------
                                     Cell Contents
                           -------------------------------

            xxxxxxxxxxxxxxxxxxxxxxxxxxxxxxxxxxxxxxxxxxxxxxxxxxxxxxxxxxxxxxxxx
            x  Element         Atom        Fractional coordinates of atoms  x
            x                 Number           u          v          w      x
            x---------------------------------------------------------------x
            x  P                 1         0.501844   0.664814   0.380011   x
            x  P                 2         0.250976   0.969261   0.145760   x
            x  P                 3         0.501844   0.558759   0.839586   x
            x  P                 4         0.501844   0.163281   0.380011   x
            x  P                 5         0.752509   0.360525   0.612384   x
            x  P                 6         0.000000   0.163281   0.380011   x
            x  P                 7         0.250976   0.468207   0.145760   x
            x  P                 8         0.250976   0.360525   0.612384   x
            x  P                 9         0.752509   0.468207   0.145760   x
            x  P                10         0.000000   0.057225   0.839586   x
            x  P                11         0.000000   0.664814   0.380011   x
            x  P                12         0.501844   0.057225   0.839586   x
            x  P                13         0.250976   0.861579   0.612384   x
            x  P                14         0.752509   0.861579   0.612384   x
            x  P                15         0.000000   0.558759   0.839586   x
            x  P                16         0.752509   0.969261   0.145760   x
            x  In                1         0.250976   0.691399   0.264810   x
            x  In                2         0.501844   0.386815   0.498458   x
            x  In                3         0.752509   0.081908   0.732627   x
            x  In                4         0.000000   0.386815   0.498458   x
            x  In                5         0.250976   0.081908   0.732627   x
            x  In                6         0.000000   0.887869   0.498458   x
            x  In                7         0.501844   0.887869   0.498458   x
            x  In                8         0.752509   0.583441   0.732627   x
            x  In                9         0.752509   0.691399   0.264810   x
            x  In               10         0.501844   0.493851   0.034636   x
            x  In               11         0.752509   0.189866   0.264810   x
            x  In               12         0.250976   0.583441   0.732627   x
            x  In               13         0.000000   0.493851   0.034636   x
            x  In               14         0.250976   0.189866   0.264810   x
            x  In               15         0.000000   0.994905   0.034636   x
            x  In               16         0.501844   0.994905   0.034636   x
            xxxxxxxxxxxxxxxxxxxxxxxxxxxxxxxxxxxxxxxxxxxxxxxxxxxxxxxxxxxxxxxxx


------------------------------------------------------------------------ <-- SCF
SCF loop      Energy           Fermi           Energy gain       Timer   <-- SCF
                               energy          per atom          (sec)   <-- SCF
------------------------------------------------------------------------ <-- SCF
Initial  -3.14309109E+004  0.00000000E+000                       753.83  <-- SCF
      1  -3.14323834E+004  3.81646083E+000   4.60174284E-002     790.62  <-- SCF
      2  -3.14325834E+004  3.81634052E+000   6.24955189E-003     836.43  <-- SCF
      3  -3.14325845E+004  3.81658962E+000   3.43846010E-005     875.03  <-- SCF
      4  -3.14325859E+004  3.81788873E+000   4.25514048E-005     914.88  <-- SCF
      5  -3.14325861E+004  3.81822357E+000   6.74668686E-006     958.34  <-- SCF
      6  -3.14325861E+004  3.81837499E+000   1.69321183E-006     997.19  <-- SCF
      7  -3.14325861E+004  3.81839705E+000   1.12694929E-007    1030.30  <-- SCF
      8  -3.14325861E+004  3.81842773E+000   1.99663290E-008    1058.30  <-- SCF
      9  -3.14325861E+004  3.81843733E+000   1.56999004E-009    1085.49  <-- SCF
     10  -3.14325861E+004  3.81843696E+000   3.51314273E-010    1112.68  <-- SCF
     11  -3.14325861E+004  3.81843502E+000   1.40564379E-010    1139.89  <-- SCF
------------------------------------------------------------------------ <-- SCF
 
Final energy, E             =  -31432.56100422     eV
Final free energy (E-TS)    =  -31432.58613309     eV
(energies not corrected for finite basis set)
 
NB est. 0K energy (E-0.5TS)      =  -31432.57356865     eV
 

 ************************************** Forces **************************************
 *                                                                                  *
 *                           Cartesian components (eV/A)                            *
 * -------------------------------------------------------------------------------- *
 *                         x                    y                    z              *
 *                                                                                  *
 * P               1     -0.02549(cons'd)     -0.02568(cons'd)     -0.18191         *
 * P               2      0.00753(cons'd)     -0.15212(cons'd)     -0.00953         *
 * P               3     -0.02959(cons'd)      0.14384(cons'd)     -0.17081         *
 * P               4     -0.02530(cons'd)      0.12803(cons'd)     -0.23715         *
 * P               5     -0.16607(cons'd)     -0.01454(cons'd)      0.08618         *
 * P               6      0.18022(cons'd)      0.12807(cons'd)     -0.15201         *
 * P               7      0.00768(cons'd)     -0.05925(cons'd)      0.08086         *
 * P               8      0.00843(cons'd)     -0.01400(cons'd)     -0.01780         *
 * P               9     -0.16777(cons'd)     -0.06079(cons'd)      0.18706         *
 * P              10      0.22156(cons'd)      0.13863(cons'd)     -0.06537         *
 * P              11      0.18005(cons'd)     -0.02562(cons'd)     -0.09672         *
 * P              12     -0.02995(cons'd)      0.13841(cons'd)     -0.17647         *
 * P              13      0.00850(cons'd)     -0.11636(cons'd)     -0.08460         *
 * P              14     -0.16616(cons'd)     -0.11681(cons'd)      0.01941         *
 * P              15      0.22148(cons'd)      0.14334(cons'd)     -0.06008         *
 * P              16     -0.16813(cons'd)     -0.15341(cons'd)      0.09667         *
 * In              1      0.00189(cons'd)     -0.00809(cons'd)      0.23765         *
 * In              2     -0.01684(cons'd)     -0.00520(cons'd)      0.03727         *
 * In              3     -0.17366(cons'd)      0.09162(cons'd)      0.09154         *
 * In              4      0.16010(cons'd)     -0.00519(cons'd)     -0.04076         *
 * In              5     -0.00267(cons'd)      0.09210(cons'd)      0.18823         *
 * In              6      0.15994(cons'd)     -0.08929(cons'd)      0.02185         *
 * In              7     -0.01680(cons'd)     -0.08945(cons'd)      0.09995         *
 * In              8     -0.17372(cons'd)     -0.03465(cons'd)      0.04305         *
 * In              9     -0.14086(cons'd)     -0.00776(cons'd)      0.15349         *
 * In             10     -0.01878(cons'd)     -0.06669(cons'd)     -0.12838         *
 * In             11     -0.14080(cons'd)      0.12053(cons'd)      0.20024         *
 * In             12     -0.00265(cons'd)     -0.03440(cons'd)      0.13970         *
 * In             13      0.16237(cons'd)     -0.06585(cons'd)     -0.21725         *
 * In             14      0.00186(cons'd)      0.12056(cons'd)      0.28446         *
 * In             15      0.16234(cons'd)     -0.04973(cons'd)     -0.20886         *
 * In             16     -0.01871(cons'd)     -0.05027(cons'd)     -0.11990         *
 *                                                                                  *
 ************************************************************************************
 EXP precond LBFGS => estimated parameter mu :  3.256       eV/A**2
 LBFGS: finished iteration     0 with enthalpy= -3.14325945E+004 eV
  
 +-----------+-----------------+-----------------+------------+-----+ <-- LBFGS
 | Parameter |      value      |    tolerance    |    units   | OK? | <-- LBFGS
 +-----------+-----------------+-----------------+------------+-----+ <-- LBFGS
 |  dE/ion   |   0.000000E+000 |   2.000000E-005 |         eV | No  | <-- LBFGS
 |  |F|max   |   3.089569E-001 |   1.000000E-003 |       eV/A | No  | <-- LBFGS
 |  |dR|max  |   2.071839E-015 |   1.000000E-003 |          A | No  | <-- LBFGS
 +-----------+-----------------+-----------------+------------+-----+ <-- LBFGS
  

================================================================================
 Starting LBFGS iteration          1 ...
================================================================================
  
 +------------+-------------+-------------+-----------------+ <-- min LBFGS
 |    Step    |   lambda    |   F.delta'  |    enthalpy     | <-- min LBFGS
 +------------+-------------+-------------+-----------------+ <-- min LBFGS
 |  previous  |    0.000000 |    0.452076 |   -31432.594529 | <-- min LBFGS
 +------------+-------------+-------------+-----------------+ <-- min LBFGS
  

--------------------------------------------------------------------------------
 LBFGS: starting iteration         1 with trial guess (lambda=  1.000000)
--------------------------------------------------------------------------------

                           -------------------------------
                                     Cell Contents
                           -------------------------------

            xxxxxxxxxxxxxxxxxxxxxxxxxxxxxxxxxxxxxxxxxxxxxxxxxxxxxxxxxxxxxxxxx
            x  Element         Atom        Fractional coordinates of atoms  x
            x                 Number           u          v          w      x
            x---------------------------------------------------------------x
            x  P                 1         0.500000   0.662640   0.378559   x
            x  P                 2         0.250000  -0.033435   0.144886   x
            x  P                 3         0.500000   0.556465   0.838652   x
            x  P                 4         0.500000   0.162640   0.378559   x
            x  P                 5         0.750000   0.358877   0.611533   x
            x  P                 6         0.000000   0.162640   0.378559   x
            x  P                 7         0.250000   0.466565   0.144886   x
            x  P                 8         0.250000   0.358877   0.611533   x
            x  P                 9         0.750000   0.466565   0.144886   x
            x  P                10         0.000000   0.056465   0.838652   x
            x  P                11         0.000000   0.662640   0.378559   x
            x  P                12         0.500000   0.056465   0.838652   x
            x  P                13         0.250000  -0.141123   0.611533   x
            x  P                14         0.750000  -0.141123   0.611533   x
            x  P                15         0.000000   0.556465   0.838652   x
            x  P                16         0.750000  -0.033435   0.144886   x
            x  In                1         0.250000   0.688947   0.264562   x
            x  In                2         0.500000   0.385164   0.497623   x
            x  In                3         0.750000   0.081052   0.732108   x
            x  In                4         0.000000   0.385164   0.497623   x
            x  In                5         0.250000   0.081052   0.732108   x
            x  In                6         0.000000  -0.114836   0.497623   x
            x  In                7         0.500000  -0.114836   0.497623   x
            x  In                8         0.750000   0.581052   0.732108   x
            x  In                9         0.750000   0.688947   0.264562   x
            x  In               10         0.500000   0.492598   0.032077   x
            x  In               11         0.750000   0.188947   0.264562   x
            x  In               12         0.250000   0.581052   0.732108   x
            x  In               13        -0.000000   0.492598   0.032077   x
            x  In               14         0.250000   0.188947   0.264562   x
            x  In               15         0.000000  -0.007402   0.032077   x
            x  In               16         0.500000  -0.007402   0.032077   x
            xxxxxxxxxxxxxxxxxxxxxxxxxxxxxxxxxxxxxxxxxxxxxxxxxxxxxxxxxxxxxxxxx


------------------------------------------------------------------------ <-- SCF
SCF loop      Energy           Fermi           Energy gain       Timer   <-- SCF
                               energy          per atom          (sec)   <-- SCF
------------------------------------------------------------------------ <-- SCF
Initial  -3.14305483E+004  0.00000000E+000                      1166.80  <-- SCF
      1  -3.14323833E+004  3.81503725E+000   5.73418428E-002    1203.57  <-- SCF
      2  -3.14326113E+004  3.81492195E+000   7.12666893E-003    1249.38  <-- SCF
      3  -3.14326137E+004  3.81650970E+000   7.30633715E-005    1288.22  <-- SCF
      4  -3.14326151E+004  3.81716933E+000   4.54854130E-005    1327.96  <-- SCF
      5  -3.14326153E+004  3.81695544E+000   5.06941701E-006    1372.30  <-- SCF
      6  -3.14326153E+004  3.81664436E+000   1.44360255E-006    1411.39  <-- SCF
      7  -3.14326153E+004  3.81655666E+000   1.21448010E-008    1446.45  <-- SCF
      8  -3.14326153E+004  3.81642471E+000  -8.52995695E-009    1478.82  <-- SCF
      9  -3.14326153E+004  3.81637078E+000   3.57694774E-010    1506.50  <-- SCF
------------------------------------------------------------------------ <-- SCF
 
Final energy, E             =  -31432.59825665     eV
Final free energy (E-TS)    =  -31432.61533301     eV
(energies not corrected for finite basis set)
 
NB est. 0K energy (E-0.5TS)      =  -31432.60679483     eV
 

 ******************************** Constrained Forces ********************************
 *                                                                                  *
 *                           Cartesian components (eV/A)                            *
 * -------------------------------------------------------------------------------- *
 *                         x                    y                    z              *
 *                                                                                  *
 * P               1      0.00000(cons'd)      0.00000(cons'd)     -0.03933         *
 * P               2      0.00000(cons'd)      0.00000(cons'd)      0.01771         *
 * P               3      0.00000(cons'd)      0.00000(cons'd)     -0.36380         *
 * P               4      0.00000(cons'd)     -0.00000(cons'd)     -0.03934         *
 * P               5      0.00000(cons'd)     -0.00000(cons'd)      0.01702         *
 * P               6      0.00000(cons'd)     -0.00000(cons'd)     -0.03932         *
 * P               7      0.00000(cons'd)      0.00000(cons'd)      0.01777         *
 * P               8      0.00000(cons'd)      0.00000(cons'd)      0.01699         *
 * P               9      0.00000(cons'd)     -0.00000(cons'd)      0.01782         *
 * P              10      0.00000(cons'd)      0.00000(cons'd)     -0.36378         *
 * P              11      0.00000(cons'd)      0.00000(cons'd)     -0.03931         *
 * P              12      0.00000(cons'd)      0.00000(cons'd)     -0.36379         *
 * P              13      0.00000(cons'd)      0.00000(cons'd)      0.01696         *
 * P              14      0.00000(cons'd)     -0.00000(cons'd)      0.01699         *
 * P              15      0.00000(cons'd)      0.00000(cons'd)     -0.36379         *
 * P              16      0.00000(cons'd)      0.00000(cons'd)      0.01776         *
 * In              1      0.00000(cons'd)      0.00000(cons'd)      0.07440         *
 * In              2      0.00000(cons'd)      0.00000(cons'd)     -0.00189         *
 * In              3      0.00000(cons'd)      0.00000(cons'd)      0.05159         *
 * In              4     -0.00000(cons'd)      0.00000(cons'd)     -0.00193         *
 * In              5      0.00000(cons'd)      0.00000(cons'd)      0.05164         *
 * In              6      0.00000(cons'd)      0.00000(cons'd)     -0.00192         *
 * In              7      0.00000(cons'd)      0.00000(cons'd)     -0.00186         *
 * In              8      0.00000(cons'd)      0.00000(cons'd)      0.05154         *
 * In              9      0.00000(cons'd)      0.00000(cons'd)      0.07432         *
 * In             10      0.00000(cons'd)      0.00000(cons'd)      0.24433         *
 * In             11      0.00000(cons'd)      0.00000(cons'd)      0.07433         *
 * In             12      0.00000(cons'd)      0.00000(cons'd)      0.05158         *
 * In             13      0.00000(cons'd)      0.00000(cons'd)      0.24425         *
 * In             14      0.00000(cons'd)      0.00000(cons'd)      0.07442         *
 * In             15      0.00000(cons'd)      0.00000(cons'd)      0.24429         *
 * In             16      0.00000(cons'd)      0.00000(cons'd)      0.24436         *
 *                                                                                  *
 ************************************************************************************
  
 +------------+-------------+-------------+-----------------+ <-- min LBFGS
 |    Step    |   lambda    |   F.delta'  |    enthalpy     | <-- min LBFGS
 +------------+-------------+-------------+-----------------+ <-- min LBFGS
 |  previous  |    0.000000 |    0.452076 |   -31432.594529 | <-- min LBFGS
 | trial step |    1.000000 |   -0.224812 |   -31432.615333 | <-- min LBFGS
 +------------+-------------+-------------+-----------------+ <-- min LBFGS
  
 LBFGS: finished iteration     1 with enthalpy= -3.14326153E+004 eV
  
 +-----------+-----------------+-----------------+------------+-----+ <-- LBFGS
 | Parameter |      value      |    tolerance    |    units   | OK? | <-- LBFGS
 +-----------+-----------------+-----------------+------------+-----+ <-- LBFGS
 |  dE/ion   |   6.501217E-004 |   2.000000E-005 |         eV | No  | <-- LBFGS
 |  |F|max   |   3.637981E-001 |   1.000000E-003 |       eV/A | No  | <-- LBFGS
 |  |dR|max  |   2.914107E-002 |   1.000000E-003 |          A | No  | <-- LBFGS
 +-----------+-----------------+-----------------+------------+-----+ <-- LBFGS
  

================================================================================
 Starting LBFGS iteration          2 ...
================================================================================
  
 +------------+-------------+-------------+-----------------+ <-- min LBFGS
 |    Step    |   lambda    |   F.delta'  |    enthalpy     | <-- min LBFGS
 +------------+-------------+-------------+-----------------+ <-- min LBFGS
 |  previous  |    0.000000 |    0.321900 |   -31432.615333 | <-- min LBFGS
 +------------+-------------+-------------+-----------------+ <-- min LBFGS
  

--------------------------------------------------------------------------------
 LBFGS: starting iteration         2 with trial guess (lambda=  1.000000)
--------------------------------------------------------------------------------

                           -------------------------------
                                     Cell Contents
                           -------------------------------

            xxxxxxxxxxxxxxxxxxxxxxxxxxxxxxxxxxxxxxxxxxxxxxxxxxxxxxxxxxxxxxxxx
            x  Element         Atom        Fractional coordinates of atoms  x
            x                 Number           u          v          w      x
            x---------------------------------------------------------------x
            x  P                 1         0.500000   0.662636   0.378576   x
            x  P                 2         0.250000  -0.033540   0.145340   x
            x  P                 3         0.500000   0.556725   0.837524   x
            x  P                 4         0.500000   0.162636   0.378576   x
            x  P                 5         0.750000   0.358910   0.611392   x
            x  P                 6         0.000000   0.162636   0.378576   x
            x  P                 7         0.250000   0.466460   0.145340   x
            x  P                 8         0.250000   0.358910   0.611392   x
            x  P                 9         0.750000   0.466460   0.145341   x
            x  P                10         0.000000   0.056725   0.837524   x
            x  P                11         0.000000   0.662636   0.378576   x
            x  P                12         0.500000   0.056725   0.837524   x
            x  P                13         0.250000  -0.141090   0.611392   x
            x  P                14         0.750000  -0.141090   0.611392   x
            x  P                15         0.000000   0.556725   0.837524   x
            x  P                16         0.750000  -0.033540   0.145340   x
            x  In                1         0.250000   0.688807   0.265170   x
            x  In                2         0.500000   0.385165   0.497619   x
            x  In                3         0.750000   0.081103   0.731888   x
            x  In                4        -0.000000   0.385165   0.497619   x
            x  In                5         0.250000   0.081103   0.731888   x
            x  In                6         0.000000  -0.114835   0.497619   x
            x  In                7         0.500000  -0.114835   0.497619   x
            x  In                8         0.750000   0.581103   0.731888   x
            x  In                9         0.750000   0.688807   0.265170   x
            x  In               10         0.500000   0.492502   0.032490   x
            x  In               11         0.750000   0.188807   0.265170   x
            x  In               12         0.250000   0.581103   0.731888   x
            x  In               13        -0.000000   0.492502   0.032490   x
            x  In               14         0.250000   0.188807   0.265170   x
            x  In               15         0.000000  -0.007498   0.032490   x
            x  In               16         0.500000  -0.007498   0.032490   x
            xxxxxxxxxxxxxxxxxxxxxxxxxxxxxxxxxxxxxxxxxxxxxxxxxxxxxxxxxxxxxxxxx


------------------------------------------------------------------------ <-- SCF
SCF loop      Energy           Fermi           Energy gain       Timer   <-- SCF
                               energy          per atom          (sec)   <-- SCF
------------------------------------------------------------------------ <-- SCF
Initial  -3.14324326E+004  0.00000000E+000                      1538.12  <-- SCF
      1  -3.14326232E+004  3.82320408E+000   5.95734742E-003    1574.98  <-- SCF
      2  -3.14326296E+004  3.82319459E+000   1.99753525E-004    1620.10  <-- SCF
      3  -3.14326291E+004  3.82318757E+000  -1.62846923E-005    1658.80  <-- SCF
      4  -3.14326290E+004  3.82243860E+000  -2.46035285E-006    1698.73  <-- SCF
      5  -3.14326290E+004  3.82213698E+000   1.93926639E-007    1735.52  <-- SCF
      6  -3.14326290E+004  3.82200521E+000  -2.27054975E-008    1768.29  <-- SCF
      7  -3.14326290E+004  3.82196153E+000  -7.68695738E-009    1798.83  <-- SCF
      8  -3.14326290E+004  3.82193819E+000  -1.12915540E-010    1826.00  <-- SCF
------------------------------------------------------------------------ <-- SCF
 
Final energy, E             =  -31432.60868457     eV
Final free energy (E-TS)    =  -31432.62903448     eV
(energies not corrected for finite basis set)
 
NB est. 0K energy (E-0.5TS)      =  -31432.61885953     eV
 

 ******************************** Constrained Forces ********************************
 *                                                                                  *
 *                           Cartesian components (eV/A)                            *
 * -------------------------------------------------------------------------------- *
 *                         x                    y                    z              *
 *                                                                                  *
 * P               1      0.00000(cons'd)      0.00000(cons'd)     -0.01094         *
 * P               2     -0.00000(cons'd)      0.00000(cons'd)     -0.00111         *
 * P               3      0.00000(cons'd)      0.00000(cons'd)     -0.02257         *
 * P               4      0.00000(cons'd)     -0.00000(cons'd)     -0.01094         *
 * P               5      0.00000(cons'd)     -0.00000(cons'd)      0.00223         *
 * P               6     -0.00000(cons'd)      0.00000(cons'd)     -0.01095         *
 * P               7      0.00000(cons'd)     -0.00000(cons'd)     -0.00114         *
 * P               8      0.00000(cons'd)     -0.00000(cons'd)      0.00224         *
 * P               9      0.00000(cons'd)      0.00000(cons'd)     -0.00116         *
 * P              10      0.00000(cons'd)      0.00000(cons'd)     -0.02260         *
 * P              11      0.00000(cons'd)     -0.00000(cons'd)     -0.01095         *
 * P              12      0.00000(cons'd)      0.00000(cons'd)     -0.02257         *
 * P              13      0.00000(cons'd)     -0.00000(cons'd)      0.00226         *
 * P              14      0.00000(cons'd)     -0.00000(cons'd)      0.00225         *
 * P              15      0.00000(cons'd)      0.00000(cons'd)     -0.02260         *
 * P              16      0.00000(cons'd)      0.00000(cons'd)     -0.00113         *
 * In              1      0.00000(cons'd)      0.00000(cons'd)      0.02706         *
 * In              2      0.00000(cons'd)      0.00000(cons'd)      0.00521         *
 * In              3      0.00000(cons'd)      0.00000(cons'd)      0.01152         *
 * In              4      0.00000(cons'd)      0.00000(cons'd)      0.00523         *
 * In              5     -0.00000(cons'd)      0.00000(cons'd)      0.01150         *
 * In              6      0.00000(cons'd)      0.00000(cons'd)      0.00522         *
 * In              7      0.00000(cons'd)      0.00000(cons'd)      0.00520         *
 * In              8      0.00000(cons'd)      0.00000(cons'd)      0.01153         *
 * In              9      0.00000(cons'd)      0.00000(cons'd)      0.02709         *
 * In             10      0.00000(cons'd)      0.00000(cons'd)     -0.01140         *
 * In             11      0.00000(cons'd)      0.00000(cons'd)      0.02708         *
 * In             12     -0.00000(cons'd)      0.00000(cons'd)      0.01152         *
 * In             13      0.00000(cons'd)      0.00000(cons'd)     -0.01135         *
 * In             14      0.00000(cons'd)      0.00000(cons'd)      0.02705         *
 * In             15      0.00000(cons'd)      0.00000(cons'd)     -0.01136         *
 * In             16      0.00000(cons'd)      0.00000(cons'd)     -0.01141         *
 *                                                                                  *
 ************************************************************************************
  
 +------------+-------------+-------------+-----------------+ <-- min LBFGS
 |    Step    |   lambda    |   F.delta'  |    enthalpy     | <-- min LBFGS
 +------------+-------------+-------------+-----------------+ <-- min LBFGS
 |  previous  |    0.000000 |    0.321900 |   -31432.615333 | <-- min LBFGS
 | trial step |    1.000000 |    0.019685 |   -31432.629034 | <-- min LBFGS
 +------------+-------------+-------------+-----------------+ <-- min LBFGS
  
 LBFGS: finished iteration     2 with enthalpy= -3.14326290E+004 eV
  
 +-----------+-----------------+-----------------+------------+-----+ <-- LBFGS
 | Parameter |      value      |    tolerance    |    units   | OK? | <-- LBFGS
 +-----------+-----------------+-----------------+------------+-----+ <-- LBFGS
 |  dE/ion   |   4.281709E-004 |   2.000000E-005 |         eV | No  | <-- LBFGS
 |  |F|max   |   2.708748E-002 |   1.000000E-003 |       eV/A | No  | <-- LBFGS
 |  |dR|max  |   1.331377E-002 |   1.000000E-003 |          A | No  | <-- LBFGS
 +-----------+-----------------+-----------------+------------+-----+ <-- LBFGS
  

================================================================================
 Starting LBFGS iteration          3 ...
================================================================================
  
 +------------+-------------+-------------+-----------------+ <-- min LBFGS
 |    Step    |   lambda    |   F.delta'  |    enthalpy     | <-- min LBFGS
 +------------+-------------+-------------+-----------------+ <-- min LBFGS
 |  previous  |    0.000000 |    0.031518 |   -31432.629034 | <-- min LBFGS
 +------------+-------------+-------------+-----------------+ <-- min LBFGS
  

--------------------------------------------------------------------------------
 LBFGS: starting iteration         3 with trial guess (lambda=  1.000000)
--------------------------------------------------------------------------------

                           -------------------------------
                                     Cell Contents
                           -------------------------------

            xxxxxxxxxxxxxxxxxxxxxxxxxxxxxxxxxxxxxxxxxxxxxxxxxxxxxxxxxxxxxxxxx
            x  Element         Atom        Fractional coordinates of atoms  x
            x                 Number           u          v          w      x
            x---------------------------------------------------------------x
            x  P                 1         0.500000   0.662635   0.378580   x
            x  P                 2         0.250000  -0.033543   0.145354   x
            x  P                 3         0.500000   0.556765   0.837353   x
            x  P                 4         0.500000   0.162635   0.378580   x
            x  P                 5         0.750000   0.358903   0.611422   x
            x  P                 6         0.000000   0.162635   0.378580   x
            x  P                 7         0.250000   0.466457   0.145354   x
            x  P                 8         0.250000   0.358903   0.611422   x
            x  P                 9         0.750000   0.466457   0.145354   x
            x  P                10         0.000000   0.056765   0.837353   x
            x  P                11         0.000000   0.662635   0.378580   x
            x  P                12         0.500000   0.056765   0.837353   x
            x  P                13         0.250000  -0.141097   0.611422   x
            x  P                14         0.750000  -0.141097   0.611422   x
            x  P                15         0.000000   0.556765   0.837353   x
            x  P                16         0.750000  -0.033543   0.145354   x
            x  In                1         0.250000   0.688767   0.265343   x
            x  In                2         0.500000   0.385151   0.497678   x
            x  In                3         0.750000   0.081096   0.731915   x
            x  In                4        -0.000000   0.385151   0.497678   x
            x  In                5         0.250000   0.081096   0.731915   x
            x  In                6         0.000000  -0.114849   0.497678   x
            x  In                7         0.500000  -0.114849   0.497678   x
            x  In                8         0.750000   0.581096   0.731915   x
            x  In                9         0.750000   0.688767   0.265343   x
            x  In               10         0.500000   0.492533   0.032356   x
            x  In               11         0.750000   0.188767   0.265343   x
            x  In               12         0.250000   0.581096   0.731915   x
            x  In               13        -0.000000   0.492533   0.032356   x
            x  In               14         0.250000   0.188767   0.265343   x
            x  In               15         0.000000  -0.007467   0.032356   x
            x  In               16         0.500000  -0.007467   0.032356   x
            xxxxxxxxxxxxxxxxxxxxxxxxxxxxxxxxxxxxxxxxxxxxxxxxxxxxxxxxxxxxxxxxx


------------------------------------------------------------------------ <-- SCF
SCF loop      Energy           Fermi           Energy gain       Timer   <-- SCF
                               energy          per atom          (sec)   <-- SCF
------------------------------------------------------------------------ <-- SCF
Initial  -3.14325911E+004  0.00000000E+000                      1853.42  <-- SCF
      1  -3.14326288E+004  3.82225997E+000   1.17753796E-003    1890.40  <-- SCF
      2  -3.14326293E+004  3.82225972E+000   1.58450090E-005    1935.80  <-- SCF
      3  -3.14326293E+004  3.82241147E+000  -8.19173237E-008    1974.05  <-- SCF
      4  -3.14326293E+004  3.82243147E+000   2.02072412E-008    2010.05  <-- SCF
      5  -3.14326293E+004  3.82240563E+000   8.58776816E-009    2037.98  <-- SCF
      6  -3.14326293E+004  3.82238974E+000   1.09183913E-009    2065.05  <-- SCF
------------------------------------------------------------------------ <-- SCF
 
Final energy, E             =  -31432.60931286     eV
Final free energy (E-TS)    =  -31432.62932360     eV
(energies not corrected for finite basis set)
 
NB est. 0K energy (E-0.5TS)      =  -31432.61931823     eV
 

 ******************************** Constrained Forces ********************************
 *                                                                                  *
 *                           Cartesian components (eV/A)                            *
 * -------------------------------------------------------------------------------- *
 *                         x                    y                    z              *
 *                                                                                  *
 * P               1      0.00000(cons'd)      0.00000(cons'd)      0.00206         *
 * P               2      0.00000(cons'd)      0.00000(cons'd)     -0.00343         *
 * P               3     -0.00000(cons'd)      0.00000(cons'd)     -0.00090         *
 * P               4     -0.00000(cons'd)     -0.00000(cons'd)      0.00206         *
 * P               5      0.00000(cons'd)      0.00000(cons'd)      0.00005         *
 * P               6     -0.00000(cons'd)      0.00000(cons'd)      0.00206         *
 * P               7      0.00000(cons'd)      0.00000(cons'd)     -0.00344         *
 * P               8      0.00000(cons'd)     -0.00000(cons'd)      0.00005         *
 * P               9      0.00000(cons'd)     -0.00000(cons'd)     -0.00345         *
 * P              10     -0.00000(cons'd)      0.00000(cons'd)     -0.00087         *
 * P              11      0.00000(cons'd)     -0.00000(cons'd)      0.00206         *
 * P              12      0.00000(cons'd)      0.00000(cons'd)     -0.00090         *
 * P              13      0.00000(cons'd)     -0.00000(cons'd)      0.00006         *
 * P              14      0.00000(cons'd)     -0.00000(cons'd)      0.00005         *
 * P              15      0.00000(cons'd)      0.00000(cons'd)     -0.00087         *
 * P              16      0.00000(cons'd)      0.00000(cons'd)     -0.00344         *
 * In              1      0.00000(cons'd)      0.00000(cons'd)      0.00340         *
 * In              2      0.00000(cons'd)      0.00000(cons'd)      0.00234         *
 * In              3      0.00000(cons'd)      0.00000(cons'd)     -0.00103         *
 * In              4      0.00000(cons'd)      0.00000(cons'd)      0.00235         *
 * In              5      0.00000(cons'd)      0.00000(cons'd)     -0.00103         *
 * In              6      0.00000(cons'd)      0.00000(cons'd)      0.00235         *
 * In              7      0.00000(cons'd)      0.00000(cons'd)      0.00234         *
 * In              8      0.00000(cons'd)      0.00000(cons'd)     -0.00102         *
 * In              9      0.00000(cons'd)      0.00000(cons'd)      0.00341         *
 * In             10      0.00000(cons'd)      0.00000(cons'd)     -0.00250         *
 * In             11      0.00000(cons'd)      0.00000(cons'd)      0.00341         *
 * In             12      0.00000(cons'd)      0.00000(cons'd)     -0.00102         *
 * In             13      0.00000(cons'd)      0.00000(cons'd)     -0.00252         *
 * In             14      0.00000(cons'd)      0.00000(cons'd)      0.00340         *
 * In             15      0.00000(cons'd)      0.00000(cons'd)     -0.00252         *
 * In             16      0.00000(cons'd)      0.00000(cons'd)     -0.00250         *
 *                                                                                  *
 ************************************************************************************
  
 +------------+-------------+-------------+-----------------+ <-- min LBFGS
 |    Step    |   lambda    |   F.delta'  |    enthalpy     | <-- min LBFGS
 +------------+-------------+-------------+-----------------+ <-- min LBFGS
 |  previous  |    0.000000 |    0.031518 |   -31432.629034 | <-- min LBFGS
 | trial step |    1.000000 |    0.003387 |   -31432.629324 | <-- min LBFGS
 +------------+-------------+-------------+-----------------+ <-- min LBFGS
  
 LBFGS: finished iteration     3 with enthalpy= -3.14326293E+004 eV
  
 +-----------+-----------------+-----------------+------------+-----+ <-- LBFGS
 | Parameter |      value      |    tolerance    |    units   | OK? | <-- LBFGS
 +-----------+-----------------+-----------------+------------+-----+ <-- LBFGS
 |  dE/ion   |   9.035089E-006 |   2.000000E-005 |         eV | Yes | <-- LBFGS
 |  |F|max   |   3.451359E-003 |   1.000000E-003 |       eV/A | No  | <-- LBFGS
 |  |dR|max  |   2.047125E-003 |   1.000000E-003 |          A | No  | <-- LBFGS
 +-----------+-----------------+-----------------+------------+-----+ <-- LBFGS
  

================================================================================
 Starting LBFGS iteration          4 ...
================================================================================
  
 +------------+-------------+-------------+-----------------+ <-- min LBFGS
 |    Step    |   lambda    |   F.delta'  |    enthalpy     | <-- min LBFGS
 +------------+-------------+-------------+-----------------+ <-- min LBFGS
 |  previous  |    0.000000 |    0.004929 |   -31432.629324 | <-- min LBFGS
 +------------+-------------+-------------+-----------------+ <-- min LBFGS
  

--------------------------------------------------------------------------------
 LBFGS: starting iteration         4 with trial guess (lambda=  1.000000)
--------------------------------------------------------------------------------

                           -------------------------------
                                     Cell Contents
                           -------------------------------

            xxxxxxxxxxxxxxxxxxxxxxxxxxxxxxxxxxxxxxxxxxxxxxxxxxxxxxxxxxxxxxxxx
            x  Element         Atom        Fractional coordinates of atoms  x
            x                 Number           u          v          w      x
            x---------------------------------------------------------------x
            x  P                 1         0.500000   0.662630   0.378602   x
            x  P                 2         0.250000  -0.033539   0.145336   x
            x  P                 3         0.500000   0.556771   0.837326   x
            x  P                 4         0.500000   0.162630   0.378602   x
            x  P                 5         0.750000   0.358901   0.611429   x
            x  P                 6         0.000000   0.162630   0.378602   x
            x  P                 7         0.250000   0.466461   0.145337   x
            x  P                 8         0.250000   0.358901   0.611429   x
            x  P                 9         0.750000   0.466461   0.145337   x
            x  P                10        -0.000000   0.056771   0.837326   x
            x  P                11         0.000000   0.662630   0.378602   x
            x  P                12         0.500000   0.056771   0.837326   x
            x  P                13         0.250000  -0.141099   0.611429   x
            x  P                14         0.750000  -0.141099   0.611429   x
            x  P                15         0.000000   0.556771   0.837326   x
            x  P                16         0.750000  -0.033539   0.145337   x
            x  In                1         0.250000   0.688761   0.265371   x
            x  In                2         0.500000   0.385146   0.497702   x
            x  In                3         0.750000   0.081098   0.731908   x
            x  In                4        -0.000000   0.385146   0.497702   x
            x  In                5         0.250000   0.081098   0.731908   x
            x  In                6         0.000000  -0.114854   0.497702   x
            x  In                7         0.500000  -0.114854   0.497702   x
            x  In                8         0.750000   0.581098   0.731908   x
            x  In                9         0.750000   0.688761   0.265371   x
            x  In               10         0.500000   0.492540   0.032327   x
            x  In               11         0.750000   0.188761   0.265370   x
            x  In               12         0.250000   0.581098   0.731908   x
            x  In               13        -0.000000   0.492540   0.032326   x
            x  In               14         0.250000   0.188761   0.265371   x
            x  In               15         0.000000  -0.007460   0.032326   x
            x  In               16         0.500000  -0.007460   0.032327   x
            xxxxxxxxxxxxxxxxxxxxxxxxxxxxxxxxxxxxxxxxxxxxxxxxxxxxxxxxxxxxxxxxx


------------------------------------------------------------------------ <-- SCF
SCF loop      Energy           Fermi           Energy gain       Timer   <-- SCF
                               energy          per atom          (sec)   <-- SCF
------------------------------------------------------------------------ <-- SCF
Initial  -3.14326046E+004  0.00000000E+000                      2093.73  <-- SCF
      1  -3.14326293E+004  3.82239868E+000   7.71398766E-004    2130.79  <-- SCF
      2  -3.14326293E+004  3.82239867E+000   6.92538653E-007    2175.85  <-- SCF
      3  -3.14326293E+004  3.82245008E+000   2.81109423E-009    2203.73  <-- SCF
      4  -3.14326293E+004  3.82247830E+000   3.97563241E-009    2230.30  <-- SCF
------------------------------------------------------------------------ <-- SCF
 
Final energy, E             =  -31432.60938321     eV
Final free energy (E-TS)    =  -31432.62933685     eV
(energies not corrected for finite basis set)
 
NB est. 0K energy (E-0.5TS)      =  -31432.61936003     eV
 

 ******************************** Constrained Forces ********************************
 *                                                                                  *
 *                           Cartesian components (eV/A)                            *
 * -------------------------------------------------------------------------------- *
 *                         x                    y                    z              *
 *                                                                                  *
 * P               1     -0.00000(cons'd)      0.00000(cons'd)      0.00235         *
 * P               2      0.00000(cons'd)     -0.00000(cons'd)     -0.00193         *
 * P               3     -0.00000(cons'd)      0.00000(cons'd)     -0.00052         *
 * P               4      0.00000(cons'd)     -0.00000(cons'd)      0.00235         *
 * P               5      0.00000(cons'd)     -0.00000(cons'd)      0.00009         *
 * P               6     -0.00000(cons'd)     -0.00000(cons'd)      0.00235         *
 * P               7      0.00000(cons'd)     -0.00000(cons'd)     -0.00194         *
 * P               8      0.00000(cons'd)     -0.00000(cons'd)      0.00009         *
 * P               9      0.00000(cons'd)      0.00000(cons'd)     -0.00194         *
 * P              10      0.00000(cons'd)      0.00000(cons'd)     -0.00054         *
 * P              11     -0.00000(cons'd)      0.00000(cons'd)      0.00235         *
 * P              12      0.00000(cons'd)      0.00000(cons'd)     -0.00053         *
 * P              13      0.00000(cons'd)      0.00000(cons'd)      0.00010         *
 * P              14      0.00000(cons'd)     -0.00000(cons'd)      0.00009         *
 * P              15      0.00000(cons'd)      0.00000(cons'd)     -0.00054         *
 * P              16      0.00000(cons'd)      0.00000(cons'd)     -0.00194         *
 * In              1      0.00000(cons'd)     -0.00000(cons'd)     -0.00015         *
 * In              2      0.00000(cons'd)      0.00000(cons'd)      0.00043         *
 * In              3      0.00000(cons'd)      0.00000(cons'd)     -0.00057         *
 * In              4      0.00000(cons'd)      0.00000(cons'd)      0.00043         *
 * In              5     -0.00000(cons'd)      0.00000(cons'd)     -0.00057         *
 * In              6      0.00000(cons'd)      0.00000(cons'd)      0.00043         *
 * In              7      0.00000(cons'd)      0.00000(cons'd)      0.00043         *
 * In              8      0.00000(cons'd)      0.00000(cons'd)     -0.00056         *
 * In              9      0.00000(cons'd)      0.00000(cons'd)     -0.00014         *
 * In             10      0.00000(cons'd)      0.00000(cons'd)      0.00029         *
 * In             11      0.00000(cons'd)      0.00000(cons'd)     -0.00014         *
 * In             12      0.00000(cons'd)      0.00000(cons'd)     -0.00056         *
 * In             13      0.00000(cons'd)      0.00000(cons'd)      0.00032         *
 * In             14     -0.00000(cons'd)      0.00000(cons'd)     -0.00015         *
 * In             15      0.00000(cons'd)      0.00000(cons'd)      0.00032         *
 * In             16      0.00000(cons'd)      0.00000(cons'd)      0.00029         *
 *                                                                                  *
 ************************************************************************************
  
 +------------+-------------+-------------+-----------------+ <-- min LBFGS
 |    Step    |   lambda    |   F.delta'  |    enthalpy     | <-- min LBFGS
 +------------+-------------+-------------+-----------------+ <-- min LBFGS
 |  previous  |    0.000000 |    0.004929 |   -31432.629324 | <-- min LBFGS
 | trial step |    1.000000 |    0.001392 |   -31432.629337 | <-- min LBFGS
[...]
 * In             12      0.00000(cons'd)      0.00000(cons'd)     -0.00038         *
 * In             13      0.00000(cons'd)      0.00000(cons'd)     -0.00065         *
 * In             14      0.00000(cons'd)      0.00000(cons'd)      0.00010         *
 * In             15     -0.00000(cons'd)      0.00000(cons'd)     -0.00066         *
 * In             16      0.00000(cons'd)      0.00000(cons'd)     -0.00064         *
 *                                                                                  *
 ************************************************************************************

 Pseudo atomic calculation performed for P 3s2 3p3

 Converged in 23 iterations to a total energy of -208.0292 eV

 Pseudo atomic calculation performed for In 4d10 5s2 5p1

 Converged in 42 iterations to a total energy of -1747.4500 eV
Charge spilling parameter for spin component 1 = 0.21%

            Orbital Populations       
     Ion    Atom   Orbital             Charge
  -------------------------------------------
      P     1      S                    1.717
      P     1      Px                   1.291
      P     1      Py                   1.348
      P     1      Pz                   1.332
      P     2      S                    1.724
      P     2      Px                   1.282
      P     2      Py                   1.339
      P     2      Pz                   1.348
      P     3      S                    1.681
      P     3      Px                   1.288
      P     3      Py                   1.522
      P     3      Pz                   1.203
      P     4      S                    1.717
      P     4      Px                   1.291
      P     4      Py                   1.348
      P     4      Pz                   1.332
      P     5      S                    1.720
      P     5      Px                   1.284
      P     5      Py                   1.343
      P     5      Pz                   1.332
      P     6      S                    1.717
      P     6      Px                   1.291
      P     6      Py                   1.348
      P     6      Pz                   1.332
      P     7      S                    1.724
      P     7      Px                   1.282
      P     7      Py                   1.339
      P     7      Pz                   1.348
      P     8      S                    1.720
      P     8      Px                   1.284
      P     8      Py                   1.343
      P     8      Pz                   1.332
      P     9      S                    1.724
      P     9      Px                   1.282
      P     9      Py                   1.339
      P     9      Pz                   1.348
      P    10      S                    1.681
      P    10      Px                   1.288
      P    10      Py                   1.522
      P    10      Pz                   1.203
      P    11      S                    1.717
      P    11      Px                   1.291
      P    11      Py                   1.348
      P    11      Pz                   1.332
      P    12      S                    1.681
      P    12      Px                   1.288
      P    12      Py                   1.522
      P    12      Pz                   1.203
      P    13      S                    1.720
      P    13      Px                   1.284
      P    13      Py                   1.343
      P    13      Pz                   1.332
      P    14      S                    1.720
      P    14      Px                   1.284
      P    14      Py                   1.343
      P    14      Pz                   1.332
      P    15      S                    1.681
      P    15      Px                   1.288
      P    15      Py                   1.522
      P    15      Pz                   1.203
      P    16      S                    1.724
      P    16      Px                   1.282
      P    16      Py                   1.339
      P    16      Pz                   1.348
     In     1      Dzz                  1.999
     In     1      Dzy                  1.997
     In     1      Dzx                  1.996
     In     1      Dxx-yy               1.996
     In     1      Dxy                  1.999
     In     1      S                    1.419
     In     1      Px                   0.520
     In     1      Py                   0.478
     In     1      Pz                   0.454
     In     1      S                   -0.568
     In     2      Dzz                  1.999
     In     2      Dzy                  1.997
     In     2      Dzx                  1.996
     In     2      Dxx-yy               1.996
     In     2      Dxy                  1.999
     In     2      S                    1.420
     In     2      Px                   0.524
     In     2      Py                   0.480
     In     2      Pz                   0.462
     In     2      S                   -0.589
     In     3      Dzz                  1.999
     In     3      Dzy                  1.997
     In     3      Dzx                  1.995
     In     3      Dxx-yy               1.995
     In     3      Dxy                  1.999
     In     3      S                    1.474
     In     3      Px                   0.496
     In     3      Py                   0.501
     In     3      Pz                   0.471
     In     3      S                   -0.621
     In     4      Dzz                  1.999
     In     4      Dzy                  1.997
     In     4      Dzx                  1.996
     In     4      Dxx-yy               1.996
     In     4      Dxy                  1.999
     In     4      S                    1.420
     In     4      Px                   0.524
     In     4      Py                   0.480
     In     4      Pz                   0.462
     In     4      S                   -0.589
     In     5      Dzz                  1.999
     In     5      Dzy                  1.997
     In     5      Dzx                  1.995
     In     5      Dxx-yy               1.995
     In     5      Dxy                  1.999
     In     5      S                    1.474
     In     5      Px                   0.496
     In     5      Py                   0.501
     In     5      Pz                   0.471
     In     5      S                   -0.621
     In     6      Dzz                  1.999
     In     6      Dzy                  1.997
     In     6      Dzx                  1.996
     In     6      Dxx-yy               1.996
     In     6      Dxy                  1.999
     In     6      S                    1.420
     In     6      Px                   0.524
     In     6      Py                   0.480
     In     6      Pz                   0.462
     In     6      S                   -0.589
     In     7      Dzz                  1.999
     In     7      Dzy                  1.997
     In     7      Dzx                  1.996
     In     7      Dxx-yy               1.996
     In     7      Dxy                  1.999
     In     7      S                    1.420
     In     7      Px                   0.524
     In     7      Py                   0.480
     In     7      Pz                   0.462
     In     7      S                   -0.589
     In     8      Dzz                  1.999
     In     8      Dzy                  1.997
     In     8      Dzx                  1.995
     In     8      Dxx-yy               1.995
     In     8      Dxy                  1.999
     In     8      S                    1.474
     In     8      Px                   0.496
     In     8      Py                   0.501
     In     8      Pz                   0.471
     In     8      S                   -0.621
     In     9      Dzz                  1.999
     In     9      Dzy                  1.997
     In     9      Dzx                  1.996
     In     9      Dxx-yy               1.996
     In     9      Dxy                  1.999
     In     9      S                    1.419
     In     9      Px                   0.520
     In     9      Py                   0.478
     In     9      Pz                   0.454
     In     9      S                   -0.568
     In    10      Dzz                  1.993
     In    10      Dzy                  1.999
     In    10      Dzx                  1.996
     In    10      Dxx-yy               1.996
     In    10      Dxy                  1.999
     In    10      S                    1.512
     In    10      Px                   0.473
     In    10      Py                   0.489
     In    10      Pz                   0.522
     In    10      S                   -0.610
     In    11      Dzz                  1.999
     In    11      Dzy                  1.997
     In    11      Dzx                  1.996
     In    11      Dxx-yy               1.996
     In    11      Dxy                  1.999
     In    11      S                    1.419
     In    11      Px                   0.520
     In    11      Py                   0.478
     In    11      Pz                   0.454
     In    11      S                   -0.568
     In    12      Dzz                  1.999
     In    12      Dzy                  1.997
     In    12      Dzx                  1.995
     In    12      Dxx-yy               1.995
     In    12      Dxy                  1.999
     In    12      S                    1.474
     In    12      Px                   0.496
     In    12      Py                   0.501
     In    12      Pz                   0.471
     In    12      S                   -0.621
     In    13      Dzz                  1.993
     In    13      Dzy                  1.999
     In    13      Dzx                  1.996
     In    13      Dxx-yy               1.996
     In    13      Dxy                  1.999
     In    13      S                    1.512
     In    13      Px                   0.473
     In    13      Py                   0.489
     In    13      Pz                   0.522
     In    13      S                   -0.610
     In    14      Dzz                  1.999
     In    14      Dzy                  1.997
     In    14      Dzx                  1.996
     In    14      Dxx-yy               1.996
     In    14      Dxy                  1.999
     In    14      S                    1.419
     In    14      Px                   0.520
     In    14      Py                   0.478
     In    14      Pz                   0.454
     In    14      S                   -0.568
     In    15      Dzz                  1.993
     In    15      Dzy                  1.999
     In    15      Dzx                  1.996
     In    15      Dxx-yy               1.996
     In    15      Dxy                  1.999
     In    15      S                    1.512
     In    15      Px                   0.473
     In    15      Py                   0.489
     In    15      Pz                   0.522
     In    15      S                   -0.610
     In    16      Dzz                  1.993
     In    16      Dzy                  1.999
     In    16      Dzx                  1.996
     In    16      Dxx-yy               1.996
     In    16      Dxy                  1.999
     In    16      S                    1.512
     In    16      Px                   0.473
     In    16      Py                   0.489
     In    16      Pz                   0.522
     In    16      S                   -0.610
  -------------------------------------------
                           Total:     288.000
  -------------------------------------------

     Atomic Populations (Mulliken)
     -----------------------------
Species          Ion     s       p       d       f      Total   Charge (e)
==========================================================================
  P               1     1.717   3.970   0.000   0.000   5.687    -0.687
  P               2     1.724   3.969   0.000   0.000   5.693    -0.693
  P               3     1.681   4.014   0.000   0.000   5.695    -0.695
  P               4     1.717   3.970   0.000   0.000   5.687    -0.687
  P               5     1.720   3.959   0.000   0.000   5.679    -0.679
  P               6     1.717   3.970   0.000   0.000   5.687    -0.687
  P               7     1.724   3.969   0.000   0.000   5.693    -0.693
  P               8     1.720   3.959   0.000   0.000   5.679    -0.679
  P               9     1.724   3.969   0.000   0.000   5.693    -0.693
  P              10     1.681   4.014   0.000   0.000   5.695    -0.695
  P              11     1.717   3.970   0.000   0.000   5.687    -0.687
  P              12     1.681   4.014   0.000   0.000   5.695    -0.695
  P              13     1.720   3.959   0.000   0.000   5.679    -0.679
  P              14     1.720   3.959   0.000   0.000   5.679    -0.679
  P              15     1.681   4.014   0.000   0.000   5.695    -0.695
  P              16     1.724   3.969   0.000   0.000   5.693    -0.693
  In              1     0.851   1.452   9.986   0.000  12.289     0.711
  In              2     0.831   1.466   9.986   0.000  12.283     0.717
  In              3     0.853   1.468   9.985   0.000  12.305     0.695
  In              4     0.831   1.466   9.986   0.000  12.283     0.717
  In              5     0.853   1.468   9.985   0.000  12.306     0.694
  In              6     0.831   1.466   9.986   0.000  12.283     0.717
  In              7     0.831   1.466   9.986   0.000  12.283     0.717
  In              8     0.853   1.468   9.985   0.000  12.305     0.695
  In              9     0.851   1.452   9.986   0.000  12.289     0.711
  In             10     0.902   1.484   9.983   0.000  12.369     0.631
  In             11     0.851   1.452   9.986   0.000  12.289     0.711
  In             12     0.853   1.468   9.985   0.000  12.306     0.694
  In             13     0.902   1.484   9.983   0.000  12.369     0.631
  In             14     0.851   1.452   9.986   0.000  12.289     0.711
  In             15     0.902   1.484   9.983   0.000  12.369     0.631
  In             16     0.902   1.484   9.983   0.000  12.369     0.631
==========================================================================

                 Bond                   Population      Length (A)
======================================================================
              P 3  -- In 10                  1.26        2.30710
              P 12 -- In 16                  1.26        2.30710
              P 15 -- In 13                  1.26        2.30710
              P 10 -- In 15                  1.26        2.30710
              P 10 -- In 5                   0.84        2.42919
              P 15 -- In 12                  0.84        2.42919
              P 10 -- In 3                   0.84        2.42919
              P 15 -- In 8                   0.84        2.42919
              P 12 -- In 3                   0.84        2.42919
              P 3  -- In 8                   0.84        2.42919
              P 12 -- In 5                   0.84        2.42919
              P 3  -- In 12                  0.84        2.42919
              P 16 -- In 15                  0.70        2.47629
              P 2  -- In 15                  0.70        2.47629
              P 9  -- In 13                  0.70        2.47629
              P 7  -- In 13                  0.70        2.47629
              P 16 -- In 16                  0.70        2.47629
              P 9  -- In 10                  0.70        2.47629
              P 2  -- In 16                  0.70        2.47629
              P 7  -- In 10                  0.70        2.47629
              P 11 -- In 1                   0.77        2.47782
              P 1  -- In 9                   0.77        2.47782
              P 6  -- In 14                  0.77        2.47782
              P 11 -- In 9                   0.77        2.47782
              P 4  -- In 11                  0.77        2.47782
              P 6  -- In 11                  0.77        2.47782
              P 1  -- In 1                   0.77        2.47782
              P 4  -- In 14                  0.77        2.47782
              P 14 -- In 7                   0.75        2.48084
              P 13 -- In 6                   0.75        2.48084
              P 5  -- In 2                   0.75        2.48084
              P 14 -- In 6                   0.75        2.48084
              P 8  -- In 4                   0.75        2.48084
              P 5  -- In 4                   0.75        2.48084
              P 13 -- In 7                   0.75        2.48084
              P 8  -- In 2                   0.75        2.48084
              P 6  -- In 6                   0.65        2.51572
              P 11 -- In 4                   0.65        2.51572
              P 11 -- In 6                   0.65        2.51572
              P 1  -- In 2                   0.65        2.51572
              P 4  -- In 7                   0.65        2.51572
              P 1  -- In 7                   0.65        2.51572
              P 6  -- In 4                   0.65        2.51572
              P 4  -- In 2                   0.65        2.51572
              P 9  -- In 9                   0.63        2.52209
              P 16 -- In 11                  0.63        2.52209
              P 16 -- In 9                   0.63        2.52209
              P 7  -- In 1                   0.63        2.52209
              P 2  -- In 14                  0.63        2.52209
              P 2  -- In 1                   0.63        2.52209
              P 9  -- In 11                  0.63        2.52209
              P 7  -- In 14                  0.63        2.52209
              P 14 -- In 3                   0.60        2.52483
              P 5  -- In 8                   0.60        2.52483
              P 14 -- In 8                   0.60        2.52483
              P 13 -- In 5                   0.60        2.52483
              P 8  -- In 12                  0.60        2.52483
              P 13 -- In 12                  0.60        2.52483
              P 5  -- In 3                   0.60        2.52483
              P 8  -- In 5                   0.60        2.52483
======================================================================


     Hirshfeld Analysis
     ------------------
Species   Ion     Hirshfeld Charge (e)
======================================
  P        1                -0.24
  P        2                -0.23
  P        3                -0.28
  P        4                -0.24
  P        5                -0.23
  P        6                -0.24
  P        7                -0.23
  P        8                -0.23
  P        9                -0.23
  P       10                -0.28
  P       11                -0.24
  P       12                -0.28
  P       13                -0.23
  P       14                -0.23
  P       15                -0.28
  P       16                -0.23
  In       1                 0.24
  In       2                 0.24
  In       3                 0.25
  In       4                 0.24
  In       5                 0.25
  In       6                 0.24
  In       7                 0.24
  In       8                 0.25
  In       9                 0.24
  In      10                 0.26
  In      11                 0.24
  In      12                 0.25
  In      13                 0.26
  In      14                 0.24
  In      15                 0.26
  In      16                 0.26
======================================

 
 A BibTeX formatted list of references used in this run has been written to 
 StackingFaultStructs_(0_0_1)_(1_1_0)_4.bib
 
Initialisation time =     21.32 s
Calculation time    =   2409.59 s
Finalisation time   =      2.42 s
Total time          =   2433.33 s
Peak Memory Use     = 3435008 kB
 
Overall parallel efficiency rating: Mediocre (52%)
 
Data was distributed by:-
G-vector (4-way); efficiency rating: Mediocre (54%)
k-point (52-way); efficiency rating: Excellent (95%)
