 +-------------------------------------------------+
 |                                                 |
 |      CCC   AA    SSS  TTTTT  EEEEE  PPPP        |
 |     C     A  A  S       T    E      P   P       |
 |     C     AAAA   SS     T    EEE    PPPP        |
 |     C     A  A     S    T    E      P           |
 |      CCC  A  A  SSS     T    EEEEE  P           |
 |                                                 |
 +-------------------------------------------------+
 |                                                 |
 | Welcome to Academic Release CASTEP version 24.1 |
 | Ab Initio Total Energy Program                  |
 |                                                 |
 | Authors:                                        |
 | M. Segall, M. Probert, C. Pickard, P. Hasnip,   |
 | S. Clark, K. Refson, J. R. Yates,               |
 | A. Bartok-Partay, M. Payne                      |
 |                                                 |
 | Contributors:                                   |
 | P. Lindan, P. Haynes, J. White, V. Milman,      |
 | N. Govind, M. Gibson, P. Tulip, V. Cocula,      |
 | B. Montanari, D. Quigley, M. Glover,            |
 | L. Bernasconi, A. Perlov, M. Plummer,           |
 | E. McNellis, J. Meyer, J. Gale, D. Jochym       |
 | J. Aarons, B. Walker, R. Gillen, D. Jones       |
 | T. Green, I. J. Bush, C. J. Armstrong,          |
 | E. J. Higgins, E. L. Brown, M. S. McFly,        |
 | J. Wilkins, B-C. Shih, P. J. P. Byrne,          |
 | R. J. Maurer, J. C. Womack, J. Dziedzic,        |
 | L. LeBlanc, T. K. Stenczel, J. Kermode,         |
 | S. Sturniolo, B. Shi, B. Durham, M. Evans,      |
 | M. J. Smith, A. Tamerus, Z. Hawkhead,           |
 | V. Ravindran, T. Hollins, S. A. Joyce,          |
 | R. T. Strong, A. M. Reilly, S. J. Donaldson     |
 |                                                 |
 | Copyright (c) 2000 - 2023                       |
 |                                                 |
 |     Distributed under license from Cambridge    |
 |     Enterprise for academic use only.           |
 |                                                 |
 | Please cite                                     |
 |                                                 |
 |     "First principles methods using CASTEP"     |
 |                                                 |
 |         Zeitschrift fuer Kristallographie       |
 |           220(5-6) pp. 567-570 (2005)           |
 |                                                 |
 | S. J. Clark, M. D. Segall, C. J. Pickard,       |
 | P. J. Hasnip, M. J. Probert, K. Refson,         |
 | M. C. Payne                                     |
 |                                                 |
 |       in all publications arising from          |
 |              your use of CASTEP                 |
 |                                                 |
 +-------------------------------------------------+
 |                                                 |
 |              http://www.castep.org              |
 |                                                 |
 +-------------------------------------------------+



 Compiled for  GNU 11.2.0 on 04-04-2024 18:39:17
 from code version 6355fd106 Castep241_branch Thu Mar 7 17:56:19 2024 +0000
 Compiler: GNU Fortran 11.2.0; Optimisation: FAST
 Comms   : MPI VERSION : CRAY MPICH version 8.1.23.14 (ANL base 3.4a2)
 MATHLIBS: default (LAPACK version 3.10.1)
 FFT Lib : fftw3 version commercial-fftw-3.3.10-sse2-avx-avx2-avx2_128
 Fundamental constants values: CODATA 2018

 Run started: Tue, 29 Jul 2025 20:47:16 +0100

 Atomic calculation performed for P: 1s2 2s2 2p6 3s2 3p3

 Converged in 47 iterations to an ae energy of -9309.074 eV

   ============================================================                
   | Pseudopotential Report - Date of generation 29-07-2025   |                
   ------------------------------------------------------------                
   | Element: P Ionic charge:  5.00 Level of theory: RSCAN    |                
   | Atomic Solver: Koelling-Harmon                           |                
   |                                                          |                
   |               Reference Electronic Structure             |                
   |         Orbital         Occupation         Energy        |                
   |            3s              2.000           -0.535        |                
   |            3p              3.000           -0.209        |                
   |                                                          |                
   |                 Pseudopotential Definition               |                
   |        Beta     l      e      Rc     scheme   norm       |                
   |          1      0   -0.535   1.807     qc      0         |                
   |          2      0    0.250   1.807     qc      0         |                
   |          3      1   -0.209   1.807     qc      0         |                
   |          4      1    0.250   1.807     qc      0         |                
   |          5      2    0.000   1.807     qc      0         |                
   |          6      2    0.250   1.807     qc      0         |                
   |         loc     3    0.000   1.807     pn      0         |                
   |                                                          |                
   | Augmentation charge Rinner = 1.263                       |                
   | Partial core correction Rc = 1.263                       |                
   ------------------------------------------------------------                
   | "3|1.8|4|4|5|30:31:32"                                   |                
   ------------------------------------------------------------                
   |      Author: Chris J. Pickard, Cambridge University      |                
   ============================================================                
 Warning: otfg_output_psp cannot write out meta-GGA pseudopotentials presently.

 Atomic calculation performed for In:
 1s2 2s2 2p6 3s2 3p6 3d10 4s2 4p6 4d10 5s2 5p1

 Converged in 84 iterations to an ae energy of -160093.328 eV

   ============================================================                
   | Pseudopotential Report - Date of generation 29-07-2025   |                
   ------------------------------------------------------------                
   | Element: In Ionic charge: 13.00 Level of theory: RSCAN   |                
   | Atomic Solver: Koelling-Harmon                           |                
   |                                                          |                
   |               Reference Electronic Structure             |                
   |         Orbital         Occupation         Energy        |                
   |            4d             10.000           -0.711        |                
   |            5s              2.000           -0.313        |                
   |            5p              1.000           -0.095        |                
   |                                                          |                
   |                 Pseudopotential Definition               |                
   |        Beta     l      e      Rc     scheme   norm       |                
   |          1      0   -0.313   2.501     qc      0         |                
   |          2      0    0.250   2.501     qc      0         |                
   |          3      1   -0.095   2.501     qc      0         |                
   |          4      1    0.250   2.501     qc      0         |                
   |          5      2   -0.711   2.207     qc      0         |                
   |          6      2    0.250   2.207     qc      0         |                
   |         loc     3    0.000   2.501     pn      0         |                
   |                                                          |                
   | Augmentation charge Rinner = 1.504                       |                
   | Partial core correction Rc = 1.504                       |                
   ------------------------------------------------------------                
   | "3|2.5|2.5|1.5|7|8|9|50:51:42U2.2U2.2"                   |                
   ------------------------------------------------------------                
   |      Author: Chris J. Pickard, Cambridge University      |                
   ============================================================                
 Warning: otfg_output_psp cannot write out meta-GGA pseudopotentials presently.

 Pseudo atomic calculation performed for P 3s2 3p3

 Converged in 23 iterations to a total energy of -208.0292 eV

 Pseudo atomic calculation performed for In 4d10 5s2 5p1

 Converged in 42 iterations to a total energy of -1747.4501 eV
 Calculation parallelised over 108 processes.
 Data is distributed by G-vector(3-way) and k-point(36-way)
 Each process may use up to 16 threads.

 ************************************ Title ************************************
 

 ***************************** General Parameters ******************************
  
 output verbosity                               : normal  (1)
 write checkpoint data to                       : P_Vacancy_Migration_5->3_Singlepoints_3.check
 type of calculation                            : single point energy
 stress calculation                             : off
 density difference calculation                 : off
 electron localisation func (ELF) calculation   : off
 Hirshfeld analysis                             : on
 polarisation (Berry phase) analysis            : off
 molecular orbital projected DOS                : off
 deltaSCF calculation                           : off
 unlimited duration calculation
 timing information                             : on
 memory usage estimate                          : on
 write extra output files                       : on
 write final potential to formatted file        : off
 write final density to formatted file          : off
 write BibTeX reference list                    : on
 write OTFG pseudopotential files               : on
 write electrostatic potential file             : on
 write bands file                               : on
 checkpoint writing                             : off
  
 output         length unit                     : A
 output           mass unit                     : amu
 output           time unit                     : ps
 output         charge unit                     : e
 output           spin unit                     : hbar/2
 output         energy unit                     : eV
 output          force unit                     : eV/A
 output       velocity unit                     : A/ps
 output       pressure unit                     : GPa
 output     inv_length unit                     : 1/A
 output      frequency unit                     : cm-1
 output force constant unit                     : eV/A**2
 output         volume unit                     : A**3
 output   IR intensity unit                     : (D/A)**2/amu
 output         dipole unit                     : D
 output         efield unit                     : eV/A/e
 output        entropy unit                     : J/mol/K
 output    efield chi2 unit                     : pm/V
  
 wavefunctions paging                           : none
 random number generator seed                   :  204716760
 data distribution                              : optimal for this architecture
 optimization strategy                          : balance speed and memory

 *********************** Exchange-Correlation Parameters ***********************
  
 using functional                               : RSCAN
 relativistic treatment                         : Koelling-Harmon
 DFT+D: Semi-empirical dispersion correction    : off

 ************************* Pseudopotential Parameters **************************
  
 pseudopotential representation                 : reciprocal space
 <beta|phi> representation                      : reciprocal space
 spin-orbit coupling                            : off

 **************************** Basis Set Parameters *****************************
  
 plane wave basis set cut-off                   :   900.0000   eV
 size of standard grid                          :     2.0000
 size of   fine   gmax                          :    30.7390   1/A
 finite basis set correction                    : none

 **************************** Electronic Parameters ****************************
  
 number of  electrons                           :  571.0    
 net charge of system                           :  0.000    
 net spin   of system                           :  1.000    
 number of  up  spins                           :  286.0    
 number of down spins                           :  285.0    
 treating system as spin-polarized
 number of bands                                :        343

 ********************* Electronic Minimization Parameters **********************
  
 Method: Treating system as metallic with density mixing treatment of electrons,
         and number of  SD  steps               :          1
         and number of  CG  steps               :          4
  
 total energy / atom convergence tol.           : 0.1000E-07   eV
 eigen-energy convergence tolerance             : 0.2203E-08   eV
 max force / atom convergence tol.              : ignored
 convergence tolerance window                   :          3   cycles
 max. number of SCF cycles                      :        100
 number of fixed-spin iterations                :         10
 smearing scheme                                : Gaussian
 smearing width                                 : 0.2000       eV
 Fermi energy convergence tolerance             : 0.2721E-13   eV
 periodic dipole correction                     : NONE

 ************************** Density Mixing Parameters **************************
  
 density-mixing scheme                          : Pulay
 max. length of mixing history                  :         20
 charge density mixing amplitude                : 0.5000    
   spin density mixing amplitude                :  2.000    
 cut-off energy for mixing                      :  900.0       eV

 *********************** Population Analysis Parameters ************************
  
 Population analysis with cutoff                :  3.000       A
 Population analysis output                     : summary and pdos components

 *******************************************************************************
  

                           -------------------------------
                                      Unit Cell
                           -------------------------------
        Real Lattice(A)                      Reciprocal Lattice(1/A)
    11.8016820    -0.0000080    -0.0000080        0.532397442   0.000000361   0.000000361
    -0.0000080    11.8016820    -0.0000080        0.000000361   0.532397442   0.000000361
    -0.0000080    -0.0000080    11.8016820        0.000000361   0.000000361   0.532397442

                       Lattice parameters(A)       Cell Angles
                    a =     11.801682          alpha =   90.000078
                    b =     11.801682          beta  =   90.000078
                    c =     11.801682          gamma =   90.000078

                       Current cell volume =          1643.734705       A**3
                                   density =             2.819410   AMU/A**3
                                           =             4.681741     g/cm^3

                           -------------------------------
                                     Cell Contents
                           -------------------------------
                         Total number of ions in cell =   63
                      Total number of species in cell =    2
                        Max number of any one species =   32

            xxxxxxxxxxxxxxxxxxxxxxxxxxxxxxxxxxxxxxxxxxxxxxxxxxxxxxxxxxxx
            x  Element    Atom        Fractional coordinates of atoms  x
            x            Number           u          v          w      x
            x----------------------------------------------------------x
            x  P            1         0.107823   0.146790   0.393545   x 
            x  P            2         0.393545   0.146791   0.107824   x 
            x  P            3         0.123966   0.371560   0.123966   x 
            x  P            4         0.124324   0.122146   0.874881   x 
            x  P            5         0.378715   0.120505   0.631220   x 
            x  P            6         0.121776   0.386781   0.635502   x 
            x  P            7         0.375579   0.383617   0.868899   x 
            x  P            8         0.134714   0.617768   0.372030   x 
            x  P            9         0.372030   0.617768   0.134714   x 
            x  P           10         0.140547   0.890255   0.140547   x 
            x  P           11         0.360798   0.899810   0.360798   x 
            x  P           12         0.123194   0.630154   0.880481   x 
            x  P           13         0.376362   0.629990   0.616164   x 
            x  P           14         0.127755   0.871096   0.624902   x 
            x  P           15         0.372417   0.865801   0.879046   x 
            x  P           16         0.631220   0.120505   0.378715   x 
            x  P           17         0.874881   0.122146   0.124324   x 
            x  P           18         0.635502   0.386781   0.121776   x 
            x  P           19         0.868899   0.383617   0.375579   x 
            x  P           20         0.623075   0.123940   0.878954   x 
            x  P           21         0.878955   0.123940   0.623075   x 
            x  P           22         0.621041   0.373435   0.621041   x 
            x  P           23         0.873486   0.374007   0.873486   x 
            x  P           24         0.616164   0.629990   0.376362   x 
            x  P           25         0.880481   0.630154   0.123194   x 
            x  P           26         0.624902   0.871096   0.127755   x 
            x  P           27         0.879046   0.865802   0.372417   x 
            x  P           28         0.625748   0.624836   0.873991   x 
            x  P           29         0.873991   0.624836   0.625748   x 
            x  P           30         0.626658   0.877302   0.626658   x 
            x  P           31         0.875060   0.878072   0.875060   x 
            x  In           1         0.006325  -0.007430   0.006325   x 
            x  In           2         0.289453   0.163846   0.289451   x 
            x  In           3        -0.011680   0.256351   0.249005   x 
            x  In           4         0.249005   0.256351  -0.011680   x 
            x  In           5        -0.000292  -0.009938   0.500266   x 
            x  In           6         0.250731  -0.005120   0.754100   x 
            x  In           7        -0.000334   0.248699   0.751388   x 
            x  In           8         0.248488   0.255756   0.525810   x 
            x  In           9        -0.001114   0.499367  -0.001114   x 
            x  In          10         0.263301   0.471468   0.263301   x 
            x  In          11         0.015497   0.749921   0.244857   x 
            x  In          12         0.244857   0.749921   0.015497   x 
            x  In          13         0.001314   0.504455   0.498544   x 
            x  In          14         0.251560   0.515911   0.750680   x 
            x  In          15        -0.001676   0.750744   0.750765   x 
            x  In          16         0.254046   0.758985   0.487652   x 
            x  In          17         0.500266  -0.009938  -0.000292   x 
            x  In          18         0.754100  -0.005120   0.250731   x 
            x  In          19         0.525810   0.255756   0.248488   x 
            x  In          20         0.751388   0.248699  -0.000334   x 
            x  In          21         0.497218  -0.007127   0.497218   x 
            x  In          22         0.750664   0.006288   0.750664   x 
            x  In          23         0.501568   0.250141   0.752883   x 
            x  In          24         0.752883   0.250141   0.501568   x 
            x  In          25         0.498544   0.504455   0.001314   x 
            x  In          26         0.750680   0.515911   0.251560   x 
            x  In          27         0.487652   0.758985   0.254046   x 
            x  In          28         0.750765   0.750744  -0.001676   x 
            x  In          29         0.487914   0.490454   0.487914   x 
            x  In          30         0.747234   0.497863   0.747234   x 
            x  In          31         0.501785   0.749220   0.748150   x 
            x  In          32         0.748150   0.749220   0.501785   x 
            xxxxxxxxxxxxxxxxxxxxxxxxxxxxxxxxxxxxxxxxxxxxxxxxxxxxxxxxxxxx


                         No user defined ionic velocities

                           -------------------------------
                                   Details of Species
                           -------------------------------

                               Mass of species in AMU
                                    P   30.9737600
                                    In  114.8180000

                          Electric Quadrupole Moment (Barn)
                                    P    1.0000000 No Isotope Defined
                                    In    0.7700000 Isotope115

                          Files used for pseudopotentials:
                                    P 3|1.8|4|4|5|30:31:32
                                    In 3|2.5|2.5|1.5|7|8|9|50:51:42U2.2U2.2

                           -------------------------------
                              k-Points For BZ Sampling
                           -------------------------------
                       MP grid size for SCF calculation is  4  4  4
                            with an offset of   0.125  0.125  0.125
                       Number of kpoints used =            36

                           -------------------------------
                               Symmetry and Constraints
                           -------------------------------

                      Maximum deviation from symmetry =  0.00000         ANG

                      Number of symmetry operations   =           1
                      Number of ionic constraints     =           3
                      Point group of crystal =     1: C1, 1, 1
                      Space group of crystal =     8: Cm, C -2y

             Set iprint > 1 for details on symmetry rotations/translations

                         Centre of mass is constrained
             Set iprint > 1 for details of linear ionic constraints

                         Number of cell constraints= 0
                         Cell constraints are:  1 2 3 4 5 6

                         External pressure/stress (GPa)
                          0.00000   0.00000   0.00000
                                    0.00000   0.00000
                                              0.00000
 
+---------------- MEMORY AND SCRATCH DISK ESTIMATES PER PROCESS --------------+
|                                                     Memory          Disk    |
| Baseline code, static data and system overhead      368.0 MB         0.0 MB |
| BLAS internal memory storage                          0.0 MB         0.0 MB |
| Model and support data                             4302.1 MB         0.0 MB |
| Electronic energy minimisation requirements        1320.9 MB         0.0 MB |
| Force calculation requirements                      127.4 MB         0.0 MB |
|                                               ----------------------------- |
| Approx. total storage required per process         5991.0 MB         0.0 MB |
|                                                                             |
| Requirements will fluctuate during execution and may exceed these estimates |
+-----------------------------------------------------------------------------+
Calculating approximate eigenstates for fixed initial Hamiltonian
Cut-off for approx. calculation is   89.988 eV
Improving approx. states at cut-off of  450.000 eV
Resetting cut-off to  900.000 eV
Calculating total energy with cut-off of  900.000 eV.
------------------------------------------------------------------------ <-- SCF
SCF loop      Energy           Fermi           Energy gain       Timer   <-- SCF
                               energy          per atom          (sec)   <-- SCF
------------------------------------------------------------------------ <-- SCF
Initial  -6.28299409E+004  0.00000000E+000                       430.00  <-- SCF
      1  -6.25834266E+004  2.85132406E+000  -3.91292506E+000     874.92  <-- SCF
      2  -6.25837171E+004  2.85100962E+000   4.61170667E-003    1189.66  <-- SCF
      3  -6.26507655E+004  2.96285171E+000   1.06425917E+000    1537.24  <-- SCF
      4  -6.26630439E+004  3.00302481E+000   1.94895504E-001    2021.84  <-- SCF
      5  -6.26705161E+004  3.08472438E+000   1.18606745E-001    2368.81  <-- SCF
      6  -6.26593854E+004  3.23709305E+000  -1.76677907E-001    2713.80  <-- SCF
      7  -6.26580759E+004  3.28073438E+000  -2.07856128E-002    3073.25  <-- SCF
      8  -6.26579078E+004  3.30434393E+000  -2.66797847E-003    3456.19  <-- SCF
      9  -6.26588611E+004  3.31386965E+000   1.51307998E-002    3812.43  <-- SCF
     10  -6.26592389E+004  3.37567316E+000   5.99681044E-003    4182.77  <-- SCF
     11  -6.26592897E+004  3.37576072E+000   8.06278871E-004    4537.92  <-- SCF
     12  -6.26593073E+004  3.37642569E+000   2.79364666E-004    4895.30  <-- SCF
     13  -6.26593131E+004  3.37590906E+000   9.20863419E-005    5251.71  <-- SCF
     14  -6.26593152E+004  3.37617637E+000   3.33240990E-005    5609.36  <-- SCF
     15  -6.26593156E+004  3.37633064E+000   6.20886489E-006    5962.16  <-- SCF
     16  -6.26593160E+004  3.37669187E+000   7.88024175E-006    6328.30  <-- SCF
     17  -6.26593162E+004  3.37701736E+000   2.90301351E-006    6687.35  <-- SCF
     18  -6.26593164E+004  3.37752461E+000   3.33355234E-006    7038.86  <-- SCF
     19  -6.26593165E+004  3.37783004E+000   1.42309938E-006    7384.20  <-- SCF
     20  -6.26593166E+004  3.37795192E+000   5.03341387E-007    7721.69  <-- SCF
     21  -6.26593166E+004  3.37800402E+000   2.35189984E-007    8059.57  <-- SCF
     22  -6.26593166E+004  3.37802644E+000   7.92344478E-008    8371.14  <-- SCF
     23  -6.26593166E+004  3.37805253E+000   7.38060559E-008    8689.39  <-- SCF
     24  -6.26593166E+004  3.37807005E+000   3.87842170E-008    8994.94  <-- SCF
     25  -6.26593166E+004  3.37808878E+000   1.94531944E-008    9280.59  <-- SCF
     26  -6.26593166E+004  3.37811276E+000   1.40314807E-008    9594.45  <-- SCF
     27  -6.26593166E+004  3.37812160E+000   1.64696118E-009    9846.46  <-- SCF
     28  -6.26593166E+004  3.37812932E+000   1.96692537E-009   10087.06  <-- SCF
------------------------------------------------------------------------ <-- SCF
 
Integrated Spin Density     =    0.271075     hbar/2
Integrated |Spin Density|   =    0.334527     hbar/2
 
Final energy, E             =  -62659.21090669     eV
Final free energy (E-TS)    =  -62659.31659139     eV
(energies not corrected for finite basis set)
 
NB est. 0K energy (E-0.5TS)      =  -62659.26374904     eV
 

 ************************** Forces **************************
 *                                                          *
 *               Cartesian components (eV/A)                *
 * -------------------------------------------------------- *
 *                         x            y            z      *
 *                                                          *
 * P               1      0.03505      0.02884      0.03021 *
 * P               2      0.03040      0.02869      0.03461 *
 * P               3      0.23155     -0.14203      0.23155 *
 * P               4      0.01236      0.03344      0.00625 *
 * P               5      0.04326      0.18873     -0.18695 *
 * P               6      0.18855      0.06070     -0.09963 *
 * P               7      0.02348      0.01100      0.04859 *
 * P               8     -0.00186     -0.12468      0.05665 *
 * P               9      0.05665     -0.12469     -0.00186 *
 * P              10     -0.01832     -0.00014     -0.01833 *
 * P              11      0.04305      0.04991      0.04304 *
 * P              12      0.07647     -0.08053     -0.08823 *
 * P              13     -0.06975     -0.09532      0.00282 *
 * P              14     -0.02174      0.02426      0.01684 *
 * P              15      0.06453      0.04485     -0.08866 *
 * P              16     -0.18696      0.18873      0.04326 *
 * P              17      0.00625      0.03344      0.01234 *
 * P              18     -0.09967      0.06064      0.18857 *
 * P              19      0.04857      0.01102      0.02347 *
 * P              20     -0.01477      0.06470     -0.04467 *
 * P              21     -0.04469      0.06470     -0.01474 *
 * P              22     -0.10003     -0.04770     -0.10003 *
 * P              23      0.02556     -0.01364      0.02556 *
 * P              24      0.00282     -0.09533     -0.06975 *
 * P              25     -0.08823     -0.08053      0.07646 *
 * P              26      0.01683      0.02428     -0.02173 *
 * P              27     -0.08868      0.04483      0.06454 *
 * P              28      0.00704     -0.03024      0.00779 *
 * P              29      0.00779     -0.03025      0.00704 *
 * P              30      0.04528      0.10877      0.04528 *
 * P              31     -0.05902      0.09437     -0.05903 *
 * In              1      0.15199     -0.22847      0.15200 *
 * In              2     -0.05055     -1.28809     -0.04995 *
 * In              3     -0.01295      0.02658      0.06467 *
 * In              4      0.06466      0.02660     -0.01296 *
 * In              5      0.00622      0.00300      0.03327 *
 * In              6     -0.13288     -0.02128      0.02014 *
 * In              7      0.09605     -0.12350      0.00011 *
 * In              8     -0.36301     -0.11467      0.06911 *
 * In              9      0.00503      0.22010      0.00504 *
 * In             10      0.02479      0.72987      0.02479 *
 * In             11      0.09019      0.17809     -0.30341 *
 * In             12     -0.30342      0.17809      0.09019 *
 * In             13     -0.02322      0.01656     -0.07917 *
 * In             14      0.00829      0.01478      0.02386 *
 * In             15     -0.00380      0.02909      0.08588 *
 * In             16      0.19241      0.04051     -0.02524 *
 * In             17      0.03325      0.00305      0.00623 *
 * In             18      0.02014     -0.02128     -0.13288 *
 * In             19      0.06925     -0.11456     -0.36297 *
 * In             20      0.00012     -0.12350      0.09606 *
 * In             21     -0.08724     -0.14565     -0.08725 *
 * In             22      0.04164     -0.29065      0.04163 *
 * In             23     -0.03203      0.08925      0.04152 *
 * In             24      0.04153      0.08924     -0.03204 *
 * In             25     -0.07916      0.01657     -0.02322 *
 * In             26      0.02387      0.01478      0.00831 *
 * In             27     -0.02523      0.04052      0.19242 *
 * In             28      0.08589      0.02908     -0.00380 *
 * In             29      0.05183      0.26544      0.05183 *
 * In             30     -0.01231      0.17167     -0.01231 *
 * In             31     -0.01519     -0.00603     -0.03794 *
 * In             32     -0.03793     -0.00603     -0.01520 *
 *                                                          *
 ************************************************************

 Pseudo atomic calculation performed for P 3s2 3p3

 Converged in 23 iterations to a total energy of -208.0292 eV

 Pseudo atomic calculation performed for In 4d10 5s2 5p1

 Converged in 42 iterations to a total energy of -1747.4501 eV
Charge spilling parameter for spin component 1 = 0.18%
Charge spilling parameter for spin component 2 = 0.18%

                   Orbital Populations                  
  ---------------------------------------------------------------
     Ion    Atom   Orbital              Up        Down      Spin
  ---------------------------------------------------------------
      P     1      S                    0.877     0.874     0.003
      P     1      Px                   0.609     0.586     0.023
      P     1      Py                   0.689     0.689     0.001
      P     1      Pz                   0.658     0.657     0.001
      P     2      S                    0.877     0.874     0.003
      P     2      Px                   0.658     0.657     0.001
      P     2      Py                   0.689     0.689     0.001
      P     2      Pz                   0.609     0.586     0.023
      P     3      S                    0.873     0.873    -0.000
      P     3      Px                   0.640     0.642    -0.002
      P     3      Py                   0.676     0.677    -0.000
      P     3      Pz                   0.640     0.642    -0.002
      P     4      S                    0.869     0.869     0.000
      P     4      Px                   0.656     0.655     0.000
      P     4      Py                   0.651     0.651     0.000
      P     4      Pz                   0.659     0.659     0.000
      P     5      S                    0.873     0.873     0.000
      P     5      Px                   0.660     0.660     0.000
      P     5      Py                   0.643     0.642     0.001
      P     5      Pz                   0.651     0.650     0.001
      P     6      S                    0.871     0.871     0.000
      P     6      Px                   0.644     0.644    -0.000
      P     6      Py                   0.656     0.656     0.000
      P     6      Pz                   0.655     0.655    -0.000
      P     7      S                    0.868     0.868     0.000
      P     7      Px                   0.655     0.655     0.000
      P     7      Py                   0.653     0.652     0.000
      P     7      Pz                   0.659     0.659     0.000
      P     8      S                    0.874     0.874     0.001
      P     8      Px                   0.647     0.646     0.001
      P     8      Py                   0.639     0.637     0.002
      P     8      Pz                   0.666     0.665     0.001
      P     9      S                    0.874     0.874     0.001
      P     9      Px                   0.666     0.665     0.001
      P     9      Py                   0.639     0.637     0.002
      P     9      Pz                   0.647     0.646     0.001
      P    10      S                    0.904     0.904     0.000
      P    10      Px                   0.630     0.629     0.000
      P    10      Py                   0.630     0.630     0.000
      P    10      Pz                   0.630     0.629     0.000
      P    11      S                    0.900     0.901    -0.000
      P    11      Px                   0.632     0.632    -0.000
      P    11      Py                   0.631     0.631    -0.000
      P    11      Pz                   0.632     0.632    -0.000
      P    12      S                    0.868     0.868     0.000
      P    12      Px                   0.655     0.654     0.000
      P    12      Py                   0.658     0.658     0.000
      P    12      Pz                   0.654     0.654     0.000
      P    13      S                    0.874     0.873     0.001
      P    13      Px                   0.665     0.664     0.002
      P    13      Py                   0.647     0.641     0.005
      P    13      Pz                   0.644     0.640     0.003
      P    14      S                    0.868     0.868     0.000
      P    14      Px                   0.654     0.654     0.000
      P    14      Py                   0.660     0.660     0.000
      P    14      Pz                   0.654     0.654     0.000
      P    15      S                    0.873     0.872     0.001
      P    15      Px                   0.658     0.657     0.001
      P    15      Py                   0.652     0.650     0.002
      P    15      Pz                   0.651     0.649     0.002
      P    16      S                    0.873     0.873     0.000
      P    16      Px                   0.651     0.650     0.001
      P    16      Py                   0.643     0.642     0.001
      P    16      Pz                   0.660     0.660     0.000
      P    17      S                    0.869     0.869     0.000
      P    17      Px                   0.659     0.659     0.000
      P    17      Py                   0.651     0.651     0.000
      P    17      Pz                   0.656     0.655     0.000
      P    18      S                    0.871     0.871     0.000
      P    18      Px                   0.655     0.655    -0.000
      P    18      Py                   0.656     0.656     0.000
      P    18      Pz                   0.644     0.644    -0.000
      P    19      S                    0.868     0.868     0.000
      P    19      Px                   0.659     0.659     0.000
      P    19      Py                   0.653     0.652     0.000
      P    19      Pz                   0.655     0.655     0.000
      P    20      S                    0.869     0.869     0.000
      P    20      Px                   0.654     0.653     0.001
      P    20      Py                   0.657     0.656     0.001
      P    20      Pz                   0.655     0.654     0.001
      P    21      S                    0.869     0.869     0.000
      P    21      Px                   0.655     0.654     0.001
      P    21      Py                   0.657     0.656     0.001
      P    21      Pz                   0.654     0.653     0.001
      P    22      S                    0.874     0.873     0.001
      P    22      Px                   0.645     0.644     0.002
      P    22      Py                   0.664     0.664     0.000
      P    22      Pz                   0.645     0.644     0.002
      P    23      S                    0.870     0.870     0.000
      P    23      Px                   0.651     0.651     0.000
      P    23      Py                   0.661     0.660     0.001
      P    23      Pz                   0.651     0.651     0.000
      P    24      S                    0.874     0.873     0.001
      P    24      Px                   0.644     0.640     0.003
      P    24      Py                   0.647     0.641     0.005
      P    24      Pz                   0.665     0.664     0.002
      P    25      S                    0.868     0.868     0.000
      P    25      Px                   0.654     0.654     0.000
      P    25      Py                   0.658     0.658     0.000
      P    25      Pz                   0.655     0.654     0.000
      P    26      S                    0.868     0.868     0.000
      P    26      Px                   0.654     0.654     0.000
      P    26      Py                   0.660     0.660     0.000
      P    26      Pz                   0.654     0.654     0.000
      P    27      S                    0.873     0.872     0.001
      P    27      Px                   0.651     0.649     0.002
      P    27      Py                   0.652     0.650     0.002
      P    27      Pz                   0.658     0.657     0.001
      P    28      S                    0.868     0.868     0.000
      P    28      Px                   0.657     0.657    -0.000
      P    28      Py                   0.656     0.656    -0.000
      P    28      Pz                   0.655     0.655     0.000
      P    29      S                    0.868     0.868     0.000
      P    29      Px                   0.655     0.655     0.000
      P    29      Py                   0.656     0.656    -0.000
      P    29      Pz                   0.657     0.657     0.000
      P    30      S                    0.868     0.868     0.000
      P    30      Px                   0.656     0.656     0.000
      P    30      Py                   0.655     0.655     0.000
      P    30      Pz                   0.656     0.656     0.000
      P    31      S                    0.869     0.869     0.000
      P    31      Px                   0.655     0.655     0.000
      P    31      Py                   0.656     0.656     0.000
      P    31      Pz                   0.655     0.655     0.000
     In     1      Dzz                  1.000     1.000    -0.000
     In     1      Dzy                  0.999     0.999     0.000
     In     1      Dzx                  0.998     0.998     0.000
     In     1      Dxx-yy               1.000     1.000    -0.000
     In     1      Dxy                  0.999     0.999     0.000
     In     1      S                    0.706     0.706     0.000
     In     1      Px                   0.240     0.240     0.000
     In     1      Py                   0.245     0.245     0.000
     In     1      Pz                   0.240     0.240     0.000
     In     1      S                   -0.239    -0.241     0.002
     In     2      Dzz                  0.998     0.998    -0.000
     In     2      Dzy                  1.000     1.000    -0.000
     In     2      Dzx                  0.997     0.997     0.000
     In     2      Dxx-yy               0.999     0.999     0.000
     In     2      Dxy                  1.000     1.000    -0.000
     In     2      S                    0.701     0.694     0.007
     In     2      Px                   0.251     0.238     0.014
     In     2      Py                   0.240     0.228     0.012
     In     2      Pz                   0.251     0.238     0.014
     In     2      S                   -0.192    -0.198     0.007
     In     3      Dzz                  1.000     1.000     0.000
     In     3      Dzy                  0.998     0.998     0.000
     In     3      Dzx                  0.998     0.998     0.000
     In     3      Dxx-yy               1.000     1.000     0.000
     In     3      Dxy                  0.999     0.999    -0.000
     In     3      S                    0.710     0.711    -0.000
     In     3      Px                   0.234     0.234    -0.000
     In     3      Py                   0.237     0.237     0.001
     In     3      Pz                   0.248     0.248     0.000
     In     3      S                   -0.231    -0.231    -0.001
     In     4      Dzz                  1.000     1.000     0.000
     In     4      Dzy                  0.999     0.999    -0.000
     In     4      Dzx                  0.998     0.998     0.000
     In     4      Dxx-yy               1.000     1.000    -0.000
     In     4      Dxy                  0.998     0.998     0.000
     In     4      S                    0.710     0.711    -0.000
     In     4      Px                   0.248     0.248     0.000
     In     4      Py                   0.237     0.237     0.001
     In     4      Pz                   0.234     0.234    -0.000
     In     4      S                   -0.231    -0.231    -0.001
     In     5      Dzz                  1.000     1.000    -0.000
     In     5      Dzy                  0.998     0.998     0.000
     In     5      Dzx                  0.999     0.999    -0.000
     In     5      Dxx-yy               0.999     0.999     0.000
     In     5      Dxy                  0.998     0.998    -0.000
     In     5      S                    0.721     0.719     0.002
     In     5      Px                   0.234     0.234    -0.000
     In     5      Py                   0.240     0.238     0.002
     In     5      Pz                   0.240     0.237     0.003
     In     5      S                   -0.250    -0.250     0.000
     In     6      Dzz                  1.000     1.000     0.000
     In     6      Dzy                  0.999     0.999    -0.000
     In     6      Dzx                  0.998     0.998     0.000
     In     6      Dxx-yy               1.000     1.000    -0.000
     In     6      Dxy                  0.998     0.998     0.000
     In     6      S                    0.712     0.712     0.000
     In     6      Px                   0.240     0.239     0.001
     In     6      Py                   0.241     0.241     0.000
     In     6      Pz                   0.237     0.237    -0.000
     In     6      S                   -0.269    -0.268    -0.001
     In     7      Dzz                  1.000     1.000     0.000
     In     7      Dzy                  0.998     0.998     0.000
     In     7      Dzx                  0.999     0.999    -0.000
     In     7      Dxx-yy               1.000     1.000     0.000
     In     7      Dxy                  0.998     0.998    -0.000
     In     7      S                    0.709     0.709    -0.000
     In     7      Px                   0.240     0.240    -0.000
     In     7      Py                   0.243     0.243     0.000
     In     7      Pz                   0.237     0.237     0.000
     In     7      S                   -0.263    -0.263     0.000
     In     8      Dzz                  0.999     0.999     0.000
     In     8      Dzy                  0.999     0.999    -0.000
     In     8      Dzx                  0.999     0.999     0.000
     In     8      Dxx-yy               1.000     1.000     0.000
     In     8      Dxy                  0.998     0.998     0.000
     In     8      S                    0.722     0.722     0.000
     In     8      Px                   0.255     0.255    -0.000
     In     8      Py                   0.242     0.244    -0.002
     In     8      Pz                   0.231     0.230     0.002
     In     8      S                   -0.215    -0.216     0.001
     In     9      Dzz                  1.000     1.000     0.000
     In     9      Dzy                  0.998     0.998    -0.000
     In     9      Dzx                  0.999     0.999     0.000
     In     9      Dxx-yy               1.000     1.000    -0.000
     In     9      Dxy                  0.998     0.998    -0.000
     In     9      S                    0.714     0.714     0.000
     In     9      Px                   0.239     0.239    -0.000
     In     9      Py                   0.238     0.238     0.000
     In     9      Pz                   0.239     0.239    -0.000
     In     9      S                   -0.258    -0.259     0.000
     In    10      Dzz                  1.000     1.000     0.000
     In    10      Dzy                  0.999     0.999     0.000
     In    10      Dzx                  0.999     0.999     0.000
     In    10      Dxx-yy               1.000     1.000     0.000
     In    10      Dxy                  0.999     0.999     0.000
     In    10      S                    0.712     0.711     0.001
     In    10      Px                   0.247     0.246     0.001
     In    10      Py                   0.236     0.242    -0.006
     In    10      Pz                   0.247     0.246     0.001
     In    10      S                   -0.235    -0.236     0.001
     In    11      Dzz                  1.000     1.000     0.000
     In    11      Dzy                  0.999     0.999     0.000
     In    11      Dzx                  0.999     0.999     0.000
     In    11      Dxx-yy               1.000     1.000     0.000
     In    11      Dxy                  0.998     0.998    -0.000
     In    11      S                    0.705     0.705     0.000
     In    11      Px                   0.239     0.239     0.000
     In    11      Py                   0.244     0.244     0.000
     In    11      Pz                   0.243     0.242     0.001
     In    11      S                   -0.227    -0.228     0.000
     In    12      Dzz                  1.000     1.000     0.000
     In    12      Dzy                  0.998     0.998    -0.000
     In    12      Dzx                  0.999     0.999     0.000
     In    12      Dxx-yy               1.000     1.000     0.000
     In    12      Dxy                  0.999     0.999     0.000
     In    12      S                    0.705     0.705     0.000
     In    12      Px                   0.243     0.242     0.001
     In    12      Py                   0.244     0.244     0.000
     In    12      Pz                   0.239     0.239     0.000
     In    12      S                   -0.227    -0.228     0.000
     In    13      Dzz                  1.000     1.000     0.000
     In    13      Dzy                  0.999     0.999    -0.000
     In    13      Dzx                  0.998     0.998    -0.000
     In    13      Dxx-yy               1.000     1.000     0.000
     In    13      Dxy                  0.999     0.999     0.000
     In    13      S                    0.708     0.708    -0.000
     In    13      Px                   0.242     0.242     0.000
     In    13      Py                   0.235     0.235    -0.000
     In    13      Pz                   0.241     0.241    -0.000
     In    13      S                   -0.262    -0.260    -0.002
     In    14      Dzz                  1.000     1.000    -0.000
     In    14      Dzy                  0.998     0.998    -0.000
     In    14      Dzx                  0.998     0.998     0.000
     In    14      Dxx-yy               1.000     1.000     0.000
     In    14      Dxy                  0.998     0.998     0.000
     In    14      S                    0.707     0.708    -0.000
     In    14      Px                   0.247     0.247    -0.000
     In    14      Py                   0.239     0.239    -0.000
     In    14      Pz                   0.239     0.239    -0.000
     In    14      S                   -0.239    -0.239     0.001
     In    15      Dzz                  1.000     1.000    -0.000
     In    15      Dzy                  0.998     0.998     0.000
     In    15      Dzx                  0.998     0.998     0.000
     In    15      Dxx-yy               1.000     1.000    -0.000
     In    15      Dxy                  0.999     0.998     0.000
     In    15      S                    0.709     0.709     0.000
     In    15      Px                   0.242     0.242    -0.000
     In    15      Py                   0.240     0.240    -0.000
     In    15      Pz                   0.241     0.241     0.000
     In    15      S                   -0.262    -0.262     0.000
     In    16      Dzz                  1.000     1.000     0.000
     In    16      Dzy                  0.998     0.998     0.000
     In    16      Dzx                  0.999     0.999     0.000
     In    16      Dxx-yy               1.000     1.000     0.000
     In    16      Dxy                  0.999     0.999     0.000
     In    16      S                    0.702     0.702    -0.000
     In    16      Px                   0.237     0.238    -0.000
     In    16      Py                   0.244     0.244    -0.000
     In    16      Pz                   0.238     0.238    -0.000
     In    16      S                   -0.220    -0.222     0.002
     In    17      Dzz                  1.000     1.000     0.000
     In    17      Dzy                  0.998     0.998    -0.000
     In    17      Dzx                  0.999     0.999    -0.000
     In    17      Dxx-yy               1.000     1.000    -0.000
     In    17      Dxy                  0.998     0.998     0.000
     In    17      S                    0.721     0.719     0.002
     In    17      Px                   0.240     0.237     0.003
     In    17      Py                   0.240     0.238     0.002
     In    17      Pz                   0.234     0.234    -0.000
     In    17      S                   -0.250    -0.250     0.000
     In    18      Dzz                  1.000     1.000    -0.000
     In    18      Dzy                  0.998     0.998     0.000
     In    18      Dzx                  0.998     0.998     0.000
     In    18      Dxx-yy               1.000     1.000     0.000
     In    18      Dxy                  0.999     0.999    -0.000
     In    18      S                    0.712     0.712     0.000
     In    18      Px                   0.237     0.237    -0.000
     In    18      Py                   0.241     0.241     0.000
     In    18      Pz                   0.240     0.239     0.001
     In    18      S                   -0.269    -0.268    -0.001
     In    19      Dzz                  1.000     1.000     0.000
     In    19      Dzy                  0.998     0.998     0.000
     In    19      Dzx                  0.999     0.999     0.000
     In    19      Dxx-yy               0.999     0.999     0.000
     In    19      Dxy                  0.999     0.999    -0.000
     In    19      S                    0.722     0.722     0.000
     In    19      Px                   0.231     0.230     0.002
     In    19      Py                   0.242     0.244    -0.002
     In    19      Pz                   0.255     0.255    -0.000
     In    19      S                   -0.215    -0.216     0.001
     In    20      Dzz                  1.000     1.000     0.000
     In    20      Dzy                  0.998     0.998    -0.000
     In    20      Dzx                  0.999     0.999    -0.000
     In    20      Dxx-yy               1.000     1.000     0.000
     In    20      Dxy                  0.998     0.998    -0.000
     In    20      S                    0.709     0.709    -0.000
     In    20      Px                   0.237     0.237     0.000
     In    20      Py                   0.243     0.243     0.000
     In    20      Pz                   0.240     0.240    -0.000
     In    20      S                   -0.263    -0.263     0.000
     In    21      Dzz                  1.000     1.000     0.000
     In    21      Dzy                  0.999     0.999     0.000
     In    21      Dzx                  0.998     0.998     0.000
     In    21      Dxx-yy               1.000     1.000     0.000
     In    21      Dxy                  0.999     0.999     0.000
     In    21      S                    0.708     0.708     0.000
     In    21      Px                   0.242     0.242    -0.000
     In    21      Py                   0.243     0.243    -0.000
     In    21      Pz                   0.242     0.242    -0.000
     In    21      S                   -0.236    -0.234    -0.002
     In    22      Dzz                  1.000     1.000     0.000
     In    22      Dzy                  0.999     0.998     0.000
     In    22      Dzx                  0.998     0.998    -0.000
     In    22      Dxx-yy               1.000     1.000     0.000
     In    22      Dxy                  0.999     0.998     0.000
     In    22      S                    0.706     0.705     0.001
     In    22      Px                   0.241     0.241     0.000
     In    22      Py                   0.243     0.242     0.001
     In    22      Pz                   0.241     0.241     0.000
     In    22      S                   -0.249    -0.250     0.000
     In    23      Dzz                  1.000     1.000    -0.000
     In    23      Dzy                  0.998     0.998     0.000
     In    23      Dzx                  0.999     0.999     0.000
     In    23      Dxx-yy               1.000     1.000    -0.000
     In    23      Dxy                  0.998     0.998    -0.000
     In    23      S                    0.707     0.707    -0.000
     In    23      Px                   0.240     0.240    -0.000
     In    23      Py                   0.244     0.244     0.000
     In    23      Pz                   0.238     0.238    -0.000
     In    23      S                   -0.263    -0.262    -0.001
     In    24      Dzz                  1.000     1.000    -0.000
     In    24      Dzy                  0.998     0.998    -0.000
     In    24      Dzx                  0.999     0.999     0.000
     In    24      Dxx-yy               1.000     1.000    -0.000
     In    24      Dxy                  0.998     0.998    -0.000
     In    24      S                    0.707     0.707    -0.000
     In    24      Px                   0.238     0.238    -0.000
     In    24      Py                   0.244     0.244     0.000
     In    24      Pz                   0.240     0.240    -0.000
     In    24      S                   -0.263    -0.262    -0.001
     In    25      Dzz                  1.000     1.000     0.000
     In    25      Dzy                  0.999     0.999     0.000
     In    25      Dzx                  0.998     0.998    -0.000
     In    25      Dxx-yy               1.000     1.000     0.000
     In    25      Dxy                  0.999     0.999    -0.000
     In    25      S                    0.708     0.708    -0.000
     In    25      Px                   0.241     0.241    -0.000
     In    25      Py                   0.235     0.235    -0.000
     In    25      Pz                   0.242     0.242     0.000
     In    25      S                   -0.262    -0.260    -0.002
     In    26      Dzz                  1.000     1.000     0.000
     In    26      Dzy                  0.998     0.998     0.000
     In    26      Dzx                  0.998     0.998     0.000
     In    26      Dxx-yy               1.000     1.000    -0.000
     In    26      Dxy                  0.998     0.998    -0.000
     In    26      S                    0.707     0.708    -0.000
     In    26      Px                   0.239     0.239    -0.000
     In    26      Py                   0.239     0.239    -0.000
     In    26      Pz                   0.247     0.247    -0.000
     In    26      S                   -0.239    -0.239     0.001
     In    27      Dzz                  1.000     1.000     0.000
     In    27      Dzy                  0.999     0.999     0.000
     In    27      Dzx                  0.999     0.999     0.000
     In    27      Dxx-yy               1.000     1.000     0.000
     In    27      Dxy                  0.998     0.998     0.000
     In    27      S                    0.702     0.702    -0.000
     In    27      Px                   0.238     0.238    -0.000
     In    27      Py                   0.244     0.244    -0.000
     In    27      Pz                   0.237     0.238    -0.000
     In    27      S                   -0.220    -0.222     0.002
     In    28      Dzz                  1.000     1.000    -0.000
     In    28      Dzy                  0.999     0.999     0.000
     In    28      Dzx                  0.998     0.998     0.000
     In    28      Dxx-yy               1.000     1.000     0.000
     In    28      Dxy                  0.998     0.998     0.000
     In    28      S                    0.709     0.709     0.000
     In    28      Px                   0.241     0.241     0.000
     In    28      Py                   0.240     0.240    -0.000
     In    28      Pz                   0.242     0.242    -0.000
     In    28      S                   -0.262    -0.262     0.000
     In    29      Dzz                  1.000     1.000    -0.000
     In    29      Dzy                  0.999     0.999    -0.000
     In    29      Dzx                  0.999     0.999    -0.000
     In    29      Dxx-yy               1.000     1.000    -0.000
     In    29      Dxy                  0.999     0.999    -0.000
     In    29      S                    0.744     0.727     0.018
     In    29      Px                   0.252     0.234     0.018
     In    29      Py                   0.247     0.233     0.014
     In    29      Pz                   0.252     0.234     0.018
     In    29      S                   -0.249    -0.250     0.002
     In    30      Dzz                  1.000     1.000     0.000
     In    30      Dzy                  0.998     0.998     0.000
     In    30      Dzx                  0.999     0.999    -0.000
     In    30      Dxx-yy               1.000     1.000     0.000
     In    30      Dxy                  0.998     0.998     0.000
     In    30      S                    0.709     0.707     0.001
     In    30      Px                   0.240     0.240     0.000
     In    30      Py                   0.240     0.238     0.002
     In    30      Pz                   0.240     0.240     0.000
     In    30      S                   -0.239    -0.241     0.002
     In    31      Dzz                  1.000     1.000     0.000
     In    31      Dzy                  0.999     0.999    -0.000
     In    31      Dzx                  0.998     0.998     0.000
     In    31      Dxx-yy               1.000     1.000     0.000
     In    31      Dxy                  0.999     0.999     0.000
     In    31      S                    0.710     0.709     0.001
     In    31      Px                   0.242     0.240     0.002
     In    31      Py                   0.239     0.239    -0.000
     In    31      Pz                   0.241     0.241     0.000
     In    31      S                   -0.258    -0.259     0.001
     In    32      Dzz                  1.000     1.000     0.000
     In    32      Dzy                  0.999     0.999     0.000
     In    32      Dzx                  0.998     0.998     0.000
     In    32      Dxx-yy               1.000     1.000    -0.000
     In    32      Dxy                  0.999     0.999    -0.000
     In    32      S                    0.710     0.709     0.001
     In    32      Px                   0.241     0.241     0.000
     In    32      Py                   0.239     0.239    -0.000
     In    32      Pz                   0.242     0.240     0.002
     In    32      S                   -0.258    -0.259     0.001
  ---------------------------------------------------------------
                           Total:     285.636   285.364     0.272
  ---------------------------------------------------------------

     Atomic Populations (Mulliken)
     -----------------------------
Species          Ion Spin      s       p       d       f      Total   Charge(e)   Spin(hbar/2)
==============================================================================================
  P               1   up:     0.877   1.956   0.000   0.000   2.833    -0.639        0.027
                  1   dn:     0.874   1.931   0.000   0.000   2.806
  P               2   up:     0.877   1.956   0.000   0.000   2.833    -0.639        0.027
                  2   dn:     0.874   1.932   0.000   0.000   2.806
  P               3   up:     0.873   1.957   0.000   0.000   2.830    -0.662       -0.003
                  3   dn:     0.873   1.960   0.000   0.000   2.833
  P               4   up:     0.869   1.966   0.000   0.000   2.835    -0.669        0.001
                  4   dn:     0.869   1.965   0.000   0.000   2.834
  P               5   up:     0.873   1.954   0.000   0.000   2.827    -0.650        0.003
                  5   dn:     0.873   1.951   0.000   0.000   2.824
  P               6   up:     0.871   1.955   0.000   0.000   2.826    -0.652       -0.000
                  6   dn:     0.871   1.955   0.000   0.000   2.826
  P               7   up:     0.868   1.966   0.000   0.000   2.834    -0.668        0.001
                  7   dn:     0.868   1.966   0.000   0.000   2.834
  P               8   up:     0.874   1.952   0.000   0.000   2.827    -0.649        0.005
                  8   dn:     0.874   1.948   0.000   0.000   2.822
  P               9   up:     0.874   1.952   0.000   0.000   2.827    -0.649        0.005
                  9   dn:     0.874   1.948   0.000   0.000   2.822
  P              10   up:     0.904   1.889   0.000   0.000   2.793    -0.585        0.001
                 10   dn:     0.904   1.888   0.000   0.000   2.792
  P              11   up:     0.900   1.896   0.000   0.000   2.796    -0.592       -0.000
                 11   dn:     0.901   1.896   0.000   0.000   2.796
  P              12   up:     0.868   1.966   0.000   0.000   2.835    -0.669        0.000
                 12   dn:     0.868   1.966   0.000   0.000   2.835
  P              13   up:     0.874   1.956   0.000   0.000   2.830    -0.649        0.012
                 13   dn:     0.873   1.945   0.000   0.000   2.819
  P              14   up:     0.868   1.968   0.000   0.000   2.836    -0.672        0.000
                 14   dn:     0.868   1.968   0.000   0.000   2.836
  P              15   up:     0.873   1.960   0.000   0.000   2.834    -0.661        0.006
                 15   dn:     0.872   1.955   0.000   0.000   2.828
  P              16   up:     0.873   1.954   0.000   0.000   2.827    -0.650        0.003
                 16   dn:     0.873   1.951   0.000   0.000   2.824
  P              17   up:     0.869   1.966   0.000   0.000   2.835    -0.669        0.001
                 17   dn:     0.869   1.965   0.000   0.000   2.834
  P              18   up:     0.871   1.955   0.000   0.000   2.826    -0.652       -0.000
                 18   dn:     0.871   1.955   0.000   0.000   2.826
  P              19   up:     0.868   1.966   0.000   0.000   2.834    -0.668        0.001
                 19   dn:     0.868   1.966   0.000   0.000   2.834
  P              20   up:     0.869   1.965   0.000   0.000   2.834    -0.666        0.003
                 20   dn:     0.869   1.963   0.000   0.000   2.831
  P              21   up:     0.869   1.965   0.000   0.000   2.834    -0.666        0.003
                 21   dn:     0.869   1.963   0.000   0.000   2.831
  P              22   up:     0.874   1.955   0.000   0.000   2.829    -0.653        0.005
                 22   dn:     0.873   1.951   0.000   0.000   2.824
  P              23   up:     0.870   1.964   0.000   0.000   2.834    -0.667        0.001
                 23   dn:     0.870   1.963   0.000   0.000   2.833
  P              24   up:     0.874   1.956   0.000   0.000   2.830    -0.649        0.012
                 24   dn:     0.873   1.945   0.000   0.000   2.819
  P              25   up:     0.868   1.966   0.000   0.000   2.835    -0.669        0.000
                 25   dn:     0.868   1.966   0.000   0.000   2.835
  P              26   up:     0.868   1.968   0.000   0.000   2.836    -0.672        0.000
                 26   dn:     0.868   1.968   0.000   0.000   2.836
  P              27   up:     0.873   1.960   0.000   0.000   2.834    -0.661        0.006
                 27   dn:     0.872   1.955   0.000   0.000   2.828
  P              28   up:     0.868   1.969   0.000   0.000   2.837    -0.673        0.000
                 28   dn:     0.868   1.968   0.000   0.000   2.836
  P              29   up:     0.868   1.969   0.000   0.000   2.837    -0.673        0.000
                 29   dn:     0.868   1.968   0.000   0.000   2.836
  P              30   up:     0.868   1.966   0.000   0.000   2.835    -0.669        0.000
                 30   dn:     0.868   1.966   0.000   0.000   2.835
  P              31   up:     0.869   1.966   0.000   0.000   2.835    -0.669        0.000
                 31   dn:     0.869   1.965   0.000   0.000   2.834
  In              1   up:     0.467   0.725   4.995   0.000   6.187     0.629        0.003
                  1   dn:     0.465   0.725   4.995   0.000   6.184
  In              2   up:     0.510   0.742   4.994   0.000   6.246     0.562        0.053
                  2   dn:     0.496   0.703   4.993   0.000   6.193
  In              3   up:     0.479   0.720   4.995   0.000   6.193     0.614        0.000
                  3   dn:     0.480   0.719   4.994   0.000   6.193
  In              4   up:     0.479   0.720   4.995   0.000   6.193     0.614        0.000
                  4   dn:     0.480   0.719   4.994   0.000   6.193
  In              5   up:     0.471   0.715   4.994   0.000   6.180     0.647        0.007
                  5   dn:     0.469   0.710   4.994   0.000   6.173
  In              6   up:     0.444   0.718   4.995   0.000   6.156     0.687       -0.000
                  6   dn:     0.445   0.717   4.995   0.000   6.157
  In              7   up:     0.446   0.720   4.994   0.000   6.161     0.677       -0.000
                  7   dn:     0.446   0.720   4.994   0.000   6.161
  In              8   up:     0.507   0.728   4.995   0.000   6.230     0.540        0.001
                  8   dn:     0.506   0.729   4.995   0.000   6.229
  In              9   up:     0.456   0.716   4.995   0.000   6.167     0.667        0.001
                  9   dn:     0.455   0.716   4.995   0.000   6.166
  In             10   up:     0.477   0.730   4.997   0.000   6.203     0.592       -0.001
                 10   dn:     0.475   0.733   4.997   0.000   6.204
  In             11   up:     0.478   0.726   4.995   0.000   6.198     0.606        0.002
                 11   dn:     0.477   0.725   4.995   0.000   6.196
  In             12   up:     0.478   0.726   4.995   0.000   6.198     0.606        0.002
                 12   dn:     0.477   0.725   4.995   0.000   6.196
  In             13   up:     0.447   0.718   4.995   0.000   6.159     0.680       -0.002
                 13   dn:     0.448   0.718   4.995   0.000   6.161
  In             14   up:     0.469   0.724   4.994   0.000   6.187     0.626        0.000
                 14   dn:     0.468   0.725   4.994   0.000   6.187
  In             15   up:     0.447   0.722   4.995   0.000   6.164     0.672        0.000
                 15   dn:     0.447   0.722   4.995   0.000   6.164
  In             16   up:     0.482   0.720   4.995   0.000   6.197     0.608        0.001
                 16   dn:     0.480   0.720   4.995   0.000   6.196
  In             17   up:     0.471   0.715   4.994   0.000   6.180     0.647        0.007
                 17   dn:     0.469   0.710   4.994   0.000   6.173
  In             18   up:     0.444   0.718   4.995   0.000   6.156     0.687       -0.000
                 18   dn:     0.445   0.717   4.995   0.000   6.157
  In             19   up:     0.507   0.728   4.995   0.000   6.230     0.540        0.001
                 19   dn:     0.506   0.729   4.995   0.000   6.229
  In             20   up:     0.446   0.720   4.994   0.000   6.161     0.677       -0.000
                 20   dn:     0.446   0.721   4.994   0.000   6.161
  In             21   up:     0.472   0.727   4.995   0.000   6.194     0.609       -0.002
                 21   dn:     0.473   0.728   4.995   0.000   6.196
  In             22   up:     0.456   0.725   4.995   0.000   6.176     0.650        0.002
                 22   dn:     0.455   0.724   4.995   0.000   6.174
  In             23   up:     0.444   0.722   4.995   0.000   6.161     0.677       -0.001
                 23   dn:     0.445   0.723   4.995   0.000   6.162
  In             24   up:     0.444   0.722   4.995   0.000   6.161     0.677       -0.001
                 24   dn:     0.445   0.723   4.995   0.000   6.162
  In             25   up:     0.447   0.718   4.995   0.000   6.159     0.680       -0.002
                 25   dn:     0.448   0.718   4.995   0.000   6.161
  In             26   up:     0.469   0.724   4.994   0.000   6.187     0.626        0.000
                 26   dn:     0.468   0.725   4.994   0.000   6.187
  In             27   up:     0.482   0.720   4.995   0.000   6.197     0.608        0.001
                 27   dn:     0.480   0.720   4.995   0.000   6.196
  In             28   up:     0.447   0.722   4.995   0.000   6.164     0.672        0.000
                 28   dn:     0.447   0.722   4.995   0.000   6.164
  In             29   up:     0.495   0.751   4.996   0.000   6.243     0.584        0.069
                 29   dn:     0.476   0.701   4.996   0.000   6.174
  In             30   up:     0.470   0.720   4.995   0.000   6.184     0.636        0.005
                 30   dn:     0.467   0.718   4.995   0.000   6.179
  In             31   up:     0.452   0.723   4.995   0.000   6.169     0.666        0.005
                 31   dn:     0.449   0.720   4.995   0.000   6.164
  In             32   up:     0.452   0.723   4.995   0.000   6.169     0.666        0.005
                 32   dn:     0.449   0.720   4.995   0.000   6.164
==============================================================================================

                 Bond                   Population        Spin       Length (A)
================================================================================
              P 2  -- In 2                   0.75        -0.01          2.47875
              P 1  -- In 2                   0.75        -0.01          2.47881
              P 6  -- In 8                   0.77         0.00          2.51062
              P 18 -- In 19                  0.77         0.00          2.51063
              P 11 -- In 21                  0.76         0.00          2.52791
              P 26 -- In 17                  0.69         0.00          2.53347
              P 14 -- In 5                   0.69         0.00          2.53347
              P 10 -- In 11                  0.80         0.00          2.53700
              P 10 -- In 12                  0.80         0.00          2.53700
              P 15 -- In 17                  0.67        -0.00          2.54065
              P 27 -- In 5                   0.67        -0.00          2.54065
              P 5  -- In 8                   0.72        -0.00          2.54115
              P 16 -- In 19                  0.72        -0.00          2.54115
              P 25 -- In 26                  0.64         0.00          2.54156
              P 12 -- In 14                  0.64         0.00          2.54156
              P 4  -- In 4                   0.68        -0.00          2.54284
              P 17 -- In 3                   0.68        -0.00          2.54284
              P 19 -- In 3                   0.65        -0.00          2.54433
              P 7  -- In 4                   0.65        -0.00          2.54433
              P 10 -- In 1                   0.80         0.00          2.54487
              P 23 -- In 20                  0.67         0.00          2.54576
              P 23 -- In 7                   0.67         0.00          2.54576
              P 12 -- In 9                   0.68         0.00          2.54701
              P 25 -- In 9                   0.68         0.00          2.54701
              P 20 -- In 22                  0.64        -0.00          2.54707
              P 21 -- In 22                  0.64        -0.00          2.54707
              P 20 -- In 23                  0.67         0.00          2.54721
              P 21 -- In 24                  0.67         0.00          2.54721
              P 20 -- In 20                  0.67         0.00          2.54764
              P 21 -- In 7                   0.67         0.00          2.54764
              P 8  -- In 13                  0.68        -0.00          2.54876
              P 9  -- In 25                  0.68        -0.00          2.54876
              P 29 -- In 32                  0.67        -0.00          2.54966
              P 28 -- In 31                  0.67        -0.00          2.54966
              P 13 -- In 14                  0.64        -0.00          2.54993
              P 24 -- In 26                  0.64        -0.00          2.54993
              P 5  -- In 23                  0.64        -0.00          2.55036
              P 16 -- In 24                  0.64        -0.00          2.55036
              P 30 -- In 31                  0.67        -0.00          2.55197
              P 30 -- In 32                  0.67        -0.00          2.55197
              P 4  -- In 6                   0.67         0.00          2.55209
              P 17 -- In 18                  0.67         0.00          2.55209
              P 18 -- In 26                  0.59        -0.00          2.55267
              P 6  -- In 14                  0.59        -0.00          2.55267
              P 17 -- In 20                  0.67         0.00          2.55325
              P 4  -- In 7                   0.67         0.00          2.55325
              P 31 -- In 28                  0.66         0.00          2.55461
              P 31 -- In 15                  0.66         0.00          2.55461
              P 22 -- In 24                  0.65        -0.00          2.55466
              P 22 -- In 23                  0.65        -0.00          2.55466
              P 7  -- In 14                  0.64         0.00          2.55468
              P 19 -- In 26                  0.64         0.00          2.55468
              P 30 -- In 21                  0.64        -0.00          2.55489
              P 29 -- In 13                  0.66         0.00          2.55537
              P 28 -- In 25                  0.66         0.00          2.55537
              P 29 -- In 15                  0.65         0.00          2.55694
              P 28 -- In 28                  0.65         0.00          2.55694
              P 28 -- In 30                  0.65        -0.00          2.55714
              P 29 -- In 30                  0.65        -0.00          2.55714
              P 12 -- In 15                  0.66        -0.00          2.55747
              P 25 -- In 28                  0.66        -0.00          2.55747
              P 26 -- In 28                  0.64        -0.00          2.56068
              P 14 -- In 15                  0.64        -0.00          2.56068
              P 27 -- In 18                  0.67        -0.00          2.56074
              P 15 -- In 6                   0.67        -0.00          2.56074
              P 18 -- In 25                  0.63         0.00          2.56170
              P 6  -- In 13                  0.63         0.00          2.56170
              P 14 -- In 6                   0.66         0.00          2.56229
              P 26 -- In 18                  0.66         0.00          2.56229
              P 19 -- In 24                  0.66         0.00          2.56259
              P 7  -- In 23                  0.66         0.00          2.56259
              P 23 -- In 9                   0.63         0.00          2.56304
              P 1  -- In 3                   0.60        -0.00          2.56334
              P 2  -- In 4                   0.60        -0.00          2.56334
              P 23 -- In 30                  0.62        -0.00          2.56451
              P 19 -- In 13                  0.65         0.00          2.56549
              P 7  -- In 25                  0.65         0.00          2.56549
              P 16 -- In 18                  0.61        -0.00          2.56564
              P 5  -- In 6                   0.61        -0.00          2.56564
              P 3  -- In 3                   0.62         0.00          2.56690
              P 3  -- In 4                   0.62         0.00          2.56691
              P 11 -- In 16                  0.74         0.00          2.56722
              P 11 -- In 27                  0.74         0.00          2.56722
              P 22 -- In 30                  0.62        -0.00          2.56755
              P 26 -- In 27                  0.61        -0.00          2.56822
              P 14 -- In 16                  0.61        -0.00          2.56822
              P 24 -- In 32                  0.64         0.00          2.56851
              P 13 -- In 31                  0.64         0.00          2.56851
              P 25 -- In 11                  0.62        -0.00          2.56874
              P 12 -- In 12                  0.62         0.00          2.56874
              P 31 -- In 22                  0.64        -0.00          2.56910
              P 30 -- In 22                  0.63         0.00          2.56919
              P 18 -- In 20                  0.61        -0.00          2.56960
              P 6  -- In 7                   0.61        -0.00          2.56960
              P 15 -- In 31                  0.64        -0.00          2.57106
              P 27 -- In 32                  0.64        -0.00          2.57106
              P 9  -- In 27                  0.64        -0.00          2.57349
              P 8  -- In 16                  0.64        -0.00          2.57349
              P 31 -- In 1                   0.62        -0.00          2.57403
              P 21 -- In 5                   0.60        -0.00          2.57447
              P 20 -- In 17                  0.60        -0.00          2.57447
              P 3  -- In 9                   0.61        -0.00          2.57548
              P 1  -- In 5                   0.58        -0.00          2.57595
              P 2  -- In 17                  0.58        -0.00          2.57597
              P 9  -- In 12                  0.61        -0.00          2.58157
              P 8  -- In 11                  0.61        -0.00          2.58157
              P 4  -- In 1                   0.59        -0.00          2.58539
              P 17 -- In 1                   0.59        -0.00          2.58539
              P 24 -- In 27                  0.60        -0.00          2.58875
              P 13 -- In 16                  0.60        -0.00          2.58875
              P 5  -- In 21                  0.59         0.00          2.59341
              P 16 -- In 21                  0.59         0.00          2.59341
              P 15 -- In 12                  0.58        -0.00          2.59419
              P 27 -- In 11                  0.58        -0.00          2.59419
              P 24 -- In 29                  0.64        -0.00          2.59536
              P 13 -- In 29                  0.64        -0.00          2.59536
              P 3  -- In 10                  0.62         0.00          2.60734
              P 22 -- In 29                  0.62        -0.00          2.61612
              P 2  -- In 19                  0.48        -0.01          2.61651
              P 1  -- In 8                   0.48        -0.01          2.61652
              P 8  -- In 10                  0.62        -0.00          2.63260
              P 9  -- In 10                  0.62        -0.00          2.63260
================================================================================

 Hirshfeld supercell size:           2           2           2
Standard grid dimensions: 240 240 240
Fine grid dimensions:     240 240 240


     Hirshfeld Analysis
     ------------------
Species   Ion     Hirshfeld Charge (e)  Spin (hbar/2)
===================================================
  P        1                -0.24        0.02
  P        2                -0.24        0.02
  P        3                -0.23       -0.00
  P        4                -0.24        0.00
  P        5                -0.23        0.00
  P        6                -0.23       -0.00
  P        7                -0.24        0.00
  P        8                -0.24        0.00
  P        9                -0.24        0.00
  P       10                -0.27        0.00
  P       11                -0.25        0.00
  P       12                -0.24        0.00
  P       13                -0.24        0.01
  P       14                -0.24        0.00
  P       15                -0.23        0.01
  P       16                -0.23        0.00
  P       17                -0.24        0.00
  P       18                -0.23       -0.00
  P       19                -0.24        0.00
  P       20                -0.23        0.00
  P       21                -0.23        0.00
  P       22                -0.23        0.01
  P       23                -0.23        0.00
  P       24                -0.24        0.01
  P       25                -0.24        0.00
  P       26                -0.24        0.00
  P       27                -0.23        0.01
  P       28                -0.24        0.00
  P       29                -0.24        0.00
  P       30                -0.24        0.00
  P       31                -0.24        0.00
  In       1                 0.22        0.00
  In       2                 0.21        0.04
  In       3                 0.23        0.00
  In       4                 0.23        0.00
  In       5                 0.25        0.01
  In       6                 0.24        0.00
  In       7                 0.24        0.00
  In       8                 0.22        0.01
  In       9                 0.25        0.00
  In      10                 0.18        0.01
  In      11                 0.22        0.00
  In      12                 0.22        0.00
  In      13                 0.23        0.00
  In      14                 0.23        0.00
  In      15                 0.24        0.00
  In      16                 0.23        0.00
  In      17                 0.25        0.01
  In      18                 0.24        0.00
  In      19                 0.22        0.01
  In      20                 0.24        0.00
  In      21                 0.21        0.00
  In      22                 0.23        0.00
  In      23                 0.23        0.00
  In      24                 0.23        0.00
  In      25                 0.23        0.00
  In      26                 0.23        0.00
  In      27                 0.23        0.00
  In      28                 0.24        0.00
  In      29                 0.18        0.05
  In      30                 0.24        0.00
  In      31                 0.24        0.00
  In      32                 0.24        0.00
===================================================

 
 A BibTeX formatted list of references used in this run has been written to 
 P_Vacancy_Migration_5->3_Singlepoints_3.bib
 
Initialisation time =     30.07 s
Calculation time    =  10328.96 s
Finalisation time   =    165.07 s
Total time          =  10524.10 s
Peak Memory Use     = 9569132 kB
 
Overall parallel efficiency rating: Terrible (33%)
 
Data was distributed by:-
G-vector (3-way); efficiency rating: Poor (35%)
k-point (36-way); efficiency rating: Very good (82%)
