96
Lattice="14.45404925834546 20.441112492360922 0.0 14.45404925834546 -20.441112492360922 0.0 -2.220446049250313e-16 0.0 4.1725246150929305" Properties=species:S:1:pos:R:3 core_positions="_JSON [[7.227024629172732, 0.0, 2.0862623075464652], [21.68107388751819, 0.0, 2.0862623075464652]]" burgers_vectors="_JSON [[-0.9834734833333334, 1.9669469666666668, -0.9834734833333334], [0.9834734833333334, -1.9669469666666668, 0.9834734833333334]]" dislocation_types="_JSON [\"1/6<112> 30 degree partial\", \"1/6<112> 30 degree partial\"]" dislocation_classes="_JSON [\"<class 'matscipy.dislocation.DiamondGlide30degreePartial'>\", \"<class 'matscipy.dislocation.DiamondGlide30degreePartial'>\"]" energy=-406.9344342644588 pbc="T T T"
In       9.90620404      -2.95826512       3.61268335
P       10.31176723      -0.45528681       3.05899443
In       6.19501284      -2.97527913       1.96199523
P        5.94750339      -0.43072800       2.14614686
In       8.14551346       0.69871955       2.58422621
P        8.25884706       3.18350988       2.33310823
In      11.51724911       0.46567020       0.93362410
P       11.80926776       2.99495955       0.49442030
In       7.03148901       3.96324220       0.22937545
P        7.12736743       6.50310154       0.10077430
In      10.68699436       3.94244710       2.55386755
P       10.77558801       6.47660565       2.30950941
In       9.55906541       7.30169066       0.20526387
P        9.65295164       9.83868737       0.00600312
In       5.89875991       7.29661715       2.17365466
P       20.45618642     -10.60686985       2.00000504
In       8.42928340      10.65083604       2.07631550
P       22.97756147      -7.25375932       1.86954408
In      12.07646141      10.66329133       0.08824469
P       12.14991727      13.20859573      -0.03996345
In      21.76116969      -6.43072706       3.93614496
P       21.86787667      -3.90458757       3.63593449
In      10.93392067      14.03371959       2.03497265
P       25.42775162      -3.85904997       2.01735378
In      17.13039265      -2.97129148       3.48587695
P       17.45146327      -0.44669849       3.07456380
In      13.53685344      -2.97820757       1.40441468
P       13.88116956      -0.45125905       1.00570352
In      15.08000078       0.45387532       3.05989302
P       15.39216544       2.98048323       2.66997752
In      18.67989872       0.43103544       0.95646364
P       19.00860428       2.94958394       0.56284357
In      14.21825851       3.86568954       0.56556504
P       14.37783989       6.40942798       0.30503515
In      17.82055403       3.82885518       2.63868392
P       17.97750396       6.37419620       2.39294727
In      16.79663598       7.25324492       0.29737428
P       16.90392011       9.80602344       0.13053977
In      13.19920067       7.28686605       2.37639464
P       13.28823305       9.82954787       2.18686553
In      15.70801670      10.66570425       2.20973895
P       15.77769881      13.21741337       2.11363222
In      19.32074458      10.65919067       0.08289927
P       19.41022542      13.22150329      -0.00534754
In      14.56434384      14.05565788       0.02353187
P       14.57673818      16.60817457       0.02083870
In      18.19609170      14.06359426       2.08232507
P        3.77095180      -3.82340234       2.07101838
In      24.22503186      -3.00621156       4.09658593
P       24.08261475      -0.49930837       4.54213080
In      20.69409334      -2.99077429       1.51220139
P       20.99751149      -0.55904933       0.74798739
In      22.59408356       0.28676568       2.58700372
P       22.67445189       2.84991730       2.47047785
In      26.44816160       0.40458630       4.31070578
P       26.34067603       2.95124249       0.18451582
In      21.46592979       3.72144363       0.38851864
P       21.57478236       6.29505953       0.22383974
In      25.08208137       3.74432180       2.28074954
P       10.71125772     -14.12773418       2.19963080
In       9.52092282     -13.25097894       4.28588050
P        9.61543627     -10.68422648       4.16898105
In      20.40353621       7.19991510       2.30698543
P       20.49670715       9.76541572       2.17217933
In       8.44204666      -9.78294967       2.08053637
P        8.53727936      -7.21660173       1.97008288
In      12.02310498      -9.81596475       4.07506118
P       12.14046329      -7.26133467       3.89344629
In       7.35983299      -6.31118154       4.05854367
P        7.47171281      -3.74236281       4.02105683
In      10.95533821      -6.38077321       1.80098031
P       11.11004559      -3.83673413       1.53192173
In       2.53786463      -2.99357702       4.16492640
P        2.36181369      -0.44069448       0.06843003
In      13.36706165      17.45400982       2.10915460
P       27.67211726      -0.43737904       2.21738036
In       1.16123599       0.42173645       2.16014290
P       15.52104944     -17.46641198       2.18718908
In       4.74865483       0.44214464       0.06573487
P        4.67291752       3.00035553       0.11515710
In      14.29844233     -16.63124842       4.27457799
P       14.33314269     -14.07753724       4.21114785
In       3.46713797       3.84529047       2.19638814
P       17.95693811     -14.04186002       2.11865324
In      16.74180754     -13.21065235       4.19676299
P       16.82684065     -10.66113160       4.04846122
In      13.11667199     -13.24249862       2.12209216
P       13.21325586     -10.68515015       1.99423049
In      15.62241162      -9.81631149       1.95192851
P       15.73920511      -7.26843882       1.73661036
In      19.23511409      -9.79390612       4.07209428
P       19.34329771      -7.25572662       3.84498787
In      14.55265432      -6.39967798       3.80971283
P       14.71959517      -3.85850886       3.50681906
In      18.14846418      -6.40373804       1.74052639
P       18.29271771      -3.86791913       1.42409180
96
Lattice="14.45404925834546 20.441112492360922 0.0 14.45404925834546 -20.441112492360922 0.0 -2.220446049250313e-16 0.0 4.1725246150929305" Properties=species:S:1:pos:R:3 core_positions="_JSON [[7.227024629172732, 0.0, 2.0862623075464652], [21.68107388751819, 0.0, 2.0862623075464652]]" burgers_vectors="_JSON [[-0.9834734833333334, 1.9669469666666668, -0.9834734833333334], [0.9834734833333334, -1.9669469666666668, 0.9834734833333334]]" dislocation_types="_JSON [\"1/6<112> 30 degree partial\", \"1/6<112> 30 degree partial\"]" dislocation_classes="_JSON [\"<class 'matscipy.dislocation.DiamondGlide30degreePartial'>\", \"<class 'matscipy.dislocation.DiamondGlide30degreePartial'>\"]" energy=-406.93185668659305 pbc="T T T"
In       9.89982879      -2.94911943       3.63212442
P       10.30974490      -0.44681173       3.08019844
In       6.18910076      -2.96872732       1.95936608
P        5.95049766      -0.42334333       2.13108625
In       8.14768640       0.70519712       2.57943206
P        8.26507456       3.19003167       2.32838461
In      11.51695979       0.47378188       0.95459684
P       11.81475966       3.00105070       0.50256453
In       7.03799983       3.97010170       0.22401786
P        7.13281443       6.51029228       0.10367749
In      10.69258048       3.94914287       2.56116954
P       10.78005395       6.48341461       2.31699868
In       9.56407479       7.30901356       0.21271785
P        9.65343841       9.84674896       0.02274087
In       5.90468664       7.30407254       2.17670407
P       20.45722042     -10.59871079       2.01821527
In       8.43007574      10.65871299       2.09393708
P       22.97333148      -7.24509954       1.89994114
In      12.07637762      10.67257553       0.09654813
P       12.14444774      13.21829980      -0.02950644
In      21.75691756      -6.42366422       3.96809610
P       21.86051371      -3.89685188       3.67602677
In      10.92947599      14.04497167       2.04632767
P       25.42213638      -3.84737878       2.02117343
In      17.12473328      -2.96233822       3.53203593
P       17.45050842      -0.43943363       3.10996104
In      13.53055782      -2.96920428       1.44065116
P       13.88004653      -0.44319794       1.03824180
In      15.07969698       0.46200130       3.09206676
P       15.39777436       2.98615361       2.68465716
In      18.68376506       0.43537198       0.99113024
P       19.01579603       2.95228051       0.57290772
In      14.22368991       3.87192460       0.57961370
P       14.38126493       6.41529697       0.31194272
In      17.82710411       3.83218200       2.64894870
P       17.98088704       6.37738401       2.39350836
In      16.80021955       7.25732236       0.29808165
P       16.90191945       9.81056278       0.12925323
In      13.20330748       7.29404328       2.38318776
P       13.28721467       9.83717291       2.19462369
In      15.70695618      10.67217871       2.20869047
P       15.77177307      13.22417937       2.11045442
In      19.31771356      10.66509058       0.07664332
P       19.40362348      13.22750585      -0.01097248
In      14.55920022      14.06407123       0.02047496
P       14.57142388      16.61682386       0.00946032
In      18.18983456      14.07013195       2.07636216
P        3.76496900      -3.81678841       2.05932898
In      24.22064860      -2.99487465       4.10106169
P       24.08612424      -0.48173452       4.51097991
In      20.68801279      -2.98080194       1.55552605
P       20.99353510      -0.56365349       0.74797526
In      22.61421369       0.30222516       2.54846917
P       22.68307445       2.86498864       2.45241139
In      26.45452692       0.41770800       4.28599937
P       26.34896157       2.96440351       0.16039626
In      21.47031391       3.73003525       0.37250782
P       21.57788145       6.30356857       0.21272344
In      25.09087033       3.75836001       2.25664448
P       10.71632728     -14.11440752       2.18471644
In       9.52353131     -13.24120207       4.27151584
P        9.61407937     -10.67453782       4.16505307
In      20.40528322       7.20650703       2.29664521
P       20.49432499       9.77211471       2.16570697
In       8.43920640      -9.77544678       2.07689477
P        8.53095978      -7.20919570       1.97205083
In      12.02194564      -9.80655272       4.07903635
P       12.13467663      -7.25148622       3.90931391
In       7.35305074      -6.30514499       4.06004878
P        7.46432629      -3.73647809       4.02013300
In      10.94897443      -6.37201122       1.81668551
P       11.10312686      -3.82772230       1.55229951
In       2.53289419      -2.98607560       4.15230819
P        2.36458231      -0.43260738       0.04642466
In      13.36273935      17.46411183       2.09741952
P       27.67581928      -0.42645130       2.19303062
In       1.16552651       0.43117953       2.13741666
P       15.52866420     -17.45679634       2.16600198
In       4.75177650       0.44923538       0.04982350
P        4.67960948       3.00766899       0.10104250
In      14.30728698     -16.62016670       4.25326387
P       14.33913765     -14.06650044       4.20025201
In       3.47493888       3.85366280       2.18199644
P       17.96298443     -14.03331726       2.11488803
In      16.74819737     -13.20172912       4.19323885
P       16.82764652     -10.65169099       4.06107730
In      13.12249404     -13.23168188       2.11147033
P       13.21330497     -10.67421397       1.99789705
In      15.62284727      -9.80735466       1.96503782
P       15.73420429      -7.25876740       1.76542151
In      19.23603676      -9.78631345       4.09106471
P       19.33881326      -7.24721505       3.88092515
In      14.54721917      -6.39071726       3.83879122
P       14.71356521      -3.84910796       3.54347749
In      18.14379594      -6.39586897       1.77737817
P       18.28688611      -3.85944354       1.47005466
96
Lattice="14.45404925834546 20.441112492360922 0.0 14.45404925834546 -20.441112492360922 0.0 -2.220446049250313e-16 0.0 4.1725246150929305" Properties=species:S:1:pos:R:3 core_positions="_JSON [[7.227024629172732, 0.0, 2.0862623075464652], [21.68107388751819, 0.0, 2.0862623075464652]]" burgers_vectors="_JSON [[-0.9834734833333334, 1.9669469666666668, -0.9834734833333334], [0.9834734833333334, -1.9669469666666668, 0.9834734833333334]]" dislocation_types="_JSON [\"1/6<112> 30 degree partial\", \"1/6<112> 30 degree partial\"]" dislocation_classes="_JSON [\"<class 'matscipy.dislocation.DiamondGlide30degreePartial'>\", \"<class 'matscipy.dislocation.DiamondGlide30degreePartial'>\"]" energy=-406.9333749167182 pbc="T T T"
In       9.90419859      -2.94668464       3.62949230
P       10.31087838      -0.44400777       3.07684494
In       6.19310024      -2.96474886       1.96132857
P        5.95050612      -0.41973057       2.13542488
In       8.14794137       0.70867570       2.58106601
P        8.26233681       3.19360565       2.33011250
In      11.51755307       0.47661594       0.95135923
P       11.81199334       3.00454167       0.50203661
In       7.03512391       3.97369118       0.22583528
P        7.12990064       6.51382746       0.10300364
In      10.68985204       3.95267545       2.56068475
P       10.77758046       6.48681913       2.31515608
In       9.56135090       7.31229633       0.21068189
P        9.65281512       9.84973846       0.01613721
In       5.90173648       7.30775547       2.17598640
P       20.45652460     -10.59516227       2.01257197
In       8.42952804      10.66218912       2.08694049
P       22.97537810      -7.24189804       1.88697749
In      12.07617862      10.67461915       0.09310945
P       12.14723882      13.22008982      -0.03652145
In      21.75987991      -6.41854767       3.95460029
P       21.86521910      -3.89176259       3.65937537
In      10.93193650      14.04628373       2.03884211
P       25.42583499      -3.84617016       2.01761687
In      17.12910961      -2.95799661       3.51894826
P       17.45155765      -0.43384269       3.10475971
In      13.53489440      -2.96649412       1.43304318
P       13.88104328      -0.43985651       1.03296929
In      15.07991455       0.46583824       3.08707942
P       15.39453858       2.99104387       2.68504507
In      18.68112599       0.44383870       0.98629378
P       19.01114431       2.96144827       0.57943465
In      14.22037174       3.87634756       0.57993954
P       14.37935839       6.41968028       0.31264839
In      17.82259242       3.84058397       2.65511918
P       17.97891930       6.38541841       2.40018090
In      16.79771824       7.26415443       0.30432429
P       16.90280153       9.81682681       0.13197040
In      13.20087517       7.29749729       2.38361023
P       13.28762767       9.84026749       2.19165362
In      15.70707941      10.67696066       2.21094095
P       15.77486862      13.22861414       2.10970506
In      19.31911808      10.67100856       0.08359383
P       19.40730094      13.23306155      -0.00786091
In      14.56165542      14.06718166       0.01935019
P       14.57493439      16.61981908       0.01005995
In      18.19310219      14.07496013       2.07924902
P        3.76866634      -3.81213183       2.06206355
In      24.22453355      -2.99155286       4.09753950
P       24.08450857      -0.48423894       4.54334867
In      20.69308440      -2.97666217       1.53742335
P       20.99685195      -0.54783908       0.76439033
In      22.59834428       0.30447926       2.59168152
P       22.67754221       2.86709715       2.47589896
In      26.45002876       0.41700903       4.29617030
P       26.34436950       2.96375618       0.17692017
In      21.46720426       3.73637448       0.39484533
P       21.57631737       6.30950137       0.22695882
In      25.08606533       3.75783182       2.27404785
P       10.71430053     -14.11445540       2.19784487
In       9.52318043     -13.23866623       4.28460077
P        9.61598453     -10.67201438       4.17233313
In      20.40415331       7.21320048       2.31027693
P       20.49587821       9.77829328       2.17308300
In       8.44182570      -9.77171442       2.08398490
P        8.53522775      -7.20556777       1.97493254
In      12.02394706      -9.80429959       4.08269231
P       12.13900486      -7.24932444       3.90860000
In       7.35745302      -6.30105148       4.06286358
P        7.46868095      -3.73240007       4.02183397
In      10.95353198      -6.36943694       1.81603798
P       11.10774021      -3.82525204       1.54947452
In       2.53613460      -2.98209577       4.15510016
P        2.36424430      -0.42898722       0.05300896
In      13.36580737      17.46631719       2.09808719
P       27.67432626      -0.42479382       2.20272693
In       1.16388505       0.43355353       2.14434587
P       15.52507281     -17.45465293       2.17591001
In       4.75152409       0.45283513       0.05433619
P        4.67669098       3.01112866       0.10602735
In      14.30242019     -16.61958180       4.26361108
P       14.33651446     -14.06572988       4.20845727
In       3.47134030       3.85648543       2.18718034
P       17.96011333     -14.03048093       2.11787729
In      16.74518377     -13.19913371       4.19632369
P       16.82784721     -10.64906780       4.05967121
In      13.12012228     -13.23067564       2.11985181
P       13.21444356     -10.67306251       2.00155102
In      15.62350073      -9.80429928       1.96364991
P       15.73797773      -7.25579639       1.75929829
In      19.23589195      -9.78187616       4.08526391
P       19.34173712      -7.24293749       3.86941858
In      14.55124554      -6.38751922       3.83276135
P       14.71829875      -3.84594163       3.53558405
In      18.14713902      -6.39098802       1.76573888
P       18.29149077      -3.85446097       1.45659705
96
Lattice="14.45404925834546 20.441112492360922 0.0 14.45404925834546 -20.441112492360922 0.0 -2.220446049250313e-16 0.0 4.1725246150929305" Properties=species:S:1:pos:R:3 core_positions="_JSON [[7.227024629172732, 0.0, 2.0862623075464652], [21.68107388751819, 0.0, 2.0862623075464652]]" burgers_vectors="_JSON [[-0.9834734833333334, 1.9669469666666668, -0.9834734833333334], [0.9834734833333334, -1.9669469666666668, 0.9834734833333334]]" dislocation_types="_JSON [\"1/6<112> 30 degree partial\", \"1/6<112> 30 degree partial\"]" dislocation_classes="_JSON [\"<class 'matscipy.dislocation.DiamondGlide30degreePartial'>\", \"<class 'matscipy.dislocation.DiamondGlide30degreePartial'>\"]" energy=-406.92107250896635 pbc="T T T"
In       9.91507487      -2.94450266       3.63007623
P       10.31349556      -0.44115477       3.08055989
In       6.20373179      -2.95771730       1.95794884
P        5.95584962      -0.41363399       2.13287401
In       8.15140480       0.71343210       2.58500108
P        8.25716797       3.19817922       2.33377929
In      11.51874462       0.47840990       0.95575416
P       11.80577670       3.00645067       0.50678060
In       7.02976922       3.97801429       0.22938292
P        7.12221630       6.51756698       0.10357033
In      10.68442882       3.95482015       2.56512877
P       10.77187272       6.48781866       2.31436667
In       9.55478931       7.31176014       0.20938838
P        9.65052790       9.84792659       0.00427463
In       5.89383330       7.31113948       2.17651431
P       20.45255454     -10.59229258       2.00656206
In       8.42707936      10.66057585       2.07457432
P       22.97893963      -7.24420319       1.86155132
In      12.07584267      10.66763604       0.08062765
P       12.15531251      13.21175616      -0.07189954
In      21.76681854      -6.41523885       3.92902360
P       21.87494832      -3.88682612       3.63130629
In      10.93879323      14.03577714       2.00183762
P       25.43907598      -3.85631036       1.95878167
In      17.14095345      -2.95158670       3.51501794
P       17.45218934      -0.42362311       3.12373242
In      13.54561766      -2.96488069       1.43372403
P       13.88235509      -0.43678882       1.04182352
In      15.07841159       0.47034293       3.09711103
P       15.38599503       2.99673708       2.69742821
In      18.67160256       0.46341405       1.00635077
P       18.99728664       2.98241800       0.60986518
In      14.21206044       3.88061289       0.59159119
P       14.37510885       6.42284962       0.31789285
In      17.80902585       3.85962281       2.68422299
P       17.97233543       6.40312061       2.41989152
In      16.78995927       7.27805768       0.32255712
P       16.90377328       9.82870161       0.13248178
In      13.19532569       7.29702686       2.38786224
P       13.28943725       9.83796930       2.18047148
In      15.70615348      10.68396183       2.20976605
P       15.78175606      13.23417738       2.08789843
In      19.31909727      10.68758065       0.09550043
P       19.41417542      13.24749833      -0.01236839
In      14.56686750      14.06845311      -0.00452107
P       14.58584318      16.62098348      -0.03051594
In      18.19869804      14.08569919       2.07330815
P        3.77813081      -3.80239862       2.04654700
In      24.24039570      -2.98997035       4.03694452
P       24.08874381      -0.50247688       4.59447700
In      20.70904272      -2.96934356       1.50983936
P       21.00180816      -0.50951625       0.83523620
In      22.54499211       0.32577884       2.71337780
P       22.65969465       2.88547213       2.53854412
In      26.44218498       0.40785740       4.26371316
P       26.33299545       2.95546119       0.20018406
In      21.45267153       3.76360371       0.45570878
P       21.56922278       6.33375113       0.26245818
In      25.07500366       3.75461659       2.30213435
P       10.70850666     -14.11608336       2.22468739
In       9.52234985     -13.23199947       4.31194807
P        9.61964138     -10.66565873       4.18710259
In      20.39653489       7.23607829       2.34438060
P       20.49717050       9.79837348       2.18639028
In       8.44737029      -9.76263542       2.09823078
P        8.54445882      -7.19756499       1.97811284
In      12.02824609      -9.80077415       4.09235694
P       12.14875208      -7.24631135       3.91157514
In       7.36699490      -6.29315595       4.06534471
P        7.47863535      -3.72533743       4.01917733
In      10.96405720      -6.36601649       1.81897673
P       11.11861538      -3.82250878       1.55020825
In       2.54512797      -2.97461922       4.13821690
P        2.36997883      -0.42218658       0.04112041
In      13.37570634      17.46542349       2.05563157
P       27.67835812      -0.42577969       2.17110617
In       1.16730039       0.43790857       2.13228579
P       15.51767656     -17.45137207       2.18598247
In       4.75718526       0.45956710       0.05183959
P        4.67125775       3.01702011       0.11108395
In      14.28985770     -16.62195248       4.27510228
P       14.32868253     -14.06723800       4.22382782
In       3.46411595       3.86067338       2.19266852
P       17.95196577     -14.02658833       2.12405721
In      16.73637573     -13.19658376       4.20287151
P       16.82607483     -10.64641247       4.06149285
In      13.11353796     -13.23079428       2.13593774
P       13.21584780     -10.67273005       2.01116480
In      15.62367454      -9.80003614       1.96570018
P       15.74655578      -7.25159988       1.75707074
In      19.23357996      -9.77674313       4.07927800
P       19.34709484      -7.23780860       3.85775389
In      14.56058794      -6.38334127       3.83093209
P       14.73063126      -3.84184917       3.53579127
In      18.15491168      -6.38278828       1.75451748
P       18.30491795      -3.84511589       1.45087952
96
Lattice="14.45404925834546 20.441112492360922 0.0 14.45404925834546 -20.441112492360922 0.0 -2.220446049250313e-16 0.0 4.1725246150929305" Properties=species:S:1:pos:R:3 core_positions="_JSON [[7.227024629172732, 0.0, 2.0862623075464652], [21.68107388751819, 0.0, 2.0862623075464652]]" burgers_vectors="_JSON [[-0.9834734833333334, 1.9669469666666668, -0.9834734833333334], [0.9834734833333334, -1.9669469666666668, 0.9834734833333334]]" dislocation_types="_JSON [\"1/6<112> 30 degree partial\", \"1/6<112> 30 degree partial\"]" dislocation_classes="_JSON [\"<class 'matscipy.dislocation.DiamondGlide30degreePartial'>\", \"<class 'matscipy.dislocation.DiamondGlide30degreePartial'>\"]" energy=-406.86962504331564 pbc="T T T"
In       9.91781988      -2.94594144       3.63175807
P       10.31446269      -0.44318877       3.08357061
In       6.20891893      -2.95779822       1.95693914
P        5.96393753      -0.41402385       2.13085487
In       8.15575586       0.71453129       2.58688866
P        8.25656222       3.19863025       2.33463809
In      11.51672814       0.47703075       0.95889889
P       11.80210090       3.00412600       0.50840002
In       7.03052395       3.97891387       0.23028076
P        7.11998469       6.51747025       0.10422030
In      10.68300085       3.95316040       2.56682020
P       10.77030106       6.48477032       2.31495309
In       9.55309277       7.30674699       0.21002480
P        9.64923048       9.84138192       0.00317609
In       5.89195479       7.31033923       2.17723267
P       20.44879729     -10.59395427       2.00692227
In       8.42474139      10.65191150       2.07352804
P       22.97728395      -7.25415252       1.85641979
In      12.07726284      10.65161523       0.07771196
P       12.16381766      13.19305261      -0.09000015
In      21.76582076      -6.42371242       3.92396961
P       21.87439721      -3.89405550       3.62236053
In      10.94352918      14.00751298       1.98264453
P       25.45763492      -3.88658785       1.87989435
In      17.14399617      -2.95304619       3.52107809
P       17.44489077      -0.42310217       3.14057357
In      13.54727339      -2.96739525       1.43742446
P       13.87873203      -0.43921411       1.04820109
In      15.07135235       0.46938204       3.10410448
P       15.37880855       2.99542996       2.70185160
In      18.65350027       0.47351042       1.02299987
P       18.98464003       2.99285985       0.62253030
In      14.20672687       3.87884977       0.59578726
P       14.37401556       6.41959684       0.31977965
In      17.79763774       3.86824533       2.69584363
P       17.96786731       6.41060223       2.42591738
In      16.78560561       7.28243934       0.32806117
P       16.90419597       9.83158781       0.13242379
In      13.19410941       7.29015435       2.38969753
P       13.29301478       9.82896790       2.17768671
In      15.70645067      10.68352838       2.20930495
P       15.78565279      13.23252500       2.07905944
In      19.31726840      10.69538602       0.09845864
P       19.41615673      13.25314947      -0.01400943
In      14.57069124      14.06396892      -0.01433325
P       14.59533632      16.61626321      -0.05929150
In      18.20055923      14.08807465       2.07124615
P        3.78363512      -3.80115098       2.03998144
In      24.25762614      -3.01597529       3.94870539
P       24.12193099      -0.54231657       4.53893133
In      20.71849332      -2.96912050       1.50302167
P       20.99823982      -0.47830203       0.92327493
In      22.43853381       0.36959646       2.84908123
P       22.64208530       2.91499365       2.57492419
In      26.45915068       0.40255829       4.20280557
P       26.33217125       2.95048970       0.20778314
In      21.43445533       3.79489383       0.48944073
P       21.56449040       6.35813657       0.27534831
In      25.07121466       3.75150366       2.31473016
P       10.70733981     -14.11841235       2.23319894
In       9.52497573     -13.22827907       4.32054543
P        9.62133492     -10.66250211       4.19040199
In      20.38881256       7.25257911       2.35645639
P       20.49661089       9.81153716       2.18972637
In       8.44989777      -9.75919376       2.10134199
P        8.54679950      -7.19528632       1.97879841
In      12.02967264      -9.79949949       4.09460455
P       12.15028724      -7.24575009       3.91291017
In       7.36990167      -6.29194848       4.06584740
P        7.48212833      -3.72522620       4.01865503
In      10.96628905      -6.36601454       1.82032160
P       11.12058235      -3.82338013       1.55192610
In       2.55218740      -2.97396743       4.13080550
P        2.38512579      -0.42114427       0.03187351
In      13.38568044      17.45997008       2.02427861
P       27.70256144      -0.42800746       2.11720928
In       1.18832971       0.44393426       2.12232641
P       15.51991785     -17.44679202       2.18911778
In       4.76987704       0.46274389       0.05007231
P        4.67283472       3.01935071       0.11239347
In      14.28819052     -16.62067295       4.27883235
P       14.32657007     -14.06609552       4.22802441
In       3.46628819       3.86378319       2.19414794
P       17.94992360     -14.02439690       2.12567681
In      16.73409017     -13.19560478       4.20460270
P       16.82335434     -10.64588958       4.06267678
In      13.11113018     -13.23075286       2.14034546
P       13.21538504     -10.67264874       2.01343674
In      15.62237479      -9.79885409       1.96694563
P       15.74720881      -7.25067242       1.75854185
In      19.23068181      -9.77786755       4.07972430
P       19.34421725      -7.23922847       3.85828883
In      14.56166727      -6.38327724       3.83257154
P       14.73327707      -3.84240993       3.53942594
In      18.15504364      -6.38036078       1.75521511
P       18.31128843      -3.84209260       1.45587600
96