96
Lattice="14.45404925834546 20.441112492360922 0.0 14.45404925834546 -20.441112492360922 0.0 -2.220446049250313e-16 0.0 4.1725246150929305" Properties=species:S:1:pos:R:3 core_positions="_JSON [[7.227024629172732, 0.0, 2.0862623075464652], [21.68107388751819, 0.0, 2.0862623075464652]]" burgers_vectors="_JSON [[-0.9834734833333334, -0.9834734833333334, 1.9669469666666668], [0.9834734833333334, 0.9834734833333334, -1.9669469666666668]]" dislocation_types="_JSON [\"1/6<112> 90 degree partial\", \"1/6<112> 90 degree partial\"]" dislocation_classes="_JSON [\"<class 'matscipy.dislocation.DiamondGlide90degreePartial'>\", \"<class 'matscipy.dislocation.DiamondGlide90degreePartial'>\"]" energy=-406.63202008971484 pbc="T T T"
In       9.16426139      -3.04983622       0.00000000
P        8.38625568      -0.62273404      -0.00000000
In       5.73175436      -3.02757511       2.08626231
P        6.23499956      -0.54097025       2.08626231
In       9.53288832       0.32066500       2.08626230
P        8.93106576       2.83743498       2.08626231
In      13.19657954       0.41868418       0.00000000
P       12.56947390       2.92933253       0.00000000
In       7.63065581       3.63725465       0.00000000
P        7.42451906       6.22860086       0.00000000
In      11.30989102       3.77395825       2.08626231
P       11.01106207       6.32764661       2.08626231
In       9.78485108       7.19359900       0.00000000
P        9.59098658       9.77016926       0.00000000
In       6.23807357       7.15652572       2.08626231
P       20.50022183     -10.70157267       2.08626231
In       8.40669638      10.69490351       2.08626231
P       22.68028354      -7.16657587       2.08626231
In      11.97510575      10.66422808       0.00000000
P       11.83417815      13.22868455       0.00000000
In      21.48810612      -6.23278756       0.00000000
P       21.31483916      -3.65152926       0.00000000
In      10.63351853      14.11749932       2.08626231
P       25.02516452      -3.76117788       2.08626231
In      16.31703048      -2.95586526       0.00000000
P       15.67697272      -0.44567396       0.00000000
In      12.70638864      -2.97725493       2.08626231
P       12.04003907      -0.47832504       2.08626231
In      16.82750236       0.45935179       2.08626231
P       16.15656818       2.96493690       2.08626231
In      20.36737398       0.63426218       0.00000000
P       19.68293613       3.10613881       0.00000000
In      14.93858512       3.84068109       0.00000000
P       14.61740771       6.38331593       0.00000000
In      18.48671990       3.94292194       2.08626231
P       18.22824557       6.47944057       2.08626231
In      16.99057117       7.28743693       0.00000000
P       16.79554231       9.82742518       0.00000000
In      13.38972398       7.23350890       2.08626231
P       13.18362021       9.79045835       2.08626231
In      15.57354324      10.66516610       2.08626231
P       15.43778740      13.21591024       2.08626231
In      19.20598565      10.63984853       0.00000000
P       19.04124124      13.17470337       0.00000000
In      14.23747680      14.08253334       0.00000000
P       14.21435381      16.63945025       0.00000000
In      17.84625093      14.03968409       2.08626231
P        3.32855107      -3.84956447       2.08626231
In      23.78822775      -2.90419234       0.00000000
P       24.03503596      -0.36093722       0.00000000
In      19.99191986      -2.88005237       2.08626231
P       19.30312217      -0.38665644       2.08626231
In      22.84355882       0.56971598       2.08626231
P       23.17678888       3.11273921       2.08626231
In      26.48700807       0.42786708       0.00000000
P       12.29842959     -17.46475090       0.00000000
In      22.03724196       4.03445311       0.00000000
P       21.87526779       6.55870413       0.00000000
In      25.59497369       3.86837581       2.08626231
P       11.06790525     -14.01917969       2.08626231
In       9.86560885     -13.16493797       0.00000000
P        9.69376609     -10.63178634       0.00000000
In      20.62368671       7.32890573       2.08626231
P       20.45720565       9.85671110       2.08626231
In       8.44570487      -9.84629642       2.08626231
P        8.26253347      -7.31679384       2.08626231
In      12.10678516      -9.81346941       0.00000000
P       11.88900080      -7.27235277       0.00000000
In       7.02163941      -6.54120315       0.00000000
P        6.81807182      -4.01770375       0.00000000
In      10.65658180      -6.45557953       2.08626231
P       10.35706103      -3.92157965       2.08626231
In      16.62729403      17.48519500       0.00000000
P        2.50024913      -0.42291231       0.00000000
In      13.00835528      17.49448559       2.08626231
P       27.71873781      -0.40246232       2.08626231
In       1.26932795       0.40542485       2.08626231
P       15.92889001     -17.48767076       2.08626231
In       4.99030290       0.31263210       0.00000001
P        5.15644369       2.87404461       0.00000000
In      14.72321403     -16.63499681       0.00000000
P       14.67826153     -14.07603888       0.00000000
In       3.92785659       3.73612393       2.08626231
P       18.28414623     -14.13566561       2.08626231
In      17.09108484     -13.23889734       0.00000000
P       16.93127081     -10.67260842       0.00000000
In      13.48194941     -13.20466243       2.08626231
P       13.32660863     -10.65453742       2.08626231
In      15.72601503      -9.79429425       2.08626231
P       15.50433053      -7.23874283       2.08626231
In      19.31934548      -9.77583521       0.00000000
P       19.12169466      -7.20161942       0.00000000
In      14.27581019      -6.38866670       0.00000000
P       13.93314354      -3.84750094       0.00000000
In      17.89177710      -6.34243562       2.08626231
P       17.58964461      -3.79327768       2.08626231
96
Lattice="14.45404925834546 20.441112492360922 0.0 14.45404925834546 -20.441112492360922 0.0 -2.220446049250313e-16 0.0 4.1725246150929305" Properties=species:S:1:pos:R:3 core_positions="_JSON [[7.227024629172732, 0.0, 2.0862623075464652], [21.68107388751819, 0.0, 2.0862623075464652]]" burgers_vectors="_JSON [[-0.9834734833333334, -0.9834734833333334, 1.9669469666666668], [0.9834734833333334, 0.9834734833333334, -1.9669469666666668]]" dislocation_types="_JSON [\"1/6<112> 90 degree partial\", \"1/6<112> 90 degree partial\"]" dislocation_classes="_JSON [\"<class 'matscipy.dislocation.DiamondGlide90degreePartial'>\", \"<class 'matscipy.dislocation.DiamondGlide90degreePartial'>\"]" energy=-406.629248340293 pbc="T T T"
In       9.17974714      -3.06399690       0.00002537
P        8.40004002      -0.63850785       0.00014349
In       5.73598916      -3.02945947       2.08623261
P        6.23350300      -0.54321597       2.08610719
In       9.55635835       0.29241480       2.08637195
P        8.93811619       2.80574874       2.08627759
In      13.22695517       0.38983553       0.00001820
P       12.58253314       2.89742876       0.00000878
In       7.63044723       3.59621501       0.00000832
P        7.42479766       6.18683029       0.00000126
In      11.31967718       3.73795514       2.08627062
P       11.01643722       6.29037677       2.08626471
In       9.78647412       7.15004961       0.00000205
P        9.59637530       9.72671022       0.00000160
In       6.23607625       7.11196169       2.08626288
P       20.50223153     -10.74627076       2.08626287
In       8.41014119      10.64777965       2.08626391
P       22.68739715      -7.21311789       2.08626596
In      11.97727783      10.63109987       0.00000147
P       11.83847887      13.19621159       0.00000089
In      21.49565972      -6.27986400       0.00000402
P       21.32430840      -3.69719166       0.00001105
In      10.63658875      14.08289174       2.08626329
P       25.02427059      -3.79432803       2.08625974
In      16.34089191      -2.98776426       0.00000657
P       15.70738403      -0.47587589       0.00001549
In      12.72904110      -3.00222340       2.08627009
P       12.06678335      -0.50316331       2.08628433
In      16.85635661       0.43112820       2.08627816
P       16.16640739       2.93444654       2.08627092
In      20.38085635       0.61416690       0.00004519
P       19.68377331       3.08358114       0.00001158
In      14.94990090       3.81316590       0.00000795
P       14.62108247       6.35548285       0.00000339
In      18.49048758       3.92449264       2.08627281
P       18.22502064       6.46132411       2.08626616
In      16.98929063       7.27144750       0.00000361
P       16.79456978       9.81213256       0.00000052
In      13.39253540       7.20398408       2.08626539
P       13.18782412       9.76133654       2.08626383
In      15.57321262      10.64924506       2.08626270
P       15.44110109      13.20050421       2.08626008
In      19.19956823      10.63903826      -0.00000082
P       19.04131297      13.17419222      -0.00000364
In      14.23782107      14.06225258      -0.00000233
P       14.21146311      16.61960324      -0.00000739
In      17.84572043      14.03729339       2.08625839
P        3.33137384      -3.85254577       2.08624999
In      23.79037801      -2.93382555      -0.00000248
P       24.02295429      -0.38664980      -0.00002646
In      20.00858094      -2.91730134       2.08627530
P       19.33018780      -0.41970772       2.08630499
In      22.84569476       0.56046143       2.08623312
P       23.16865226       3.10494197       2.08626248
In      26.47027241       0.41106692      -0.00001440
P       12.28148191     -17.48020446      -0.00000788
In      22.03038502       4.02901520       0.00000119
P       21.86374189       6.55346792       0.00000068
In      25.58483184       3.86206029       2.08625488
P       11.05358413     -14.02543127       2.08625863
In       9.85281621     -13.16814154      -0.00000337
P        9.68233326     -10.63502611      -0.00000237
In      20.61403283       7.32585856       2.08626322
P       20.44863254       9.85402418       2.08626149
In       8.43586689      -9.84680391       2.08626000
P        8.26101532      -7.31710512       2.08625793
In      12.09889805      -9.82735409      -0.00000183
P       11.89120846      -7.28628566       0.00000061
In       7.02122828      -6.53988739      -0.00000465
P        6.82611751      -4.01682596      -0.00002595
In      10.65990685      -6.46851935       2.08626315
P       10.37377033      -3.93427151       2.08628236
In      16.62217167      17.47294014      -0.00001225
P        2.48395020      -0.43469552      -0.00002740
In      13.00303550      17.47196244       2.08625485
P       27.69985466      -0.42295536       2.08624776
In       1.24842128       0.38830041       2.08623941
P       15.91124428     -17.50525618       2.08625084
In       4.97678823       0.29436316      -0.00011552
P        5.14723380       2.85398747      -0.00002060
In      14.70586176     -16.65173749      -0.00001042
P       14.66447953     -14.09300251      -0.00000466
In       3.91363638       3.70983517       2.08624545
P       18.27548954     -14.16329503       2.08625829
In      17.08145283     -13.26756722      -0.00000355
P       16.92710882     -10.70214921      -0.00000101
In      13.46975961     -13.21889119       2.08625795
P       13.31818158     -10.66937734       2.08626037
In      15.72261202      -9.82274935       2.08626137
P       15.50987864      -7.26739683       2.08626315
In      19.32106069      -9.82055503       0.00000052
P       19.12837012      -7.24589811       0.00000216
In      14.28321603      -6.41552486       0.00000097
P       13.95444586      -3.87331178       0.00000666
In      17.90162351      -6.38224590       2.08626454
P       17.60823159      -3.83138575       2.08626845
96
Lattice="14.45404925834546 20.441112492360922 0.0 14.45404925834546 -20.441112492360922 0.0 -2.220446049250313e-16 0.0 4.1725246150929305" Properties=species:S:1:pos:R:3 core_positions="_JSON [[7.227024629172732, 0.0, 2.0862623075464652], [21.68107388751819, 0.0, 2.0862623075464652]]" burgers_vectors="_JSON [[-0.9834734833333334, -0.9834734833333334, 1.9669469666666668], [0.9834734833333334, 0.9834734833333334, -1.9669469666666668]]" dislocation_types="_JSON [\"1/6<112> 90 degree partial\", \"1/6<112> 90 degree partial\"]" dislocation_classes="_JSON [\"<class 'matscipy.dislocation.DiamondGlide90degreePartial'>\", \"<class 'matscipy.dislocation.DiamondGlide90degreePartial'>\"]" energy=-406.6231511437868 pbc="T T T"
In       9.17290500      -3.04749561       0.00009389
P        8.40040447      -0.62069744       0.00052861
In       5.72292710      -3.01453555       2.08615271
P        6.22482419      -0.52981311       2.08569173
In       9.56740812       0.29883574       2.08666580
P        8.95553407       2.81236454       2.08631790
In      13.24870246       0.39472772       0.00005546
P       12.60746342       2.90222011       0.00002648
In       7.64232947       3.59457352       0.00003016
P        7.43969652       6.18484558       0.00000423
In      11.34116871       3.73828822       2.08628818
P       11.03490531       6.28984317       2.08626907
In       9.80267006       7.14610071       0.00000576
P        9.60731270       9.72232890       0.00000441
In       6.24970358       7.10812056       2.08626406
P       20.51106832     -10.75061417       2.08626354
In       8.41963761      10.64096487       2.08626664
P       22.68904064      -7.22050695       2.08627018
In      11.98562054      10.63321447       0.00000559
P       11.83608744      13.19876785       0.00001009
In      21.49625164      -6.28971815       0.00000798
P       21.32072638      -3.70672020       0.00000810
In      10.63402301      14.08626962       2.08627354
P       25.01123107      -3.78991307       2.08629154
In      16.34514374      -2.98379361       0.00001058
P       15.73052468      -0.46936585       0.00001146
In      12.72972867      -2.99097969       2.08628812
P       12.08067635      -0.49065146       2.08633320
In      16.88706895       0.43065858       2.08627140
P       16.19531325       2.93402775       2.08627594
In      20.41384805       0.61647145      -0.00004431
P       19.71278238       3.08551502       0.00001384
In      14.97779617       3.81259637       0.00001394
P       14.63944295       6.35449281       0.00000777
In      18.51892666       3.92503660       2.08627774
P       18.24103981       6.46209385       2.08627106
In      17.00579418       7.27372981       0.00000840
P       16.79847441       9.81494763       0.00000156
In      13.41085665       7.20434289       2.08626971
P       13.19577393       9.76185853       2.08626779
In      15.57840314      10.65518297       2.08626361
P       15.43526975      13.20717501       2.08625774
In      19.19752492      10.65601113      -0.00000195
P       19.03359429      13.19078435      -0.00001199
In      14.23247906      14.07122661      -0.00000450
P       14.19588031      16.62923693      -0.00001135
In      17.83654302      14.05176393       2.08624936
P        3.31793986      -3.83837664       2.08622026
In      23.77957387      -2.92668275       0.00003247
P       24.01568119      -0.37576569       0.00009891
In      20.00990014      -2.92187400       2.08626774
P       19.36039596      -0.41842602       2.08622250
In      22.86700215       0.60027102       2.08637145
P       23.18996465       3.14297758       2.08628840
In      26.45902878       0.42955478      -0.00000857
P       12.28906780     -17.46148500      -0.00001239
In      22.04694368       4.06014560       0.00002523
P       21.87486858       6.58349292       0.00000677
In      25.60613275       3.89727167       2.08625147
P       11.06674533     -13.99136664       2.08625349
In       9.86380786     -13.13636471      -0.00000803
P        9.68446586     -10.60470227      -0.00000706
In      20.62121557       7.34793753       2.08626895
P       20.44868484       9.87528124       2.08626056
In       8.43475915      -9.82131535       2.08625539
P        8.25498748      -7.29260624       2.08624705
In      12.10369253      -9.80464872      -0.00000577
P       11.88822857      -7.26464049       0.00000288
In       7.01249770      -6.51982905      -0.00001624
P        6.81732260      -3.99749981      -0.00009567
In      10.65558723      -6.44802427       2.08626608
P       10.37020098      -3.91427024       2.08633666
In      16.60578431      17.48425327      -0.00004136
P        2.46840562      -0.42374733      -0.00009438
In      12.98706288      17.48270388       2.08625261
P       27.68315493      -0.41128124       2.08624907
In       1.23186946       0.39801276       2.08618556
P       15.91512157     -17.49665706       2.08622410
In       4.96365743       0.30121296      -0.00042600
P        5.15466669       2.85920984      -0.00007580
In      14.71420488     -16.63797273      -0.00003407
P       14.67532355     -14.07866748      -0.00001527
In       3.91995637       3.71275264       2.08620023
P       18.28684075     -14.16054405       2.08624787
In      17.09450894     -13.26228345      -0.00001262
P       16.93326514     -10.69709619      -0.00000360
In      13.48599636     -13.19619347       2.08624816
P       13.32343206     -10.64773433       2.08625614
In      15.73115658      -9.81274319       2.08625902
P       15.50901252      -7.25818781       2.08626471
In      19.32958035      -9.82451467       0.00000101
P       19.12793545      -7.25043860       0.00000431
In      14.28353197      -6.40340569       0.00000289
P       13.95561277      -3.86133281       0.00002175
In      17.90339800      -6.38255145       2.08626667
P       17.60934166      -3.83126270       2.08627246
96
Lattice="14.45404925834546 20.441112492360922 0.0 14.45404925834546 -20.441112492360922 0.0 -2.220446049250313e-16 0.0 4.1725246150929305" Properties=species:S:1:pos:R:3 core_positions="_JSON [[7.227024629172732, 0.0, 2.0862623075464652], [21.68107388751819, 0.0, 2.0862623075464652]]" burgers_vectors="_JSON [[-0.9834734833333334, -0.9834734833333334, 1.9669469666666668], [0.9834734833333334, 0.9834734833333334, -1.9669469666666668]]" dislocation_types="_JSON [\"1/6<112> 90 degree partial\", \"1/6<112> 90 degree partial\"]" dislocation_classes="_JSON [\"<class 'matscipy.dislocation.DiamondGlide90degreePartial'>\", \"<class 'matscipy.dislocation.DiamondGlide90degreePartial'>\"]" energy=-406.593544131362 pbc="T T T"
In       9.16761772      -3.03012259       0.00019343
P        8.40067941      -0.60215029       0.00108496
In       5.71097486      -2.99896171       2.08603452
P        6.20956862      -0.51426244       2.08509230
In       9.57798725       0.30685220       2.08709166
P        8.97140774       2.82106911       2.08637701
In      13.27499235       0.40324850       0.00011439
P       12.63333755       2.91026394       0.00005458
In       7.65161456       3.59480733       0.00006210
P        7.45314791       6.18524229       0.00000868
In      11.36172454       3.74091296       2.08631564
P       11.05222193       6.29189467       2.08627587
In       9.81765960       7.14474737       0.00001148
P        9.62049300       9.72042233       0.00000862
In       6.26168506       7.10651637       2.08626587
P       20.51956175     -10.75287739       2.08626463
In       8.43006176      10.63371425       2.08627076
P       22.69347337      -7.22990062       2.08627850
In      11.99628777      10.63891102       0.00001103
P       11.83817420      13.20485391       0.00002121
In      21.49467466      -6.30994669       0.00001647
P       21.30724680      -3.72831084       0.00001905
In      10.63406649      14.09030590       2.08628611
P       24.99269952      -3.78613209       2.08632789
In      16.34753468      -2.97282675       0.00002159
P       15.76253217      -0.45537529       0.00002543
In      12.73014583      -2.97527357       2.08631535
P       12.09668737      -0.47344563       2.08640903
In      16.93600940       0.42888244       2.08628282
P       16.22927060       2.93076789       2.08629102
In      20.48747724       0.60474015      -0.00008475
P       19.75240590       3.06798768       0.00003250
In      15.00944357       3.81043598       0.00002909
P       14.65636016       6.35197873       0.00001562
In      18.55831315       3.90949834       2.08629766
P       18.25466415       6.44772389       2.08628072
In      17.02308603       7.26823562       0.00001747
P       16.80157941       9.81160144       0.00000270
In      13.42878287       7.20617004       2.08627708
P       13.20508194       9.76442250       2.08627311
In      15.58579532      10.66107635       2.08626436
P       15.43205441      13.21501153       2.08625076
In      19.19158863      10.67346246      -0.00000396
P       19.02676338      13.20808707      -0.00002567
In      14.23142643      14.08520627      -0.00001162
P       14.17831262      16.64408895      -0.00003102
In      17.82940343      14.06841509       2.08623448
P        3.30479218      -3.82175950       2.08617094
In      23.75591242      -2.93154880       0.00007313
P       23.98288876      -0.37048591       0.00023011
In      20.00791283      -2.92884868       2.08627599
P       19.41277838      -0.41682926       2.08618752
In      22.92898176       0.68903611       2.08651201
P       23.22323780       3.22610498       2.08632091
In      26.41996008       0.44397943      -0.00003302
P       12.29458050     -17.44653469      -0.00002947
In      22.05596647       4.10854999       0.00005699
P       21.87976651       6.62816712       0.00001479
In      25.64618826       3.95138640       2.08623642
P       11.08444301     -13.94116681       2.08624383
In       9.87235928     -13.09857717      -0.00001659
P        9.68578260     -10.56951680      -0.00001395
In      20.61748149       7.37287632       2.08627676
P       20.44472709       9.89893124       2.08625883
In       8.43076715      -9.79572977       2.08624867
P        8.24999291      -7.26806950       2.08623118
In      12.10926086      -9.78106433      -0.00001132
P       11.88636244      -7.24224859       0.00000654
In       7.00505655      -6.50004327      -0.00003319
P        6.81012181      -3.97811295      -0.00019872
In      10.65240363      -6.42756568       2.08627071
P       10.36802173      -3.89395876       2.08641570
In      16.58858868      17.49836446      -0.00009026
P        2.44010324      -0.40958258      -0.00020363
In      12.96523537      17.49586413       2.08623446
P       27.64349804      -0.39714317       2.08621935
In       1.19568099       0.40432965       2.08609481
P       15.91563589     -17.49247216       2.08617944
In       4.94095036       0.30741962      -0.00087728
P        5.15919076       2.86397748      -0.00015767
In      14.72028388     -16.62881656      -0.00007421
P       14.68784968     -14.06751660      -0.00003196
In       3.92286814       3.71440035       2.08613230
P       18.29751209     -14.15855001       2.08623238
In      17.10762304     -13.25722458      -0.00002611
P       16.93853237     -10.69188893      -0.00000725
In      13.50977727     -13.16924961       2.08623286
P       13.33073541     -10.62290913       2.08625011
In      15.74109973      -9.79956030       2.08625574
P       15.50678226      -7.24598776       2.08626733
In      19.33649961      -9.82806304       0.00000186
P       19.12258415      -7.25535909       0.00000851
In      14.28354097      -6.38730797       0.00000605
P       13.95619003      -3.84505274       0.00004469
In      17.90279344      -6.37911889       2.08627093
P       17.60595741      -3.82725295       2.08628303
96
Lattice="14.45404925834546 20.441112492360922 0.0 14.45404925834546 -20.441112492360922 0.0 -2.220446049250313e-16 0.0 4.1725246150929305" Properties=species:S:1:pos:R:3 core_positions="_JSON [[7.227024629172732, 0.0, 2.0862623075464652], [21.68107388751819, 0.0, 2.0862623075464652]]" burgers_vectors="_JSON [[-0.9834734833333334, -0.9834734833333334, 1.9669469666666668], [0.9834734833333334, 0.9834734833333334, -1.9669469666666668]]" dislocation_types="_JSON [\"1/6<112> 90 degree partial\", \"1/6<112> 90 degree partial\"]" dislocation_classes="_JSON [\"<class 'matscipy.dislocation.DiamondGlide90degreePartial'>\", \"<class 'matscipy.dislocation.DiamondGlide90degreePartial'>\"]" energy=-406.49611281624954 pbc="T T T"
In       9.16505515      -3.02469953       0.00022113
P        8.39945927      -0.59631242       0.00123397
In       5.70445741      -2.99403890       2.08600094
P        6.19530237      -0.50821249       2.08493133
In       9.58181949       0.30786888       2.08720772
P        8.97718393       2.82278782       2.08639355
In      13.28983256       0.40566064       0.00013199
P       12.64648981       2.91255739       0.00006284
In       7.65317183       3.59199012       0.00007089
P        7.45738243       6.18280048       0.00000997
In      11.37043320       3.73958783       2.08632359
P       11.05914330       6.29054516       2.08627774
In       9.82299384       7.14129960       0.00001303
P        9.62708286       9.71656885       0.00000971
In       6.26483345       7.10274285       2.08626642
P       20.52225478     -10.75721767       2.08626491
In       8.43468165      10.62504526       2.08627184
P       22.69799953      -7.24133344       2.08628140
In      12.00131521      10.64051904       0.00001235
P       11.84086270      13.20684200       0.00002400
In      21.49057274      -6.33782915       0.00001958
P       21.28380275      -3.76120380       0.00002901
In      10.63569660      14.09025591       2.08628936
P       24.97915640      -3.78840086       2.08633711
In      16.34616700      -2.96626586       0.00002586
P       15.78453330      -0.44668766       0.00003775
In      12.72949739      -2.96935281       2.08632303
P       12.10484530      -0.46656686       2.08643150
In      16.97545201       0.42275556       2.08629520
P       16.25086890       2.92407095       2.08629737
In      20.57867255       0.56868417      -0.00004783
P       19.78110614       3.02422753       0.00004353
In      15.02769098       3.80505663       0.00003479
P       14.66382239       6.34686198       0.00001787
In      18.59008814       3.88122629       2.08630742
P       18.25991268       6.42230737       2.08628385
In      17.03311942       7.25636821       0.00002022
P       16.80214273       9.80254633       0.00000279
In      13.43651864       7.20455968       2.08627910
P       13.20913468       9.76367924       2.08627440
In      15.58965031      10.66070342       2.08626428
P       15.43029492      13.21679164       2.08624711
In      19.18593917      10.67868219      -0.00000459
P       19.02290610      13.21345822      -0.00003000
In      14.23186065      14.09344718      -0.00001556
P       14.16627740      16.65390953      -0.00004692
In      17.82575180      14.07449678       2.08622971
P        3.29700837      -3.81511954       2.08615393
In      23.72497787      -2.96564819       0.00008372
P       23.88959894      -0.39126266       0.00026800
In      20.00121125      -2.93743256       2.08628714
P       19.46275424      -0.41838028       2.08622589
In      23.06871516       0.80535785       2.08654633
P       23.25211478       3.32816085       2.08632678
In      26.34111267       0.43391287      -0.00007546
P       12.29104013     -17.45350039      -0.00003894
In      22.04352023       4.14002496       0.00006355
P       21.87382543       6.65550945       0.00001649
In      25.68875005       3.99408524       2.08622816
P       11.09501578     -13.90414680       2.08624086
In       9.87074754     -13.08024495      -0.00001903
P        9.68404415     -10.55314982      -0.00001565
In      20.60631629       7.38262497       2.08627856
P       20.43955380       9.90777834       2.08625827
In       8.42595646      -9.78660558       2.08624703
P        8.24711872      -7.25952327       2.08622684
In      12.11059200      -9.77308645      -0.00001261
P       11.88497074      -7.23491656       0.00000779
In       7.00116196      -6.49381464      -0.00003785
P        6.80641655      -3.97184423      -0.00022783
In      10.65058574      -6.42137520       2.08627222
P       10.36682515      -3.88765990       2.08643779
In      16.57804560      17.50516405      -0.00010753
P        2.41048218      -0.40200380      -0.00024358
In      12.94875681      17.50620740       2.08621803
P       27.58616234      -0.38666933       2.08617570
In       1.15056663       0.40009613       2.08606010
P       15.91051968     -17.49871137       2.08616439
In       4.91955441       0.30619108      -0.00100016
P        5.15771368       2.86222967      -0.00018097
In      14.71691866     -16.63430929      -0.00008788
P       14.69288095     -14.06956053      -0.00003666
In       3.91970651       3.71017893       2.08611246
P       18.30033495     -14.16209350       2.08622808
In      17.11171848     -13.25930957      -0.00002983
P       16.93868109     -10.69370816      -0.00000818
In      13.52578675     -13.15658941       2.08622865
P       13.33387018     -10.61239296       2.08624868
In      15.74516401      -9.79560964       2.08625492
P       15.50373244      -7.24276248       2.08626812
In      19.33722675      -9.83506421       0.00000207
P       19.11411948      -7.26428797       0.00000973
In      14.28242118      -6.38167993       0.00000700
P       13.95526505      -3.83904796       0.00005117
In      17.89970467      -6.37966612       2.08627219
P       17.59880120      -3.82720102       2.08628698
96