96
Lattice="14.596046887784448 20.641928609744234 0.0 14.596046887784448 -20.641928609744234 0.0 0.0 0.0 4.213516294524072" Properties=species:S:1:pos:R:3:x_err:R:1:y_err:R:1:z_err:R:1:total_err:R:1:forces:R:3 energy=-407.233378987158 free_energy=-407.233378987158 stress="0.0013600006452826549 -0.004986188530238781 0.0005392672627155497 -0.004986188530238781 0.00017332098511239352 0.00010124216083495557 0.0005392672627155497 0.00010124216083495557 0.002205269766145801" pbc="T T T"
P       10.40729703      -0.45021760       3.09529708       0.01621268      -0.00358450      -0.02066662       0.02651054       0.00066560       0.00001101       0.00033829
P        6.00340148      -0.42687579       2.17163336      -0.00342367      -0.00073425       0.01670521       0.01706824      -0.00049809      -0.00007335      -0.00019650
P        8.34076399       3.21864029       2.36927121      -0.00376811       0.00381860       0.01963705       0.02035667       0.00029872       0.00011293       0.00025706
P       11.92631748       3.03204248       0.51151885      -0.00282529       0.00036598       0.00960628       0.01001982      -0.00030662       0.00032201       0.00002731
P        7.20157740       6.56471052       0.11368685      -0.00460387       0.00228338       0.00700923       0.00869130       0.00011568      -0.00006295      -0.00011105
P       10.88330214       6.53870690       2.34472134      -0.00099157       0.00199616       0.00255100       0.00338755      -0.00009944      -0.00009454       0.00003341
P        9.74903095       9.93048478       0.02531411       0.00030064       0.00270586      -0.00136015       0.00304336      -0.00027325       0.00003079      -0.00003766
P       20.65923843     -10.71740656       2.03912329      -0.00286327       0.00084749       0.00010652       0.00298796      -0.00024395       0.00007727      -0.00003855
P       23.20163218      -7.33565173       1.92648287       0.00099017       0.00234465      -0.00599501       0.00651291      -0.00019878      -0.00003697       0.00000833
P       12.26263616      13.33699776      -0.03327050       0.00532745      -0.00222744      -0.00468207       0.00743404       0.00003053      -0.00015189       0.00002608
P       22.06849188      -3.96527881       3.77045617       0.00677955       0.00078768      -0.02983418       0.03060492      -0.00054625       0.00034833       0.00012148
P       25.66686872      -3.89667545       2.02236666       0.00579581      -0.00374127      -0.00344718       0.00771178       0.00030375       0.00004532       0.00001844
P       17.60480945      -0.45700247       3.17116870       0.01198734      -0.00257494      -0.03180773       0.03408897      -0.00042691       0.00024871       0.00022430
P       14.00702208      -0.45257236       1.04209241       0.01140915       0.00075782      -0.01423726       0.01826040      -0.00014502       0.00001771       0.00011366
P       15.54476127       3.00975384       2.70782151      -0.00238350       0.00222740       0.00836485       0.00897848       0.00029652       0.00056626      -0.00002467
P       19.20251430       2.96209456       0.57200513      -0.00272090       0.00463818       0.00267731       0.00600700      -0.00007642       0.00015160       0.00008197
P       14.51908845       6.47164087       0.31473831       0.00211192      -0.00113609       0.00289161       0.00375664       0.00001530      -0.00025645       0.00011980
P       18.15375230       6.42783778       2.41317424       0.00225875      -0.00091455       0.00156031       0.00289360       0.00022272       0.00004037       0.00009220
P       17.06401540       9.89670762       0.12937398       0.00411348      -0.00160009       0.00049347       0.00444124      -0.00009559       0.00013722       0.00003157
P       13.41557167       9.92358357       2.21607669       0.00365184      -0.00187379      -0.00184415       0.00449977       0.00017670       0.00012866      -0.00007081
P       15.92339147      13.34385627       2.12838088       0.00565582      -0.00165574       0.00061728       0.00592543      -0.00011129      -0.00009520      -0.00009660
P       19.58812511      13.35202847      -0.01249486       0.00443622       0.00093082       0.00214550       0.00501494       0.00004524       0.00049450       0.00011692
P       14.70930138      16.76942847      -0.00036862       0.00372446      -0.00126958       0.00550970       0.00677055      -0.00009920      -0.00001785       0.00014979
P        3.79451027      -3.86041094       2.07970021       0.00411864      -0.00014234       0.00676915       0.00792495       0.00023668      -0.00016930      -0.00005100
P       24.33993997      -0.48479234       4.40563539      -0.00842319      -0.00669259       0.01301060       0.01688243       0.00031852      -0.00021252       0.00007027
P       21.16135433      -0.63800932       0.82866158       0.01094855       0.00214490      -0.02695500       0.02917265       0.00011728      -0.00051403       0.00015902
P       22.92188918       2.91816166       2.42891576      -0.00758997      -0.00132939       0.00632291       0.00996766       0.00003384       0.00054474      -0.00026838
P       26.61976451       2.99067007       0.14511551      -0.00641126       0.00144112       0.00666325       0.00935842      -0.00017700       0.00007329      -0.00003885
P       21.78596344       6.36771170       0.20414981      -0.00061832       0.00227918       0.00689826       0.00729129      -0.00012234       0.00012993      -0.00001813
P       10.82508169     -14.24321334       2.19990786      -0.00517442      -0.00122209       0.00635901       0.00828885      -0.00004912      -0.00030434      -0.00002279
P        9.70611645     -10.77860934       4.20153411      -0.00210344       0.00055042       0.00154768       0.00266885       0.00015914      -0.00001039       0.00005289
P       20.69089828       9.86582184       2.18411038       0.00139455       0.00113292       0.00338696       0.00383403      -0.00000310       0.00021093       0.00003793
P        8.61197286      -7.28319049       1.98556977       0.00024121       0.00164963      -0.00176548       0.00242825      -0.00059624       0.00022668       0.00008782
P       12.25051504      -7.32732933       3.93711199      -0.00175111       0.00051865      -0.00180865       0.00257033       0.00004626      -0.00006752       0.00007484
P        7.52907637      -3.78021462       4.05467665       0.00601820       0.00270332      -0.00144527       0.00675393      -0.00030364       0.00012059      -0.00008951
P       11.20868999      -3.87109077       1.55476601       0.00547284      -0.00097938      -0.01165552       0.01291365      -0.00010894       0.00002268      -0.00009544
P        2.39044139      -0.44273473       0.05061454      -0.00538219      -0.00035504       0.00980085       0.01118708      -0.00003166      -0.00005106      -0.00001822
P       27.95805039      -0.44152391       2.18957814      -0.00886361      -0.00045377       0.01654332       0.01877367      -0.00017555      -0.00006223      -0.00015588
P       15.68701485     -17.63457369       2.19071417      -0.00435104      -0.00040999       0.00681737       0.00809791       0.00034656       0.00013326       0.00010236
P        4.72603417       3.03513376       0.11536650      -0.00293976      -0.00224855       0.01170753       0.01227861      -0.00048186      -0.00034734       0.00023977
P       14.48264629     -14.20845959       4.24269790      -0.00640249      -0.00058011       0.00582101       0.00867252       0.00010315      -0.00023669       0.00014696
P       18.14008516     -14.17716008       2.14237716      -0.00636842      -0.00056608       0.00727982       0.00968881      -0.00005565      -0.00009815       0.00003576
P       16.99240769     -10.76564767       4.09879985      -0.00505258       0.00017310       0.00089979       0.00513499       0.00021916      -0.00000638      -0.00003023
P       13.34200342     -10.78102619       2.01281922      -0.00455429      -0.00012475       0.00248919       0.00519165      -0.00031714       0.00003195      -0.00007007
P       15.88415293      -7.34267230       1.77372510      -0.00277890       0.00093541      -0.00630137       0.00695015       0.00043694      -0.00020096       0.00001883
P       19.52824095      -7.33955768       3.91871057      -0.00188689      -0.00036756      -0.00828240       0.00850257      -0.00024706       0.00011485       0.00001053
P       14.85196276      -3.89792522       3.56979007       0.00360809       0.00003504      -0.02004792       0.02037005       0.00018100       0.00050472      -0.00007677
P       18.45247966      -3.92541581       1.49884639       0.00324331      -0.00051878      -0.02482974       0.02504604       0.00026639       0.00001847       0.00008620
In       9.99614393      -2.98600235       3.65252280       0.00603366       0.00447643      -0.01054381       0.01294664       0.00003817       0.00003499      -0.00023457
In       6.24141568      -2.99998958       1.98079448       0.00572929       0.00414733      -0.00011022       0.00707370       0.00026408      -0.00020235       0.00008148
In       8.22408658       0.71338589       2.60814397       0.00277464       0.00049537       0.01585055       0.01609919      -0.00023598       0.00029726      -0.00033877
In      11.62831225       0.47530185       0.94538266       0.00220692      -0.00699946      -0.01598822       0.01759222       0.00015050      -0.00039011      -0.00006250
In       7.10620503       4.00393712       0.24053628       0.00016091      -0.00188942       0.01829740       0.01839540       0.00050074      -0.00011740      -0.00009016
In      10.79301389       3.98162579       2.58540017      -0.00413715      -0.00097771       0.00931851       0.01024239      -0.00047617       0.00038366      -0.00008023
In       9.65787256       7.37127144       0.21613842      -0.00364981       0.00037660       0.00321402       0.00487780       0.00017441      -0.00023758      -0.00009273
In       5.96471563       7.36536153       2.20393210      -0.00495128      -0.00130929       0.00710887       0.00876159      -0.00034811       0.00012010       0.00013391
In       8.51560525      10.74722763       2.11354157      -0.00216364      -0.00060194      -0.00101672       0.00246524      -0.00016104       0.00010524      -0.00001786
In      12.19557829      10.76778014       0.09471299       0.00260279      -0.00334742      -0.00173891       0.00458297      -0.00013836      -0.00008579      -0.00013552
In      21.97265548      -6.51705998       4.01171018      -0.00246915      -0.00298573      -0.00569778       0.00689028      -0.00009721      -0.00014925       0.00003336
In      11.03829001      14.17178897       2.06041242       0.00483050      -0.00570833      -0.00485089       0.00891347       0.00005987       0.00014163       0.00014016
In      17.28868560      -3.01074744       3.57295872       0.00004311      -0.00145254      -0.02460355       0.02464643       0.00029137      -0.00018965       0.00005010
In      13.66327179      -3.00744182       1.44120636       0.00197376       0.00240730      -0.01970980       0.01995413      -0.00029765       0.00018215      -0.00014363
In      15.22057076       0.45916098       3.11164162       0.00554712       0.00020593      -0.01181874       0.01305739       0.00028757      -0.00012438       0.00005375
In      18.85932922       0.41774061       1.03149566       0.00223842       0.00517905      -0.03097801       0.03148761      -0.00004909       0.00007606       0.00007604
In      14.36239237       3.90295299       0.57815553      -0.00648863      -0.00085576       0.00746908       0.00993085      -0.00003105       0.00004016       0.00005148
In      18.00417872       3.85524249       2.66560745      -0.00589751       0.00153867       0.00213584       0.00645832      -0.00037552      -0.00000784      -0.00018637
In      16.96362141       7.31722979       0.29554338       0.00032424      -0.00081061       0.00196991       0.00215471      -0.00007932      -0.00040353      -0.00020782
In      13.33070601       7.35652690       2.40336781      -0.00076976      -0.00262807       0.00308662       0.00412632      -0.00011129       0.00012728      -0.00005816
In      15.85940891      10.76697982       2.22784046       0.00367735      -0.00162366       0.00064927       0.00407194       0.00010518      -0.00011361       0.00008716
In      19.50241153      10.76368617       0.07448410       0.00242291       0.00301854       0.00317655       0.00500725       0.00025336      -0.00002210      -0.00002775
In      14.70080030      14.19237768       0.01670122       0.00649441      -0.00170208       0.00083514       0.00676550       0.00008147       0.00000729      -0.00004702
In      18.36436477      14.20291636       2.09583766       0.00593142       0.00211973       0.00228717       0.00670121       0.00009246      -0.00008658       0.00009405
In      24.45429297      -3.04261968       4.12017625       0.00821899      -0.00626244      -0.00337855       0.01087127       0.00012167       0.00026177       0.00006036
In      20.87794933      -3.05645175       1.63433084       0.00211341      -0.00597632      -0.03379869       0.03438800      -0.00001975      -0.00001267       0.00028155
In      22.95356054       0.33685562       2.39126466      -0.01150371       0.00306700       0.01603993       0.01997551      -0.00004538      -0.00011459      -0.00032825
In      26.73632071       0.41900638       4.30340982      -0.00584818       0.00384133       0.01808913       0.01939519      -0.00011024      -0.00033099      -0.00014950
In      21.67926614       3.76826096       0.33821442      -0.00367702       0.00614977       0.00481936       0.00863518       0.00019422      -0.00081692      -0.00016668
In      25.35859087       3.80863908       2.26188936      -0.00598738       0.00002168       0.00572588       0.00828461       0.00004174       0.00002585      -0.00017475
In       9.61525596     -13.37112547       4.30747846      -0.00163958       0.00270963       0.00595976       0.00674900      -0.00012693      -0.00003705      -0.00009073
In      20.59992175       7.27314728       2.30959831      -0.00016968       0.00332879       0.00642461       0.00723777       0.00008473      -0.00001010      -0.00014476
In       8.51847461      -9.87565937       2.09273309      -0.00004983       0.00408236       0.00125898       0.00427238       0.00003788       0.00009288       0.00011638
In      12.13946998      -9.90708853       4.11280225      -0.00321793       0.00203522       0.00261213       0.00461741       0.00001837      -0.00038950       0.00014566
In       7.42122615      -6.37391087       4.09525226       0.00284618       0.00757467      -0.00201213       0.00833816       0.00021851      -0.00039228      -0.00006853
In      11.05489232      -6.44009518       1.82224976      -0.00136680       0.00363791      -0.00132045       0.00410440       0.00009399       0.00039496      -0.00022909
In       2.55056953      -3.02165939       4.19456195       0.00564207       0.00041959       0.00695153       0.00896285       0.00034090      -0.00031984       0.00005044
In      13.48856225      17.62352338       2.10695567       0.00647809      -0.00084416       0.00588955       0.00879574      -0.00028105      -0.00017853       0.00001921
In       1.18213624       0.42934376       2.16202001      -0.00364802      -0.00088787       0.01006101       0.01073873       0.00000394       0.00016586       0.00004723
In       4.79536658       0.45228499       0.06928043       0.00191236      -0.00580448       0.01569205       0.01684012       0.00039057       0.00023156       0.00003997
In      14.45744705     -16.78618217       4.29776008      -0.00233976      -0.00075410       0.00650932       0.00695805      -0.00015119      -0.00001781       0.00003048
In       3.51165555       3.88736217       2.21501560      -0.00004249      -0.00308460       0.01115413       0.01157286      -0.00020242       0.00021807       0.00001156
In      16.91569750     -13.33840757       4.23876212      -0.00484739      -0.00122366       0.00715295       0.00872692      -0.00008684      -0.00009552       0.00022420
In      13.25798041     -13.36209433       2.13210242      -0.00470419       0.00003704       0.00581786       0.00748187       0.00023015      -0.00019732      -0.00005117
In      15.77747554      -9.91430325       1.97929235      -0.00476146       0.00018494       0.00098981       0.00486676       0.00005451       0.00013634      -0.00002301
In      19.42727883      -9.90013768       4.12885096      -0.00423182      -0.00242749       0.00029949       0.00488781       0.00018018       0.00021191      -0.00004081
In      14.68901419      -6.46491033       3.86381080      -0.00382136       0.00144470      -0.00614902       0.00738244       0.00039759      -0.00013057      -0.00011272
In      18.32030494      -6.48580610       1.79041376      -0.00338760      -0.00230746      -0.00835720       0.00930823      -0.00012916       0.00012416       0.00010187
96
Lattice="14.596046887784373 20.641928609744127 0.0 14.596046887784373 -20.641928609744127 0.0 0.0 0.0 4.213516294524051" Properties=species:S:1:pos:R:3:x_err:R:1:y_err:R:1:z_err:R:1:total_err:R:1:forces:R:3 energy=-407.233378987158 free_energy=-407.233378987158 stress="0.0013600006452826549 -0.004986188530238781 0.0005392672627155497 -0.004986188530238781 0.00017332098511239352 0.00010124216083495557 0.0005392672627155497 0.00010124216083495557 0.002205269766145801" pbc="T T T"
P        8.45350074      -0.66808480      -0.58802777      -0.00697111       0.01076840       0.01381630       0.01885325       0.00066560       0.00001101       0.00033829
P        6.32455510      -0.61994092       2.69673800      -0.00579323       0.01340588      -0.01657862       0.02209366      -0.00049809      -0.00007335      -0.00019650
P        9.00570802       2.85839264       1.95057512       0.00261406      -0.00556324       0.00487532       0.00784549       0.00029872       0.00011293       0.00025706
P       12.68533518       2.96368827      -0.18284789       0.00781526      -0.00266515       0.00677522       0.01068106      -0.00030662       0.00032201       0.00002731
P        7.49655249       6.31396196      -0.05880097       0.00206128      -0.00689372       0.00670839       0.00983742       0.00011568      -0.00006295      -0.00011105
P       11.11793689       6.39427258       2.01609093      -0.00128145      -0.00732540       0.00570286       0.00937157      -0.00009944      -0.00009454       0.00003341
P        9.68812308       9.87945527      -0.04916198      -0.00351525      -0.00769117       0.00500909       0.00982864      -0.00027325       0.00003079      -0.00003766
P       20.69986839     -10.78608093       2.05821359       0.00064789      -0.00697946       0.00339856       0.00778991      -0.00024395       0.00007727      -0.00003855
P       22.90631906      -7.22174917       2.06004631      -0.00514872      -0.00883438       0.00442449       0.01114144      -0.00019878      -0.00003697       0.00000833
P       11.95572805      13.36277154       0.03121723      -0.00994770      -0.00163101      -0.00244054       0.01037175       0.00003053      -0.00015189       0.00002608
P       21.52893603      -3.67039061      -0.10480471      -0.00601698      -0.01522689       0.00515885       0.01716612      -0.00054625       0.00034833       0.00012148
P       25.28447599      -3.79532279       2.21756558      -0.00814754      -0.00202451      -0.00327695       0.00901218       0.00030375       0.00004532       0.00001844
P       15.80496798      -0.44811356      -0.23572579       0.01353466      -0.00210265       0.02564940       0.02907748      -0.00042691       0.00024871       0.00022430
P       12.13948110      -0.48701932       1.82566823       0.00879896       0.00090954       0.02427277       0.02583440      -0.00014502       0.00001771       0.00011366
P       16.31196685       3.00895678       1.94931752       0.00892683      -0.00062495       0.00791928       0.01194963       0.00029652       0.00056626      -0.00002467
P       19.87649592       3.15931945      -0.11284660       0.01055021       0.00839241       0.00735441       0.01535666      -0.00007642       0.00015160       0.00008197
P       14.76146323       6.45090105      -0.07436771      -0.00155409      -0.00032234       0.00339397       0.00374675       0.00001530      -0.00025645       0.00011980
P       18.40889590       6.54847696       2.07539221       0.00055544       0.00487737       0.00289865       0.00570082       0.00022272       0.00004037       0.00009220
P       16.96355889       9.92113197       0.01898842      -0.00421246       0.00412813       0.00011019       0.00589902      -0.00009559       0.00013722       0.00003157
P       13.31552737       9.88839941       2.08885765      -0.00695962      -0.00178099       0.00140711       0.00732040       0.00017670       0.00012866      -0.00007081
P       15.59116459      13.33816894       2.18246672      -0.00962371       0.00140146      -0.00248359       0.01003733      -0.00011129      -0.00009520      -0.00009660
P       19.23125402      13.29095916       0.09743461      -0.00539546       0.00683580      -0.00494665       0.01001542       0.00004524       0.00049450       0.00011692
P       14.36668573      16.79792232       0.15323778      -0.00839875       0.00037182      -0.00444220       0.00950844      -0.00009920      -0.00001785       0.00014979
P        3.35939209      -3.90594630       2.29841999      -0.00521404       0.00430377      -0.00386344       0.00778684       0.00023668      -0.00016930      -0.00005100
P       24.32239410      -0.36412531       0.35942423      -0.01762708      -0.00816458      -0.02109154       0.02867450       0.00031852      -0.00021252       0.00007027
P       19.44831407      -0.37912780       1.72471473       0.02031653      -0.00456065       0.03088859       0.03725139       0.00011728      -0.00051403       0.00015902
P       23.41922192       3.15960631       2.19911817       0.00348048       0.00472915       0.00520388       0.00784595       0.00003384       0.00054474      -0.00026838
P       12.42954650     -17.62819405       0.14522253       0.00158861      -0.00150684      -0.00162448       0.00272639      -0.00017700       0.00007329      -0.00003885
P       22.09136204       6.61272294       0.04428625       0.00506498       0.01024246      -0.00581487       0.01282087      -0.00012234       0.00012993      -0.00001813
P       11.17853759     -14.15202331       2.18593396       0.00730470       0.00360334      -0.00601105       0.01012302      -0.00004912      -0.00030434      -0.00002279
P        9.78659794     -10.74373655       0.05436522       0.00427102       0.00782616      -0.00783470       0.01186899       0.00015914      -0.00001039       0.00005289
P       20.65924052       9.94208205       2.15913930      -0.00035085       0.00761779      -0.00510009       0.00917414      -0.00000310       0.00021093       0.00003793
P        8.34345236      -7.40216179       2.18029436      -0.00123259       0.00908253      -0.01046514       0.01391153      -0.00059624       0.00022668       0.00008782
P       12.00287036      -7.35370390      -0.03234170       0.00384694       0.00408199      -0.00279004       0.00626466       0.00004626      -0.00006752       0.00007484
P        6.90221064      -4.07749645       0.20292961      -0.00455722       0.01246587      -0.01050546       0.01692723      -0.00030364       0.00012059      -0.00008951
P       10.45573207      -3.97902208       1.95045658      -0.00419857       0.00616522      -0.00297092       0.00802897      -0.00010894       0.00002268      -0.00009544
P        2.54982581      -0.43580181       0.26871095      -0.01311420       0.00135385      -0.01787910       0.02221435      -0.00003166      -0.00005106      -0.00001822
P       28.02259906      -0.41115368       2.33035909      -0.01588962      -0.00037319      -0.01855352       0.02443056      -0.00017555      -0.00006223      -0.00015588
P       16.09347837     -17.65978066       2.26664004       0.00198652      -0.00357012      -0.00225125       0.00466477       0.00034656       0.00013326       0.00010236
P        5.21567634       2.89717016       0.14596894       0.00101331      -0.00623394      -0.00358249       0.00726107      -0.00048186      -0.00034734       0.00023977
P       14.82428633     -14.21192574       0.07373529       0.00786569      -0.00297247      -0.00299005       0.00892441       0.00010315      -0.00023669       0.00014696
P       18.46446533     -14.26790043       2.14308759       0.00595896      -0.00758024      -0.00216866       0.00988294      -0.00005565      -0.00009815       0.00003576
P       17.09511682     -10.77035301      -0.01622707       0.00481187      -0.00604681      -0.00156492       0.00788461       0.00021916      -0.00000638      -0.00003023
P       13.45613152     -10.76055133       2.12606272       0.00708632       0.00077252      -0.00323329       0.00782732      -0.00031714       0.00003195      -0.00007007
P       15.65154054      -7.30696772       2.03379286       0.00534286      -0.00152201      -0.00194666       0.00588661       0.00043694      -0.00020096       0.00001883
P       19.30609668      -7.25620651      -0.07735662      -0.00082292      -0.00725945       0.00116799       0.00739872      -0.00024706       0.00011485       0.00001053
P       14.05703849      -3.88903213      -0.16915408      -0.00156775      -0.00107948      -0.00032009       0.00193017       0.00018100       0.00050472      -0.00007677
P       17.75127116      -3.82295839       1.96151035      -0.00050151      -0.00268459       0.00098869       0.00290448       0.00026639       0.00001847       0.00008620
In       9.23873051      -3.11932898      -0.17291860      -0.00008395       0.01812065      -0.00321147       0.01840322       0.00003817       0.00003499      -0.00023457
In       5.78692413      -3.11690839       2.33413634      -0.00538988       0.01913476      -0.01100436       0.02272192       0.00026408      -0.00020235       0.00008148
In       9.60859719       0.33255516       1.60154524       0.00468965      -0.00789262       0.01258403       0.01557704      -0.00023598       0.00029726      -0.00033877
In      13.29464027       0.42344235      -0.27009467       0.00877552      -0.00270445       0.02268517       0.02447327       0.00015050      -0.00039011      -0.00006250
In       7.69837046       3.69717194      -0.11272871       0.00219788      -0.00684313       0.00363738       0.00805541       0.00050074      -0.00011740      -0.00009016
In      11.40232309       3.81099195       1.93137852      -0.00014591      -0.00743787       0.00529976       0.00913403      -0.00047617       0.00038366      -0.00008023
In       9.88147177       7.27464100      -0.08434836      -0.00034616      -0.00690963       0.00543561       0.00879822       0.00017441      -0.00023758      -0.00009273
In       6.29240555       7.24383509       2.05680319       0.00551932      -0.00673577       0.00548766       0.01029310      -0.00034811       0.00012010       0.00013391
In       8.48790537      10.81123210       2.05852631      -0.00088088      -0.00723630       0.00498021       0.00882850      -0.00016104       0.00010524      -0.00001786
In      12.09514027      10.77274576      -0.01609961      -0.00713950      -0.00177167       0.00106161       0.00743224      -0.00013836      -0.00008579      -0.00013552
In      21.69584847      -6.27905551      -0.05309716      -0.00276971      -0.01052215       0.00507173       0.01200456      -0.00009721      -0.00014925       0.00003336
In      10.74155775      14.26078661       2.13859917      -0.00922783      -0.00230776      -0.00294093       0.00995629       0.00005987       0.00014163       0.00014016
In      16.45626528      -2.98344103      -0.15620026      -0.00037637      -0.00554524       0.00208160       0.00593502       0.00029137      -0.00018965       0.00005010
In      12.81269147      -3.01029853       1.92576310      -0.00074474       0.00144873       0.00030275       0.00165684      -0.00029765       0.00018215      -0.00014363
In      16.94996833       0.47024613       1.86931564       0.01371654      -0.00109503       0.02538263       0.02887248       0.00028757      -0.00012438       0.00005375
In      20.48596547       0.66081592      -0.40213352       0.00007813       0.00782149       0.02950670       0.03052585      -0.00004909       0.00007606       0.00007604
In      15.07279222       3.88311322      -0.15266871       0.00368044      -0.00011687       0.00699118       0.00790164      -0.00003105       0.00004016       0.00005148
In      18.65906063       3.99254737       1.99982014       0.00386098       0.00463904       0.00694169       0.00919864      -0.00037552      -0.00000784      -0.00018637
In      17.15607456       7.35950994      -0.03103193      -0.00296100       0.00389613       0.00258549       0.00553463      -0.00007932      -0.00040353      -0.00020782
In      13.51778961       7.30587909       2.03571643      -0.00428611      -0.00204301       0.00299916       0.00561601      -0.00011129       0.00012728      -0.00005816
In      15.72767038      10.76453846       2.12711509      -0.00792321       0.00137696      -0.00008201       0.00804238       0.00010518      -0.00011361       0.00008716
In      19.39688630      10.73536013       0.05269072      -0.00303880       0.00697341      -0.00488212       0.00903868       0.00025336      -0.00002210      -0.00002775
In      14.38235572      14.21721897       0.07835676      -0.01101038       0.00051206      -0.00272013       0.01135296       0.00008147       0.00000729      -0.00004702