24
Lattice="5.959233503412287 0.0 0.0 0.0 5.959233503412287 0.0 0.0 0.0 17.877700510236863" Properties=species:S:1:pos:R:3 energy=-102.3570560220125 pbc="T T T"
P        4.46942513       1.48980838       1.48980838
In       2.97961675       0.00000000       2.97961675
P        1.48980838       1.48980838       4.46942513
P        4.46942513       4.46942513       4.46942513
In       2.97961675       2.97961675       0.00000000
P        1.48980838       4.46942513       1.48980838
In       0.00000000       0.00000000       0.00000000
In       0.00000000       2.97961675       2.97961675
P        4.46942513       1.48980838       7.44904188
In       2.97961675       0.00000000       8.93885026
P        1.48980838       1.48980838      10.42865863
P        4.46942513       4.46942513      10.42865863
In       2.97961675       2.97961675       5.95923350
P        1.48980838       4.46942513       7.44904188
In       0.00000000       0.00000000       5.95923350
In       0.00000000       2.97961675       8.93885026
P        4.46942513       1.48980838      13.40827538
In       2.97961675       0.00000000      14.89808376
P        1.48980838       1.48980838      16.38789213
P        4.46942513       4.46942513      16.38789213
In       2.97961675       2.97961675      11.91846701
P        1.48980838       4.46942513      13.40827538
In       0.00000000       0.00000000      11.91846701
In       0.00000000       2.97961675      14.89808376
24
Lattice="5.959233503412287 0.0 0.0 0.0 5.959233503412287 0.0 0.0 0.0744904187926536 17.877700510236863" Properties=species:S:1:pos:R:3 energy=-102.33934179064725 pbc="T T T"
P        4.46942513       1.48980838       1.49103356
In       2.97961675       0.00000000       2.98048841
P        1.48980838       1.48980838       4.47011167
P        4.46942513       4.46942513       4.47011167
In       2.97961675       2.97961675       0.00186885
P        1.48980838       4.46942513       1.49103356
In       0.00000000       0.00000000       0.00186885
In       0.00000000       2.97961675       2.98048841
P        4.46942513       1.48980838       7.44911767
In       2.97961675       0.00000000       8.93874469
P        1.48980838       1.48980838      10.42828785
P        4.46942513       4.46942513      10.42828785
In       2.97961675       2.97961675       5.95950336
P        1.48980838       4.46942513       7.44911767
In       0.00000000       0.00000000       5.95950336
In       0.00000000       2.97961675       8.93874469
P        4.46942513       1.48980838      13.40724422
In       2.97961675       0.00000000      14.89693156
P        1.48980838       1.48980838      16.38633101
P        4.46942513       4.46942513      16.38633101
In       2.97961675       2.97961675      11.91768995
P        1.48980838       4.46942513      13.40724422
In       0.00000000       0.00000000      11.91768995
In       0.00000000       2.97961675      14.89693156
24
Lattice="5.959233503412287 0.0 0.0 0.0 5.959233503412287 0.0 0.0 0.1489808375853072 17.877700510236863" Properties=species:S:1:pos:R:3 energy=-102.28689437327543 pbc="T T T"
P        4.46942513       1.48980838       1.49467322
In       2.97961675       0.00000000       2.98324582
P        1.48980838       1.48980838       4.47217493
P        4.46942513       4.46942513       4.47217493
In       2.97961675       2.97961675       0.00742584
P        1.48980838       4.46942513       1.49467322
In       0.00000000       0.00000000       0.00742584
In       0.00000000       2.97961675       2.98324582
P        4.46942513       1.48980838       7.44945758
In       2.97961675       0.00000000       8.93821591
P        1.48980838       1.48980838      10.42679899
P        4.46942513       4.46942513      10.42679899
In       2.97961675       2.97961675       5.96073543
P        1.48980838       4.46942513       7.44945758
In       0.00000000       0.00000000       5.96073543
In       0.00000000       2.97961675       8.93821591
P        4.46942513       1.48980838      13.40401483
In       2.97961675       0.00000000      14.89349099
P        1.48980838       1.48980838      16.38169296
P        4.46942513       4.46942513      16.38169296
In       2.97961675       2.97961675      11.91542633
P        1.48980838       4.46942513      13.40401483
In       0.00000000       0.00000000      11.91542633
In       0.00000000       2.97961675      14.89349099
24
Lattice="5.959233503412287 0.0 0.0 0.0 5.959233503412287 0.0 0.0 0.2234712563779608 17.877700510236863" Properties=species:S:1:pos:R:3 energy=-102.2018307056634 pbc="T T T"
P        4.46942513       1.48980838       1.50075942
In       2.97961675       0.00000000       2.98764025
P        1.48980838       1.48980838       4.47566342
P        4.46942513       4.46942513       4.47566342
In       2.97961675       2.97961675       0.01650873
P        1.48980838       4.46942513       1.50075942
In       0.00000000       0.00000000       0.01650873
In       0.00000000       2.97961675       2.98764025
P        4.46942513       1.48980838       7.45005927
In       2.97961675       0.00000000       8.93727962
P        1.48980838       1.48980838      10.42449101
P        4.46942513       4.46942513      10.42449101
In       2.97961675       2.97961675       5.96268541
P        1.48980838       4.46942513       7.45005927
In       0.00000000       0.00000000       5.96268541
In       0.00000000       2.97961675       8.93727962
P        4.46942513       1.48980838      13.39883652
In       2.97961675       0.00000000      14.88773828
P        1.48980838       1.48980838      16.37402909
P        4.46942513       4.46942513      16.37402909
In       2.97961675       2.97961675      11.91166180
P        1.48980838       4.46942513      13.39883652
In       0.00000000       0.00000000      11.91166180
In       0.00000000       2.97961675      14.88773828
24
Lattice="5.959233503412287 0.0 0.0 0.0 5.959233503412287 0.0 0.0 0.2979616751706144 17.877700510236863" Properties=species:S:1:pos:R:3 energy=-102.08778827568699 pbc="T T T"
P        4.46942513       1.48980838       1.50923367
In       2.97961675       0.00000000       2.99390027
P        1.48980838       1.48980838       4.48046064
P        4.46942513       4.46942513       4.48046064
In       2.97961675       2.97961675       0.02890584
P        1.48980838       4.46942513       1.50923367
In       0.00000000       0.00000000       0.02890584
In       0.00000000       2.97961675       2.99390027
P        4.46942513       1.48980838       7.45084597
In       2.97961675       0.00000000       8.93609807
P        1.48980838       1.48980838      10.42128261
P        4.46942513       4.46942513      10.42128261
In       2.97961675       2.97961675       5.96541327
P        1.48980838       4.46942513       7.45084597
In       0.00000000       0.00000000       5.96541327
In       0.00000000       2.97961675       8.93609807
P        4.46942513       1.48980838      13.39158793
In       2.97961675       0.00000000      14.87981113
P        1.48980838       1.48980838      16.36332007
P        4.46942513       4.46942513      16.36332007
In       2.97961675       2.97961675      11.90649335
P        1.48980838       4.46942513      13.39158793
In       0.00000000       0.00000000      11.90649335
In       0.00000000       2.97961675      14.87981113
24
Lattice="5.959233503412287 0.0 0.0 0.0 5.959233503412287 0.0 0.0 0.37245209396326795 17.877700510236863" Properties=species:S:1:pos:R:3 energy=-101.95010104235683 pbc="T T T"
P        4.46942513       1.48980838       1.51991419
In       2.97961675       0.00000000       3.00180930
P        1.48980838       1.48980838       4.48646395
P        4.46942513       4.46942513       4.48646395
In       2.97961675       2.97961675       0.04429760
P        1.48980838       4.46942513       1.51991419
In       0.00000000       0.00000000       0.04429760
In       0.00000000       2.97961675       3.00180930
P        4.46942513       1.48980838       7.45186342
In       2.97961675       0.00000000       8.93466489
P        1.48980838       1.48980838      10.41735398
P        4.46942513       4.46942513      10.41735398
In       2.97961675       2.97961675       5.96879404
P        1.48980838       4.46942513       7.45186342
In       0.00000000       0.00000000       5.96879404
In       0.00000000       2.97961675       8.93466489
P        4.46942513       1.48980838      13.38256830
In       2.97961675       0.00000000      14.86993487
P        1.48980838       1.48980838      16.34961073
P        4.46942513       4.46942513      16.34961073
In       2.97961675       2.97961675      11.90007754
P        1.48980838       4.46942513      13.38256830
In       0.00000000       0.00000000      11.90007754
In       0.00000000       2.97961675      14.86993487
24
Lattice="5.959233503412287 0.0 0.0 0.0 5.959233503412287 0.0 0.0 0.4469425127559216 17.877700510236863" Properties=species:S:1:pos:R:3 energy=-101.79512349784983 pbc="T T T"
P        4.46942513       1.48980838       1.53225178
In       2.97961675       0.00000000       3.01083520
P        1.48980838       1.48980838       4.49336948
P        4.46942513       4.46942513       4.49336948
In       2.97961675       2.97961675       0.06172329
P        1.48980838       4.46942513       1.53225178
In       0.00000000       0.00000000       0.06172329
In       0.00000000       2.97961675       3.01083520
P        4.46942513       1.48980838       7.45312648
In       2.97961675       0.00000000       8.93297304
P        1.48980838       1.48980838      10.41284563
P        4.46942513       4.46942513      10.41284563
In       2.97961675       2.97961675       5.97281798
P        1.48980838       4.46942513       7.45312648
In       0.00000000       0.00000000       5.97281798
In       0.00000000       2.97961675       8.93297304
P        4.46942513       1.48980838      13.37235489
In       2.97961675       0.00000000      14.85862452
P        1.48980838       1.48980838      16.33361061
P        4.46942513       4.46942513      16.33361061
In       2.97961675       2.97961675      11.89281992
P        1.48980838       4.46942513      13.37235489
In       0.00000000       0.00000000      11.89281992
In       0.00000000       2.97961675      14.85862452
24
Lattice="5.959233503412287 0.0 0.0 0.0 5.959233503412287 0.0 0.0 0.5214329315485752 17.877700510236863" Properties=species:S:1:pos:R:3 energy=-101.6289090182144 pbc="T T T"
P        4.46942513       1.48980838       1.54608853
In       2.97961675       0.00000000       3.02105047
P        1.48980838       1.48980838       4.50104409
P        4.46942513       4.46942513       4.50104409
In       2.97961675       2.97961675       0.08047219
P        1.48980838       4.46942513       1.54608853
In       0.00000000       0.00000000       0.08047219
In       0.00000000       2.97961675       3.02105047
P        4.46942513       1.48980838       7.45451558
In       2.97961675       0.00000000       8.93119635
P        1.48980838       1.48980838      10.40792237
P        4.46942513       4.46942513      10.40792237
In       2.97961675       2.97961675       5.97723272
P        1.48980838       4.46942513       7.45451558
In       0.00000000       0.00000000       5.97723272
In       0.00000000       2.97961675       8.93119635
P        4.46942513       1.48980838      13.36099026
In       2.97961675       0.00000000      14.84609762
P        1.48980838       1.48980838      16.31595430
P        4.46942513       4.46942513      16.31595430
In       2.97961675       2.97961675      11.88478833
P        1.48980838       4.46942513      13.36099026
In       0.00000000       0.00000000      11.88478833
In       0.00000000       2.97961675      14.84609762
24
Lattice="5.959233503412287 0.0 0.0 0.0 5.959233503412287 0.0 0.0 0.5959233503412288 17.877700510236863" Properties=species:S:1:pos:R:3 energy=-101.45682875947585 pbc="T T T"
P        4.46942513       1.48980838       1.56081508
In       2.97961675       0.00000000       3.03189444
P        1.48980838       1.48980838       4.50914090
P        4.46942513       4.46942513       4.50914090
In       2.97961675       2.97961675       0.09977242
P        1.48980838       4.46942513       1.56081508
In       0.00000000       0.00000000       0.09977242
In       0.00000000       2.97961675       3.03189444
P        4.46942513       1.48980838       7.45603054
In       2.97961675       0.00000000       8.92937517
P        1.48980838       1.48980838      10.40276684
P        4.46942513       4.46942513      10.40276684
In       2.97961675       2.97961675       5.98196226
P        1.48980838       4.46942513       7.45603054
In       0.00000000       0.00000000       5.98196226
In       0.00000000       2.97961675       8.92937517
P        4.46942513       1.48980838      13.34901316
In       2.97961675       0.00000000      14.83280940
P        1.48980838       1.48980838      16.29738841
P        4.46942513       4.46942513      16.29738841
In       2.97961675       2.97961675      11.87638418
P        1.48980838       4.46942513      13.34901316
In       0.00000000       0.00000000      11.87638418
In       0.00000000       2.97961675      14.83280940
24
Lattice="5.959233503412287 0.0 0.0 0.0 5.959233503412287 0.0 0.0 0.6704137691338823 17.877700510236863" Properties=species:S:1:pos:R:3 energy=-101.28400799893237 pbc="T T T"
P        4.46942513       1.48980838       1.57627262
In       2.97961675       0.00000000       3.04330805
P        1.48980838       1.48980838       4.51760320
P        4.46942513       4.46942513       4.51760320
In       2.97961675       2.97961675       0.11963796
P        1.48980838       4.46942513       1.57627262
In       0.00000000       0.00000000       0.11963796
In       0.00000000       2.97961675       3.04330805
P        4.46942513       1.48980838       7.45761314
In       2.97961675       0.00000000       8.92747929
P        1.48980838       1.48980838      10.39740769
P        4.46942513       4.46942513      10.39740769
In       2.97961675       2.97961675       5.98688809
P        1.48980838       4.46942513       7.45761314
In       0.00000000       0.00000000       5.98688809
In       0.00000000       2.97961675       8.92747929
P        4.46942513       1.48980838      13.33653390
In       2.97961675       0.00000000      14.81890815
P        1.48980838       1.48980838      16.27807974
P        4.46942513       4.46942513      16.27807974
In       2.97961675       2.97961675      11.86762096
P        1.48980838       4.46942513      13.33653390
In       0.00000000       0.00000000      11.86762096
In       0.00000000       2.97961675      14.81890815
24
Lattice="5.959233503412287 0.0 0.0 0.0 5.959233503412287 0.0 0.0 0.7449041879265359 17.877700510236863" Properties=species:S:1:pos:R:3 energy=-101.11514643684166 pbc="T T T"
P        4.46942513       1.48980838       1.59201094
In       2.97961675       0.00000000       3.05494959
P        1.48980838       1.48980838       4.52617160
P        4.46942513       4.46942513       4.52617160
In       2.97961675       2.97961675       0.13958394
P        1.48980838       4.46942513       1.59201094
In       0.00000000       0.00000000       0.13958394
In       0.00000000       2.97961675       3.05494959
P        4.46942513       1.48980838       7.45921661
In       2.97961675       0.00000000       8.92552245
P        1.48980838       1.48980838      10.39198105
P        4.46942513       4.46942513      10.39198105
In       2.97961675       2.97961675       5.99186494
P        1.48980838       4.46942513       7.45921661
In       0.00000000       0.00000000       5.99186494
In       0.00000000       2.97961675       8.92552245
P        4.46942513       1.48980838      13.32389506
In       2.97961675       0.00000000      14.80475012
P        1.48980838       1.48980838      16.25866836
P        4.46942513       4.46942513      16.25866836
In       2.97961675       2.97961675      11.85873814
P        1.48980838       4.46942513      13.32389506
In       0.00000000       0.00000000      11.85873814
In       0.00000000       2.97961675      14.80475012
24
Lattice="5.959233503412287 0.0 0.0 0.0 5.959233503412287 0.0 0.0 0.8193946067191907 17.877700510236863" Properties=species:S:1:pos:R:3 energy=-100.95329365669011 pbc="T T T"
P        4.46942513       1.48980838       1.60743664
In       2.97961675       0.00000000       3.06631400
P        1.48980838       1.48980838       4.53449852
P        4.46942513       4.46942513       4.53449852
In       2.97961675       2.97961675       0.15897815
P        1.48980838       4.46942513       1.60743664
In       0.00000000       0.00000000       0.15897815
In       0.00000000       2.97961675       3.06631400
P        4.46942513       1.48980838       7.46076201
In       2.97961675       0.00000000       8.92364871
P        1.48980838       1.48980838      10.38668491
P        4.46942513       4.46942513      10.38668491
In       2.97961675       2.97961675       5.99674511
P        1.48980838       4.46942513       7.46076201
In       0.00000000       0.00000000       5.99674511
In       0.00000000       2.97961675       8.92364871
P        4.46942513       1.48980838      13.31155618
In       2.97961675       0.00000000      14.79081310
P        1.48980838       1.48980838      16.23980582
P        4.46942513       4.46942513      16.23980582
In       2.97961675       2.97961675      11.85010966
P        1.48980838       4.46942513      13.31155618
In       0.00000000       0.00000000      11.85010966
In       0.00000000       2.97961675      14.79081310
24
Lattice="5.959233503412287 0.0 0.0 0.0 5.959233503412287 0.0 0.0 0.8938850255118432 17.877700510236863" Properties=species:S:1:pos:R:3 energy=-100.79993526098961 pbc="T T T"
P        4.46942513       1.48980838       1.62218499
In       2.97961675       0.00000000       3.07720322
P        1.48980838       1.48980838       4.54246346
P        4.46942513       4.46942513       4.54246346
In       2.97961675       2.97961675       0.17741162
P        1.48980838       4.46942513       1.62218499
In       0.00000000       0.00000000       0.17741162
In       0.00000000       2.97961675       3.07720322
P        4.46942513       1.48980838       7.46228428
In       2.97961675       0.00000000       8.92186311
P        1.48980838       1.48980838      10.38164913
P        4.46942513       4.46942513      10.38164913
In       2.97961675       2.97961675       6.00140021
P        1.48980838       4.46942513       7.46228428
In       0.00000000       0.00000000       6.00140021
In       0.00000000       2.97961675       8.92186311
P        4.46942513       1.48980838      13.29975147
In       2.97961675       0.00000000      14.77740851
P        1.48980838       1.48980838      16.22189968
P        4.46942513       4.46942513      16.22189968
In       2.97961675       2.97961675      11.84183312
P        1.48980838       4.46942513      13.29975147
In       0.00000000       0.00000000      11.84183312
In       0.00000000       2.97961675      14.77740851
24
Lattice="5.959233503412287 0.0 0.0 0.0 5.959233503412287 0.0 0.0 0.9683754443044967 17.877700510236863" Properties=species:S:1:pos:R:3 energy=-100.65572128364626 pbc="T T T"
P        4.46942513       1.48980838       1.63620694
In       2.97961675       0.00000000       3.08747859
P        1.48980838       1.48980838       4.54995397
P        4.46942513       4.46942513       4.54995397
In       2.97961675       2.97961675       0.19478660
P        1.48980838       4.46942513       1.63620694
In       0.00000000       0.00000000       0.19478660
In       0.00000000       2.97961675       3.08747859
P        4.46942513       1.48980838       7.46368729
In       2.97961675       0.00000000       8.92017440
P        1.48980838       1.48980838      10.37687585
P        4.46942513       4.46942513      10.37687585
In       2.97961675       2.97961675       6.00579881
P        1.48980838       4.46942513       7.46368729
In       0.00000000       0.00000000       6.00579881
In       0.00000000       2.97961675       8.92017440
P        4.46942513       1.48980838      13.28859026
In       2.97961675       0.00000000      14.76463576
P        1.48980838       1.48980838      16.20512489
P        4.46942513       4.46942513      16.20512489
In       2.97961675       2.97961675      11.83403944
P        1.48980838       4.46942513      13.28859026
In       0.00000000       0.00000000      11.83403944
In       0.00000000       2.97961675      14.76463576
24
Lattice="5.959233503412287 0.0 0.0 0.0 5.959233503412287 0.0 0.0 1.0428658630971503 17.877700510236863" Properties=species:S:1:pos:R:3 energy=-100.52065635590321 pbc="T T T"
P        4.46942513       1.48980838       1.64932554
In       2.97961675       0.00000000       3.09699360
P        1.48980838       1.48980838       4.55691079
P        4.46942513       4.46942513       4.55691079
In       2.97961675       2.97961675       0.21089496
P        1.48980838       4.46942513       1.64932554
In       0.00000000       0.00000000       0.21089496
In       0.00000000       2.97961675       3.09699360
P        4.46942513       1.48980838       7.46497104
In       2.97961675       0.00000000       8.91865863
P        1.48980838       1.48980838      10.37245213
P        4.46942513       4.46942513      10.37245213
In       2.97961675       2.97961675       6.00988387
P        1.48980838       4.46942513       7.46497104
In       0.00000000       0.00000000       6.00988387
In       0.00000000       2.97961675       8.91865863
P        4.46942513       1.48980838      13.27823665
In       2.97961675       0.00000000      14.75266245
P        1.48980838       1.48980838      16.18953651
P        4.46942513       4.46942513      16.18953651
In       2.97961675       2.97961675      11.82682663
P        1.48980838       4.46942513      13.27823665
In       0.00000000       0.00000000      11.82682663
In       0.00000000       2.97961675      14.75266245
24
Lattice="5.959233503412287 0.0 0.0 0.0 5.959233503412287 0.0 0.0 1.117356281889804 17.877700510236863" Properties=species:S:1:pos:R:3 energy=-100.39420336625972 pbc="T T T"
P        4.46942513       1.48980838       1.66158803
In       2.97961675       0.00000000       3.10585631
P        1.48980838       1.48980838       4.56342517
P        4.46942513       4.46942513       4.56342517
In       2.97961675       2.97961675       0.22542542
P        1.48980838       4.46942513       1.66158803
In       0.00000000       0.00000000       0.22542542
In       0.00000000       2.97961675       3.10585631
P        4.46942513       1.48980838       7.46626438
In       2.97961675       0.00000000       8.91725413
P        1.48980838       1.48980838      10.36836567
P        4.46942513       4.46942513      10.36836567
In       2.97961675       2.97961675       6.01373420
P        1.48980838       4.46942513       7.46626438
In       0.00000000       0.00000000       6.01373420
In       0.00000000       2.97961675       8.91725413
P        4.46942513       1.48980838      13.26856411
In       2.97961675       0.00000000      14.74143145
P        1.48980838       1.48980838      16.17537527
P        4.46942513       4.46942513      16.17537527
In       2.97961675       2.97961675      11.82006866
P        1.48980838       4.46942513      13.26856411
In       0.00000000       0.00000000      11.82006866
In       0.00000000       2.97961675      14.74143145
24
Lattice="5.959233503412287 0.0 0.0 0.0 5.959233503412287 0.0 0.0 1.1918467006824576 17.877700510236863" Properties=species:S:1:pos:R:3 energy=-100.2755508713641 pbc="T T T"
P        4.46942513       1.48980838       1.67305213
In       2.97961675       0.00000000       3.11400386
P        1.48980838       1.48980838       4.56938823
P        4.46942513       4.46942513       4.56938823
In       2.97961675       2.97961675       0.23863307
P        1.48980838       4.46942513       1.67305213
In       0.00000000       0.00000000       0.23863307
In       0.00000000       2.97961675       3.11400386
P        4.46942513       1.48980838       7.46736807
In       2.97961675       0.00000000       8.91590881
P        1.48980838       1.48980838      10.36457178
P        4.46942513       4.46942513      10.36457178
In       2.97961675       2.97961675       6.01722700
P        1.48980838       4.46942513       7.46736807
In       0.00000000       0.00000000       6.01722700
In       0.00000000       2.97961675       8.91590881
P        4.46942513       1.48980838      13.25970834
In       2.97961675       0.00000000      14.73108820
P        1.48980838       1.48980838      16.16251945
P        4.46942513       4.46942513      16.16251945
In       2.97961675       2.97961675      11.81388386
P        1.48980838       4.46942513      13.25970834
In       0.00000000       0.00000000      11.81388386
In       0.00000000       2.97961675      14.73108820
24
Lattice="5.959233503412287 0.0 0.0 0.0 5.959233503412287 0.0 0.0 1.2663371194751112 17.877700510236863" Properties=species:S:1:pos:R:3 energy=-100.16388061474491 pbc="T T T"
P        4.46942513       1.48980838       1.68374709
In       2.97961675       0.00000000       3.12148628
P        1.48980838       1.48980838       4.57488503
P        4.46942513       4.46942513       4.57488503
In       2.97961675       2.97961675       0.25043590
P        1.48980838       4.46942513       1.68374709
In       0.00000000       0.00000000       0.25043590
In       0.00000000       2.97961675       3.12148628
P        4.46942513       1.48980838       7.46838393
In       2.97961675       0.00000000       8.91467310
P        1.48980838       1.48980838      10.36108447
P        4.46942513       4.46942513      10.36108447
In       2.97961675       2.97961675       6.02044667
P        1.48980838       4.46942513       7.46838393
In       0.00000000       0.00000000       6.02044667
In       0.00000000       2.97961675       8.91467310
P        4.46942513       1.48980838      13.25157419
In       2.97961675       0.00000000      14.72152521
P        1.48980838       1.48980838      16.15090859
P        4.46942513       4.46942513      16.15090859
In       2.97961675       2.97961675      11.80820235
P        1.48980838       4.46942513      13.25157419
In       0.00000000       0.00000000      11.80820235
In       0.00000000       2.97961675      14.72152521
24
Lattice="5.959233503412287 0.0 0.0 0.0 5.959233503412287 0.0 0.0 1.3408275382677646 17.877700510236863" Properties=species:S:1:pos:R:3 energy=-100.05846034939503 pbc="T T T"
P        4.46942513       1.48980838       1.69371743
In       2.97961675       0.00000000       3.12833661
P        1.48980838       1.48980838       4.57994210
P        4.46942513       4.46942513       4.57994210
In       2.97961675       2.97961675       0.26087758
P        1.48980838       4.46942513       1.69371743
In       0.00000000       0.00000000       0.26087758
In       0.00000000       2.97961675       3.12833661
P        4.46942513       1.48980838       7.46931848
In       2.97961675       0.00000000       8.91354231
P        1.48980838       1.48980838      10.35788634
P        4.46942513       4.46942513      10.35788634
In       2.97961675       2.97961675       6.02341020
P        1.48980838       4.46942513       7.46931848
In       0.00000000       0.00000000       6.02341020
In       0.00000000       2.97961675       8.91354231
P        4.46942513       1.48980838      13.24411977
In       2.97961675       0.00000000      14.71270110
P        1.48980838       1.48980838      16.14050701
P        4.46942513       4.46942513      16.14050701
In       2.97961675       2.97961675      11.80299387
P        1.48980838       4.46942513      13.24411977
In       0.00000000       0.00000000      11.80299387
In       0.00000000       2.97961675      14.71270110
24
Lattice="5.959233503412287 0.0 0.0 0.0 5.959233503412287 0.0 0.0 1.4153179570604184 17.877700510236863" Properties=species:S:1:pos:R:3 energy=-99.95862313795985 pbc="T T T"
P        4.46942513       1.48980838       1.70297922
In       2.97961675       0.00000000       3.13456967
P        1.48980838       1.48980838       4.58457073
P        4.46942513       4.46942513       4.58457073
In       2.97961675       2.97961675       0.26998354
P        1.48980838       4.46942513       1.70297922
In       0.00000000       0.00000000       0.26998354
In       0.00000000       2.97961675       3.13456967
P        4.46942513       1.48980838       7.47017275
In       2.97961675       0.00000000       8.91251152
P        1.48980838       1.48980838      10.35496594
P        4.46942513       4.46942513      10.35496594
In       2.97961675       2.97961675       6.02612390
P        1.48980838       4.46942513       7.47017275
In       0.00000000       0.00000000       6.02612390
In       0.00000000       2.97961675       8.91251152
P        4.46942513       1.48980838      13.23732047
In       2.97961675       0.00000000      14.70459025
P        1.48980838       1.48980838      16.13132478
P        4.46942513       4.46942513      16.13132478
In       2.97961675       2.97961675      11.79824004
P        1.48980838       4.46942513      13.23732047
In       0.00000000       0.00000000      11.79824004
In       0.00000000       2.97961675      14.70459025
24
Lattice="5.959233503412287 0.0 0.0 0.0 5.959233503412287 0.0 0.0 1.4898083758530718 17.877700510236863" Properties=species:S:1:pos:R:3 energy=-99.86375894627795 pbc="T T T"
P        4.46942513       1.48980838       1.71154151
In       2.97961675       0.00000000       3.14019748
P        1.48980838       1.48980838       4.58877917
P        4.46942513       4.46942513       4.58877917
In       2.97961675       2.97961675       0.27778886
P        1.48980838       4.46942513       1.71154151
In       0.00000000       0.00000000       0.27778886