24
Lattice="4.213814420936895 0.0 0.0 0.0 4.213814420936895 0.0 0.0 0.0 35.75540102047373" Properties=species:S:1:pos:R:3 energy=-102.3570560220125 pbc="T T T"
P        2.10690721       0.00000000       4.46942513
In       0.00000000       0.00000000       0.00000000
P        0.00000000       2.10690721       1.48980838
In       2.10690721       2.10690721       2.97961675
P        2.10690721       0.00000000      10.42865863
In       0.00000000       0.00000000       5.95923350
P        0.00000000       2.10690721       7.44904188
In       2.10690721       2.10690721       8.93885026
P        2.10690721       0.00000000      16.38789213
In       0.00000000       0.00000000      11.91846701
P        0.00000000       2.10690721      13.40827538
In       2.10690721       2.10690721      14.89808376
P        2.10690721       0.00000000      22.34712564
In       0.00000000       0.00000000      17.87770051
P        0.00000000       2.10690721      19.36750889
In       2.10690721       2.10690721      20.85731726
P        2.10690721       0.00000000      28.30635914
In       0.00000000       0.00000000      23.83693401
P        0.00000000       2.10690721      25.32674239
In       2.10690721       2.10690721      26.81655077
P        2.10690721       0.00000000      34.26559264
In       0.00000000       0.00000000      29.79616752
P        0.00000000       2.10690721      31.28597589
In       2.10690721       2.10690721      32.77578427
24
Lattice="4.213814420936895 0.0 0.0 0.0 4.213814420936895 0.0 0.0 0.052672680261711194 35.75540102047373" Properties=species:S:1:pos:R:3 energy=-102.35588971342105 pbc="T T T"
P        2.10690721       0.00000000       4.46943197
In       0.00000000       0.00000000      -0.00024386
P        0.00000000       2.10690721       1.48982917
In       2.10690721       2.10690721       2.97960091
P        2.10690721       0.00000000      10.42865863
In       0.00000000       0.00000000       5.95923330
P        0.00000000       2.10690721       7.44904214
In       2.10690721       2.10690721       8.93885024
P        2.10690721       0.00000000      16.38789213
In       0.00000000       0.00000000      11.91846701
P        0.00000000       2.10690721      13.40827538
In       2.10690721       2.10690721      14.89808376
P        2.10690721       0.00000000      22.34712564
In       0.00000000       0.00000000      17.87770051
P        0.00000000       2.10690721      19.36750889
In       2.10690721       2.10690721      20.85731726
P        2.10690721       0.00000000      28.30635796
In       0.00000000       0.00000000      23.83693400
P        0.00000000       2.10690721      25.32674258
In       2.10690721       2.10690721      26.81655032
P        2.10690721       0.00000000      34.26584320
In       0.00000000       0.00000000      29.79617061
P        0.00000000       2.10690721      31.28596600
In       2.10690721       2.10690721      32.77577398
24
Lattice="4.213814420936895 0.0 0.0 0.0 4.213814420936895 0.0 0.0 0.10534536052342239 35.75540102047373" Properties=species:S:1:pos:R:3 energy=-102.35238710290128 pbc="T T T"
P        2.10690721       0.00000000       4.46943400
In       0.00000000       0.00000000      -0.00095440
P        0.00000000       2.10690721       1.48968550
In       2.10690721       2.10690721       2.97953584
P        2.10690721       0.00000000      10.42865869
In       0.00000000       0.00000000       5.95924071
P        0.00000000       2.10690721       7.44904306
In       2.10690721       2.10690721       8.93885014
P        2.10690721       0.00000000      16.38789214
In       0.00000000       0.00000000      11.91846694
P        0.00000000       2.10690721      13.40827539
In       2.10690721       2.10690721      14.89808375
P        2.10690721       0.00000000      22.34712583
In       0.00000000       0.00000000      17.87770051
P        0.00000000       2.10690721      19.36750888
In       2.10690721       2.10690721      20.85731729
P        2.10690721       0.00000000      28.30634856
In       0.00000000       0.00000000      23.83693384
P        0.00000000       2.10690721      25.32674228
In       2.10690721       2.10690721      26.81654720
P        2.10690721       0.00000000      34.26655245
In       0.00000000       0.00000000      29.79617920
P        0.00000000       2.10690721      31.28597668
In       2.10690721       2.10690721      32.77596725
24
Lattice="4.213814420936895 0.0 0.0 0.0 4.213814420936895 0.0 0.0 0.1580180407851336 35.75540102047373" Properties=species:S:1:pos:R:3 energy=-102.34653922059235 pbc="T T T"
P        2.10690721       0.00000000       4.46917017
In       0.00000000       0.00000000      -0.00232957
P        0.00000000       2.10690721       1.48896699
In       2.10690721       2.10690721       2.97891026
P        2.10690721       0.00000000      10.42866206
In       0.00000000       0.00000000       5.95917182
P        0.00000000       2.10690721       7.44903532
In       2.10690721       2.10690721       8.93885349
P        2.10690721       0.00000000      16.38789213
In       0.00000000       0.00000000      11.91846735
P        0.00000000       2.10690721      13.40827552
In       2.10690721       2.10690721      14.89808375
P        2.10690721       0.00000000      22.34712424
In       0.00000000       0.00000000      17.87770056
P        0.00000000       2.10690721      19.36750910
In       2.10690721       2.10690721      20.85731736
P        2.10690721       0.00000000      28.30640681
In       0.00000000       0.00000000      23.83692933
P        0.00000000       2.10690721      25.32672967
In       2.10690721       2.10690721      26.81653764
P        2.10690721       0.00000000      34.26787679
In       0.00000000       0.00000000      29.79644274
P        0.00000000       2.10690721      31.28654237
In       2.10690721       2.10690721      32.77683584
24
Lattice="4.213814420936895 0.0 0.0 0.0 4.213814420936895 0.0 0.0 0.21069072104684478 35.75540102047373" Properties=species:S:1:pos:R:3 energy=-102.33833177147369 pbc="T T T"
P        2.10690721       0.00000000       4.46821498
In       0.00000000       0.00000000      -0.00429066
P        0.00000000       2.10690721       1.48800673
In       2.10690721       2.10690721       2.97763832
P        2.10690721       0.00000000      10.42864033
In       0.00000000       0.00000000       5.95853490
P        0.00000000       2.10690721       7.44871107
In       2.10690721       2.10690721       8.93874617
P        2.10690721       0.00000000      16.38789279
In       0.00000000       0.00000000      11.91846924
P        0.00000000       2.10690721      13.40828035
In       2.10690721       2.10690721      14.89808518
P        2.10690721       0.00000000      22.34711163
In       0.00000000       0.00000000      17.87770029
P        0.00000000       2.10690721      19.36750606
In       2.10690721       2.10690721      20.85731085
P        2.10690721       0.00000000      28.30704168
In       0.00000000       0.00000000      23.83693266
P        0.00000000       2.10690721      25.32682076
In       2.10690721       2.10690721      26.81682205
P        2.10690721       0.00000000      34.26985757
In       0.00000000       0.00000000      29.79746721
P        0.00000000       2.10690721      31.28766077
In       2.10690721       2.10690721      32.77795081
24
Lattice="4.213814420936895 0.0 0.0 0.0 4.213814420936895 0.0 0.0 0.26336340130855596 35.75540102047373" Properties=species:S:1:pos:R:3 energy=-102.327748616772 pbc="T T T"
P        2.10690721       0.00000000       4.46672186
In       0.00000000       0.00000000      -0.00669221
P        0.00000000       2.10690721       1.48688689
In       2.10690721       2.10690721       2.97620322
P        2.10690721       0.00000000      10.42795049
In       0.00000000       0.00000000       5.95690164
P        0.00000000       2.10690721       7.44723712
In       2.10690721       2.10690721       8.93762882
P        2.10690721       0.00000000      16.38788381
In       0.00000000       0.00000000      11.91813709
P        0.00000000       2.10690721      13.40814875
In       2.10690721       2.10690721      14.89805021
P        2.10690721       0.00000000      22.34742586
In       0.00000000       0.00000000      17.87769609
P        0.00000000       2.10690721      19.36752380
In       2.10690721       2.10690721      20.85741084
P        2.10690721       0.00000000      28.30864028
In       0.00000000       0.00000000      23.83758607
P        0.00000000       2.10690721      25.32792482
In       2.10690721       2.10690721      26.81830402
P        2.10690721       0.00000000      34.27226161
In       0.00000000       0.00000000      29.79901260
P        0.00000000       2.10690721      31.28897578
In       2.10690721       2.10690721      32.77929228
24
Lattice="4.213814420936895 0.0 0.0 0.0 4.213814420936895 0.0 0.0 0.3160360815702672 35.75540102047373" Properties=species:S:1:pos:R:3 energy=-102.31476987755427 pbc="T T T"
P        2.10690721       0.00000000       4.46519160
In       0.00000000       0.00000000      -0.00972504
P        0.00000000       2.10690721       1.48533739
In       2.10690721       2.10690721       2.97442904
P        2.10690721       0.00000000      10.42644739
In       0.00000000       0.00000000       5.95549218
P        0.00000000       2.10690721       7.44583685
In       2.10690721       2.10690721       8.93608924
P        2.10690721       0.00000000      16.38768554
In       0.00000000       0.00000000      11.91666626
P        0.00000000       2.10690721      13.40709957
In       2.10690721       2.10690721      14.89746505
P        2.10690721       0.00000000      22.34884678
In       0.00000000       0.00000000      17.87782955
P        0.00000000       2.10690721      19.36809456
In       2.10690721       2.10690721      20.85845692
P        2.10690721       0.00000000      28.31008361
In       0.00000000       0.00000000      23.83908736
P        0.00000000       2.10690721      25.32944206
In       2.10690721       2.10690721      26.81967878
P        2.10690721       0.00000000      34.27524033
In       0.00000000       0.00000000      29.80063145
P        0.00000000       2.10690721      31.29058401
In       2.10690721       2.10690721      32.78112122
24
Lattice="4.213814420936895 0.0 0.0 0.0 4.213814420936895 0.0 0.0 0.36870876183197837 35.75540102047373" Properties=species:S:1:pos:R:3 energy=-102.29937326172626 pbc="T T T"
P        2.10690721       0.00000000       4.46374638
In       0.00000000       0.00000000      -0.01325841
P        0.00000000       2.10690721       1.48381689
In       2.10690721       2.10690721       2.97255719
P        2.10690721       0.00000000      10.42558217
In       0.00000000       0.00000000       5.95415530
P        0.00000000       2.10690721       7.44463349
In       2.10690721       2.10690721       8.93512696
P        2.10690721       0.00000000      16.38754266
In       0.00000000       0.00000000      11.91605607
P        0.00000000       2.10690721      13.40656945
In       2.10690721       2.10690721      14.89709799
P        2.10690721       0.00000000      22.34945335
In       0.00000000       0.00000000      17.87796844
P        0.00000000       2.10690721      19.36844439
In       2.10690721       2.10690721      20.85896519
P        2.10690721       0.00000000      28.31140458
In       0.00000000       0.00000000      23.83992688
P        0.00000000       2.10690721      25.33040158
In       2.10690721       2.10690721      26.82087280
P        2.10690721       0.00000000      34.27863394
In       0.00000000       0.00000000      29.80216546
P        0.00000000       2.10690721      31.29225826
In       2.10690721       2.10690721      32.78299073
24
Lattice="4.213814420936895 0.0 0.0 0.0 4.213814420936895 0.0 0.0 0.42138144209368955 35.75540102047373" Properties=species:S:1:pos:R:3 energy=-102.2815437377963 pbc="T T T"
P        2.10690721       0.00000000       4.46209805
In       0.00000000       0.00000000      -0.01732293
P        0.00000000       2.10690721       1.48208618
In       2.10690721       2.10690721       2.97048551
P        2.10690721       0.00000000      10.42469097
In       0.00000000       0.00000000       5.95268030
P        0.00000000       2.10690721       7.44335400
In       2.10690721       2.10690721       8.93404727
P        2.10690721       0.00000000      16.38744673
In       0.00000000       0.00000000      11.91535894
P        0.00000000       2.10690721      13.40607659
In       2.10690721       2.10690721      14.89681585
P        2.10690721       0.00000000      22.35013758
In       0.00000000       0.00000000      17.87805387
P        0.00000000       2.10690721      19.36872515
In       2.10690721       2.10690721      20.85945293
P        2.10690721       0.00000000      28.31288002
In       0.00000000       0.00000000      23.84080370
P        0.00000000       2.10690721      25.33147452
In       2.10690721       2.10690721      26.82213913
P        2.10690721       0.00000000      34.28250089
In       0.00000000       0.00000000      29.80392221
P        0.00000000       2.10690721      31.29409234
In       2.10690721       2.10690721      32.78511192
24
Lattice="4.213814420936895 0.0 0.0 0.0 4.213814420936895 0.0 0.0 0.47405412235540073 35.75540102047373" Properties=species:S:1:pos:R:3 energy=-102.26126912634771 pbc="T T T"
P        2.10690721       0.00000000       4.46027927
In       0.00000000       0.00000000      -0.02192540
P        0.00000000       2.10690721       1.48018107
In       2.10690721       2.10690721       2.96818717
P        2.10690721       0.00000000      10.42370935
In       0.00000000       0.00000000       5.95105319
P        0.00000000       2.10690721       7.44194440
In       2.10690721       2.10690721       8.93285783
P        2.10690721       0.00000000      16.38734591
In       0.00000000       0.00000000      11.91459185
P        0.00000000       2.10690721      13.40553783
In       2.10690721       2.10690721      14.89651150
P        2.10690721       0.00000000      22.35089650
In       0.00000000       0.00000000      17.87814988
P        0.00000000       2.10690721      19.36903526
In       2.10690721       2.10690721      20.85999215
P        2.10690721       0.00000000      28.31451392
In       0.00000000       0.00000000      23.84177517
P        0.00000000       2.10690721      25.33266168
In       2.10690721       2.10690721      26.82353951
P        2.10690721       0.00000000      34.28681531
In       0.00000000       0.00000000      29.80587008
P        0.00000000       2.10690721      31.29612051
In       2.10690721       2.10690721      32.78746779
24
Lattice="4.213814420936895 0.0 0.0 0.0 4.213814420936895 0.0 0.0 0.5267268026171119 35.75540102047373" Properties=species:S:1:pos:R:3 energy=-102.23854271414213 pbc="T T T"
P        2.10690721       0.00000000       4.45830855
In       0.00000000       0.00000000      -0.02705819
P        0.00000000       2.10690721       1.47812204
In       2.10690721       2.10690721       2.96568107
P        2.10690721       0.00000000      10.42264845
In       0.00000000       0.00000000       5.94929111
P        0.00000000       2.10690721       7.44042114
In       2.10690721       2.10690721       8.93157219
P        2.10690721       0.00000000      16.38724425
In       0.00000000       0.00000000      11.91376373
P        0.00000000       2.10690721      13.40496324
In       2.10690721       2.10690721      14.89619384
P        2.10690721       0.00000000      22.35172282
In       0.00000000       0.00000000      17.87825407
P        0.00000000       2.10690721      19.36936803
In       2.10690721       2.10690721      20.86057460
P        2.10690721       0.00000000      28.31629152
In       0.00000000       0.00000000      23.84283220
P        0.00000000       2.10690721      25.33395000
In       2.10690721       2.10690721      26.82505837
P        2.10690721       0.00000000      34.29155423
In       0.00000000       0.00000000      29.80799292
P        0.00000000       2.10690721      31.29832260
In       2.10690721       2.10690721      32.79003896
24
Lattice="4.213814420936895 0.0 0.0 0.0 4.213814420936895 0.0 0.0 0.5793994828788231 35.75540102047373" Properties=species:S:1:pos:R:3 energy=-102.21336479726462 pbc="T T T"
P        2.10690721       0.00000000       4.45620705
In       0.00000000       0.00000000      -0.03270864
P        0.00000000       2.10690721       1.47593355
In       2.10690721       2.10690721       2.96298832
P        2.10690721       0.00000000      10.42152126
In       0.00000000       0.00000000       5.94741478
P        0.00000000       2.10690721       7.43880409
In       2.10690721       2.10690721       8.93020537
P        2.10690721       0.00000000      16.38714638
In       0.00000000       0.00000000      11.91288617
P        0.00000000       2.10690721      13.40436591
In       2.10690721       2.10690721      14.89587378
P        2.10690721       0.00000000      22.35260645
In       0.00000000       0.00000000      17.87836311
P        0.00000000       2.10690721      19.36971447
In       2.10690721       2.10690721      20.86118889
P        2.10690721       0.00000000      28.31819454
In       0.00000000       0.00000000      23.84396399
P        0.00000000       2.10690721      25.33532405
In       2.10690721       2.10690721      26.82667641
P        2.10690721       0.00000000      34.29669270
In       0.00000000       0.00000000      29.81027199
P        0.00000000       2.10690721      31.30067553
In       2.10690721       2.10690721      32.79280163
24
Lattice="4.213814420936895 0.0 0.0 0.0 4.213814420936895 0.0 0.0 0.6320721631405344 35.75540102047373" Properties=species:S:1:pos:R:3 energy=-102.18574359153521 pbc="T T T"
P        2.10690721       0.00000000       4.45408640
In       0.00000000       0.00000000      -0.03884326
P        0.00000000       2.10690721       1.47360690
In       2.10690721       2.10690721       2.96009403
P        2.10690721       0.00000000      10.42014742
In       0.00000000       0.00000000       5.94558684
P        0.00000000       2.10690721       7.43699230
In       2.10690721       2.10690721       8.92847061
P        2.10690721       0.00000000      16.38704257
In       0.00000000       0.00000000      11.91194633
P        0.00000000       2.10690721      13.40378864
In       2.10690721       2.10690721      14.89552033
P        2.10690721       0.00000000      22.35361233
In       0.00000000       0.00000000      17.87850198
P        0.00000000       2.10690721      19.37006486
In       2.10690721       2.10690721      20.86177250
P        2.10690721       0.00000000      28.32007918
In       0.00000000       0.00000000      23.84540303
P        0.00000000       2.10690721      25.33702510
In       2.10690721       2.10690721      26.82845247
P        2.10690721       0.00000000      34.30213397
In       0.00000000       0.00000000      29.81259017
P        0.00000000       2.10690721      31.30322423
In       2.10690721       2.10690721      32.79581281
24
Lattice="4.213814420936895 0.0 0.0 0.0 4.213814420936895 0.0 0.0 0.6847448434022455 35.75540102047373" Properties=species:S:1:pos:R:3 energy=-102.15569918888846 pbc="T T T"
P        2.10690721       0.00000000       4.45169561
In       0.00000000       0.00000000      -0.04538972
P        0.00000000       2.10690721       1.47130086
In       2.10690721       2.10690721       2.95705906
P        2.10690721       0.00000000      10.41900656
In       0.00000000       0.00000000       5.94346778
P        0.00000000       2.10690721       7.43525644
In       2.10690721       2.10690721       8.92710154
P        2.10690721       0.00000000      16.38685601
In       0.00000000       0.00000000      11.91095508
P        0.00000000       2.10690721      13.40296142
In       2.10690721       2.10690721      14.89494469
P        2.10690721       0.00000000      22.35461591
In       0.00000000       0.00000000      17.87874330
P        0.00000000       2.10690721      19.37066626
In       2.10690721       2.10690721      20.86263208
P        2.10690721       0.00000000      28.32223991
In       0.00000000       0.00000000      23.84655308
P        0.00000000       2.10690721      25.33844812
In       2.10690721       2.10690721      26.83022261
P        2.10690721       0.00000000      34.30791799
In       0.00000000       0.00000000      29.81520152
P        0.00000000       2.10690721      31.30583174
In       2.10690721       2.10690721      32.79882388
24
Lattice="4.213814420936895 0.0 0.0 0.0 4.213814420936895 0.0 0.0 0.7374175236639567 35.75540102047373" Properties=species:S:1:pos:R:3 energy=-102.12325911058244 pbc="T T T"
P        2.10690721       0.00000000       4.44934830
In       0.00000000       0.00000000      -0.05238125
P        0.00000000       2.10690721       1.46890759
In       2.10690721       2.10690721       2.95395520
P        2.10690721       0.00000000      10.41772341
In       0.00000000       0.00000000       5.94138103
P        0.00000000       2.10690721       7.43342698
In       2.10690721       2.10690721       8.92553713
P        2.10690721       0.00000000      16.38674550
In       0.00000000       0.00000000      11.90996583
P        0.00000000       2.10690721      13.40227624
In       2.10690721       2.10690721      14.89455610
P        2.10690721       0.00000000      22.35564452
In       0.00000000       0.00000000      17.87890453
P        0.00000000       2.10690721      19.37110725
In       2.10690721       2.10690721      20.86336347
P        2.10690721       0.00000000      28.32438291
In       0.00000000       0.00000000      23.84787079
P        0.00000000       2.10690721      25.34004260
In       2.10690721       2.10690721      26.83207233
P        2.10690721       0.00000000      34.31398560
In       0.00000000       0.00000000      29.81778857
P        0.00000000       2.10690721      31.30850043
In       2.10690721       2.10690721      32.80200666
24
Lattice="4.213814420936895 0.0 0.0 0.0 4.213814420936895 0.0 0.0 0.7900902039256679 35.75540102047373" Properties=species:S:1:pos:R:3 energy=-102.08846673456839 pbc="T T T"
P        2.10690721       0.00000000       4.44698060
In       0.00000000       0.00000000      -0.05972474
P        0.00000000       2.10690721       1.46651897
In       2.10690721       2.10690721       2.95078608
P        2.10690721       0.00000000      10.41642689
In       0.00000000       0.00000000       5.93927523
P        0.00000000       2.10690721       7.43157894
In       2.10690721       2.10690721       8.92395556
P        2.10690721       0.00000000      16.38664062
In       0.00000000       0.00000000      11.90896888
P        0.00000000       2.10690721      13.40158955
In       2.10690721       2.10690721      14.89417086
P        2.10690721       0.00000000      22.35668971
In       0.00000000       0.00000000      17.87907270
P        0.00000000       2.10690721      19.37155715
In       2.10690721       2.10690721      20.86410698
P        2.10690721       0.00000000      28.32655363
In       0.00000000       0.00000000      23.84920928
P        0.00000000       2.10690721      25.34166076
In       2.10690721       2.10690721      26.83394682
P        2.10690721       0.00000000      34.32028066
In       0.00000000       0.00000000      29.82041564
P        0.00000000       2.10690721      31.31119885
In       2.10690721       2.10690721      32.80525212
24
Lattice="4.213814420936895 0.0 0.0 0.0 4.213814420936895 0.0 0.0 0.8427628841873791 35.75540102047373" Properties=species:S:1:pos:R:3 energy=-102.05137965992012 pbc="T T T"
P        2.10690721       0.00000000       4.44462908
In       0.00000000       0.00000000      -0.06734627
P        0.00000000       2.10690721       1.46417912
In       2.10690721       2.10690721       2.94759293
P        2.10690721       0.00000000      10.41513604
In       0.00000000       0.00000000       5.93718250
P        0.00000000       2.10690721       7.42973999
In       2.10690721       2.10690721       8.92238015
P        2.10690721       0.00000000      16.38654332
In       0.00000000       0.00000000      11.90797913
P        0.00000000       2.10690721      13.40091205
In       2.10690721       2.10690721      14.89379534
P        2.10690721       0.00000000      22.35773513
In       0.00000000       0.00000000      17.87924524
P        0.00000000       2.10690721      19.37200877
In       2.10690721       2.10690721      20.86485079
P        2.10690721       0.00000000      28.32871820
In       0.00000000       0.00000000      23.85054776
P        0.00000000       2.10690721      25.34327752
In       2.10690721       2.10690721      26.83581674
P        2.10690721       0.00000000      34.32674693
In       0.00000000       0.00000000      29.82304355
P        0.00000000       2.10690721      31.31388396
In       2.10690721       2.10690721      32.80851376
24
Lattice="4.213814420936895 0.0 0.0 0.0 4.213814420936895 0.0 0.0 0.8954355644490903 35.75540102047373" Properties=species:S:1:pos:R:3 energy=-102.0120726492094 pbc="T T T"
P        2.10690721       0.00000000       4.44233509
In       0.00000000       0.00000000      -0.07515493
P        0.00000000       2.10690721       1.46193733
In       2.10690721       2.10690721       2.94442252
P        2.10690721       0.00000000      10.41387194
In       0.00000000       0.00000000       5.93513913
P        0.00000000       2.10690721       7.42794107
In       2.10690721       2.10690721       8.92083670
P        2.10690721       0.00000000      16.38645558
In       0.00000000       0.00000000      11.90701319
P        0.00000000       2.10690721      13.40025578
In       2.10690721       2.10690721      14.89343675
P        2.10690721       0.00000000      22.35876201
In       0.00000000       0.00000000      17.87941873
P        0.00000000       2.10690721      19.37245337
In       2.10690721       2.10690721      20.86558099
P        2.10690721       0.00000000      28.33083794
In       0.00000000       0.00000000      23.85186276
P        0.00000000       2.10690721      25.34486448
In       2.10690721       2.10690721      26.83764871
P        2.10690721       0.00000000      34.33331925
In       0.00000000       0.00000000      29.82562741
P        0.00000000       2.10690721      31.31650690
In       2.10690721       2.10690721      32.81173900
24
Lattice="4.213814420936895 0.0 0.0 0.0 4.213814420936895 0.0 0.0 0.9481082447108015 35.75540102047373" Properties=species:S:1:pos:R:3 energy=-101.97064018624832 pbc="T T T"
P        2.10690721       0.00000000       4.44014528
In       0.00000000       0.00000000      -0.08304174
P        0.00000000       2.10690721       1.45984874
In       2.10690721       2.10690721       2.94132795
P        2.10690721       0.00000000      10.41265811
In       0.00000000       0.00000000       5.93318591
P        0.00000000       2.10690721       7.42621681
In       2.10690721       2.10690721       8.91935397
P        2.10690721       0.00000000      16.38637940
In       0.00000000       0.00000000      11.90608974
P        0.00000000       2.10690721      13.39963433
In       2.10690721       2.10690721      14.89310316
P        2.10690721       0.00000000      22.35974887
In       0.00000000       0.00000000      17.87958890
P        0.00000000       2.10690721      19.37288053
In       2.10690721       2.10690721      20.86628138
P        2.10690721       0.00000000      28.33286899
In       0.00000000       0.00000000      23.85312767
P        0.00000000       2.10690721      25.34638963
In       2.10690721       2.10690721      26.83940500
P        2.10690721       0.00000000      34.33992196
In       0.00000000       0.00000000      29.82811610
P        0.00000000       2.10690721      31.31901240
In       2.10690721       2.10690721      32.81486866
24
Lattice="4.213814420936895 0.0 0.0 0.0 4.213814420936895 0.0 0.0 1.0007809249725128 35.75540102047373" Properties=species:S:1:pos:R:3 energy=-101.92720072242993 pbc="T T T"
P        2.10690721       0.00000000       4.43801991
In       0.00000000       0.00000000      -0.09086054
P        0.00000000       2.10690721       1.45807487
In       2.10690721       2.10690721       2.93839895
P        2.10690721       0.00000000      10.41173797
In       0.00000000       0.00000000       5.93124893
P        0.00000000       2.10690721       7.42463562
In       2.10690721       2.10690721       8.91816494
P        2.10690721       0.00000000      16.38624647
In       0.00000000       0.00000000      11.90533151
P        0.00000000       2.10690721      13.39899660
In       2.10690721       2.10690721      14.89264856
P        2.10690721       0.00000000      22.36056579
In       0.00000000       0.00000000      17.87981507
P        0.00000000       2.10690721      19.37338965
In       2.10690721       2.10690721      20.86697996
P        2.10690721       0.00000000      28.33485263
In       0.00000000       0.00000000      23.85410840
P        0.00000000       2.10690721      25.34768719
In       2.10690721       2.10690721      26.84105705
P        2.10690721       0.00000000      34.34647532
In       0.00000000       0.00000000      29.83051280
P        0.00000000       2.10690721      31.32128575
In       2.10690721       2.10690721      32.81773832
24
Lattice="4.213814420936895 0.0 0.0 0.0 4.213814420936895 0.0 0.0 1.0534536052342238 35.75540102047373" Properties=species:S:1:pos:R:3 energy=-101.88189805034672 pbc="T T T"
P        2.10690721       0.00000000       4.43617950
In       0.00000000       0.00000000      -0.09849947
P        0.00000000       2.10690721       1.45649581
In       2.10690721       2.10690721       2.93563532
P        2.10690721       0.00000000      10.41073458
In       0.00000000       0.00000000       5.92960224
P        0.00000000       2.10690721       7.42319366