24
Lattice="5.959233503412287 0.0 0.0 0.0 4.213814420936895 0.0 0.0 0.0 25.282886525621365" Properties=species:S:1:pos:R:3 energy=-102.3570560220125 pbc="T T T"
P        4.46942513       2.10690721       0.00000000
In       0.00000000       0.00000000       0.00000000
P        1.48980838       0.00000000       2.10690721
In       2.97961675       2.10690721       2.10690721
P        4.46942513       2.10690721       4.21381442
In       0.00000000       0.00000000       4.21381442
P        1.48980838       0.00000000       6.32072163
In       2.97961675       2.10690721       6.32072163
P        4.46942513       2.10690721       8.42762884
In       0.00000000       0.00000000       8.42762884
P        1.48980838       0.00000000      10.53453605
In       2.97961675       2.10690721      10.53453605
P        4.46942513       2.10690721      12.64144326
In       0.00000000       0.00000000      12.64144326
P        1.48980838       0.00000000      14.74835047
In       2.97961675       2.10690721      14.74835047
P        4.46942513       2.10690721      16.85525768
In       0.00000000       0.00000000      16.85525768
P        1.48980838       0.00000000      18.96216489
In       2.97961675       2.10690721      18.96216489
P        4.46942513       2.10690721      21.06907210
In       0.00000000       0.00000000      21.06907210
P        1.48980838       0.00000000      23.17597932
In       2.97961675       2.10690721      23.17597932
24
Lattice="5.959233503412287 0.0 0.0 0.0 4.213814420936895 0.0 0.0 0.052672680261711194 25.282886525621365" Properties=species:S:1:pos:R:3 energy=-102.35590393975875 pbc="T T T"
P        4.46942513       2.10690721      -0.00013367
In       0.00000000       0.00000000      -0.00009602
P        1.48980838       0.00000000       2.10689513
In       2.97961675       2.10690721       2.10688649
P        4.46942513       2.10690721       4.21382030
In       0.00000000       0.00000000       4.21381064
P        1.48980838       0.00000000       6.32072344
In       2.97961675       2.10690721       6.32072143
P        4.46942513       2.10690721       8.42762889
In       0.00000000       0.00000000       8.42762893
P        1.48980838       0.00000000      10.53453601
In       2.97961675       2.10690721      10.53453606
P        4.46942513       2.10690721      12.64144331
In       0.00000000       0.00000000      12.64144325
P        1.48980838       0.00000000      14.74835042
In       2.97961675       2.10690721      14.74835039
P        4.46942513       2.10690721      16.85525588
In       0.00000000       0.00000000      16.85525788
P        1.48980838       0.00000000      18.96215901
In       2.97961675       2.10690721      18.96216867
P        4.46942513       2.10690721      21.06908418
In       0.00000000       0.00000000      21.06909283
P        1.48980838       0.00000000      23.17611299
In       2.97961675       2.10690721      23.17607533
24
Lattice="5.959233503412287 0.0 0.0 0.0 4.213814420936895 0.0 0.0 0.10534536052342239 25.282886525621365" Properties=species:S:1:pos:R:3 energy=-102.35244188134945 pbc="T T T"
P        4.46942513       2.10690721      -0.00066017
In       0.00000000       0.00000000      -0.00048556
P        1.48980838       0.00000000       2.10671509
In       2.97961675       2.10690721       2.10662969
P        4.46942513       2.10690721       4.21378947
In       0.00000000       0.00000000       4.21377113
P        1.48980838       0.00000000       6.32072384
In       2.97961675       2.10690721       6.32072713
P        4.46942513       2.10690721       8.42763123
In       0.00000000       0.00000000       8.42763118
P        1.48980838       0.00000000      10.53453658
In       2.97961675       2.10690721      10.53453624
P        4.46942513       2.10690721      12.64144274
In       0.00000000       0.00000000      12.64144307
P        1.48980838       0.00000000      14.74834808
In       2.97961675       2.10690721      14.74834814
P        4.46942513       2.10690721      16.85525548
In       0.00000000       0.00000000      16.85525218
P        1.48980838       0.00000000      18.96218984
In       2.97961675       2.10690721      18.96220818
P        4.46942513       2.10690721      21.06926423
In       0.00000000       0.00000000      21.06934963
P        1.48980838       0.00000000      23.17663949
In       2.97961675       2.10690721      23.17646488
24
Lattice="5.959233503412287 0.0 0.0 0.0 4.213814420936895 0.0 0.0 0.1580180407851336 25.282886525621365" Properties=species:S:1:pos:R:3 energy=-102.34665738490379 pbc="T T T"
P        4.46942513       2.10690721      -0.00177445
In       0.00000000       0.00000000      -0.00126045
P        1.48980838       0.00000000       2.10580953
In       2.97961675       2.10690721       2.10529731
P        4.46942513       2.10690721       4.21295739
In       0.00000000       0.00000000       4.21310916
P        1.48980838       0.00000000       6.32042475
In       2.97961675       2.10690721       6.32040036
P        4.46942513       2.10690721       8.42755229
In       0.00000000       0.00000000       8.42756981
P        1.48980838       0.00000000      10.53452779
In       2.97961675       2.10690721      10.53453436
P        4.46942513       2.10690721      12.64145152
In       0.00000000       0.00000000      12.64144495
P        1.48980838       0.00000000      14.74842702
In       2.97961675       2.10690721      14.74840951
P        4.46942513       2.10690721      16.85555456
In       0.00000000       0.00000000      16.85557896
P        1.48980838       0.00000000      18.96302192
In       2.97961675       2.10690721      18.96287016
P        4.46942513       2.10690721      21.07016979
In       0.00000000       0.00000000      21.07068200
P        1.48980838       0.00000000      23.17775376
In       2.97961675       2.10690721      23.17723976
24
Lattice="5.959233503412287 0.0 0.0 0.0 4.213814420936895 0.0 0.0 0.21069072104684478 25.282886525621365" Properties=species:S:1:pos:R:3 energy=-102.33853036243278 pbc="T T T"
P        4.46942513       2.10690721      -0.00309213
In       0.00000000       0.00000000      -0.00202050
P        1.48980838       0.00000000       2.10507678
In       2.97961675       2.10690721       2.10426968
P        4.46942513       2.10690721       4.21201270
In       0.00000000       0.00000000       4.21221113
P        1.48980838       0.00000000       6.31969670
In       2.97961675       2.10690721       6.31950320
P        4.46942513       2.10690721       8.42705128
In       0.00000000       0.00000000       8.42717609
P        1.48980838       0.00000000      10.53440980
In       2.97961675       2.10690721      10.53441164
P        4.46942513       2.10690721      12.64156951
In       0.00000000       0.00000000      12.64156767
P        1.48980838       0.00000000      14.74892803
In       2.97961675       2.10690721      14.74880323
P        4.46942513       2.10690721      16.85628262
In       0.00000000       0.00000000      16.85647612
P        1.48980838       0.00000000      18.96396662
In       2.97961675       2.10690721      18.96376818
P        4.46942513       2.10690721      21.07090253
In       0.00000000       0.00000000      21.07170963
P        1.48980838       0.00000000      23.17907144
In       2.97961675       2.10690721      23.17799981
24
Lattice="5.959233503412287 0.0 0.0 0.0 4.213814420936895 0.0 0.0 0.26336340130855596 25.282886525621365" Properties=species:S:1:pos:R:3 energy=-102.32803548556987 pbc="T T T"
P        4.46942513       2.10690721      -0.00491679
In       0.00000000       0.00000000      -0.00327487
P        1.48980838       0.00000000       2.10385965
In       2.97961675       2.10690721       2.10257631
P        4.46942513       2.10690721       4.21085580
In       0.00000000       0.00000000       4.21120801
P        1.48980838       0.00000000       6.31893485
In       2.97961675       2.10690721       6.31865348
P        4.46942513       2.10690721       8.42648621
In       0.00000000       0.00000000       8.42666473
P        1.48980838       0.00000000      10.53423951
In       2.97961675       2.10690721      10.53417493
P        4.46942513       2.10690721      12.64173981
In       0.00000000       0.00000000      12.64180439
P        1.48980838       0.00000000      14.74949310
In       2.97961675       2.10690721      14.74931459
P        4.46942513       2.10690721      16.85704447
In       0.00000000       0.00000000      16.85732584
P        1.48980838       0.00000000      18.96512351
In       2.97961675       2.10690721      18.96477131
P        4.46942513       2.10690721      21.07211966
In       0.00000000       0.00000000      21.07340301
P        1.48980838       0.00000000      23.18089611
In       2.97961675       2.10690721      23.17925418
24
Lattice="5.959233503412287 0.0 0.0 0.0 4.213814420936895 0.0 0.0 0.3160360815702672 25.282886525621365" Properties=species:S:1:pos:R:3 energy=-102.31514708508116 pbc="T T T"
P        4.46942513       2.10690721      -0.00701410
In       0.00000000       0.00000000      -0.00467218
P        1.48980838       0.00000000       2.10255146
In       2.97961675       2.10690721       2.10074117
P        4.46942513       2.10690721       4.20960652
In       0.00000000       0.00000000       4.21009049
P        1.48980838       0.00000000       6.31817685
In       2.97961675       2.10690721       6.31778489
P        4.46942513       2.10690721       8.42601000
In       0.00000000       0.00000000       8.42625936
P        1.48980838       0.00000000      10.53411449
In       2.97961675       2.10690721      10.53402716
P        4.46942513       2.10690721      12.64186483
In       0.00000000       0.00000000      12.64195216
P        1.48980838       0.00000000      14.74996932
In       2.97961675       2.10690721      14.74971995
P        4.46942513       2.10690721      16.85780247
In       0.00000000       0.00000000      16.85819443
P        1.48980838       0.00000000      18.96637280
In       2.97961675       2.10690721      18.96588882
P        4.46942513       2.10690721      21.07342786
In       0.00000000       0.00000000      21.07523814
P        1.48980838       0.00000000      23.18299341
In       2.97961675       2.10690721      23.18065149
24
Lattice="5.959233503412287 0.0 0.0 0.0 4.213814420936895 0.0 0.0 0.36870876183197837 25.282886525621365" Properties=species:S:1:pos:R:3 energy=-102.29984303613426 pbc="T T T"
P        4.46942513       2.10690721      -0.00943905
In       0.00000000       0.00000000      -0.00638223
P        1.48980838       0.00000000       2.10106083
In       2.97961675       2.10690721       2.09872572
P        4.46942513       2.10690721       4.20826672
In       0.00000000       0.00000000       4.20886344
P        1.48980838       0.00000000       6.31722518
In       2.97961675       2.10690721       6.31673546
P        4.46942513       2.10690721       8.42528713
In       0.00000000       0.00000000       8.42559574
P        1.48980838       0.00000000      10.53389747
In       2.97961675       2.10690721      10.53372161
P        4.46942513       2.10690721      12.64208185
In       0.00000000       0.00000000      12.64225770
P        1.48980838       0.00000000      14.75069219
In       2.97961675       2.10690721      14.75038358
P        4.46942513       2.10690721      16.85875413
In       0.00000000       0.00000000      16.85924386
P        1.48980838       0.00000000      18.96771260
In       2.97961675       2.10690721      18.96711588
P        4.46942513       2.10690721      21.07491848
In       0.00000000       0.00000000      21.07725360
P        1.48980838       0.00000000      23.18541836
In       2.97961675       2.10690721      23.18236154
24
Lattice="5.959233503412287 0.0 0.0 0.0 4.213814420936895 0.0 0.0 0.42138144209368955 25.282886525621365" Properties=species:S:1:pos:R:3 energy=-102.28210351694216 pbc="T T T"
P        4.46942513       2.10690721      -0.01217924
In       0.00000000       0.00000000      -0.00826179
P        1.48980838       0.00000000       2.09934337
In       2.97961675       2.10690721       2.09635909
P        4.46942513       2.10690721       4.20666976
In       0.00000000       0.00000000       4.20740494
P        1.48980838       0.00000000       6.31620422
In       2.97961675       2.10690721       6.31558692
P        4.46942513       2.10690721       8.42461403
In       0.00000000       0.00000000       8.42500493
P        1.48980838       0.00000000      10.53371113
In       2.97961675       2.10690721      10.53349049
P        4.46942513       2.10690721      12.64226819
In       0.00000000       0.00000000      12.64248882
P        1.48980838       0.00000000      14.75136529
In       2.97961675       2.10690721      14.75097438
P        4.46942513       2.10690721      16.85977510
In       0.00000000       0.00000000      16.86039239
P        1.48980838       0.00000000      18.96930956
In       2.97961675       2.10690721      18.96857437
P        4.46942513       2.10690721      21.07663595
In       0.00000000       0.00000000      21.07962023
P        1.48980838       0.00000000      23.18815856
In       2.97961675       2.10690721      23.18424110
24
Lattice="5.959233503412287 0.0 0.0 0.0 4.213814420936895 0.0 0.0 0.47405412235540073 25.282886525621365" Properties=species:S:1:pos:R:3 energy=-102.26191803693956 pbc="T T T"
P        4.46942513       2.10690721      -0.01520444
In       0.00000000       0.00000000      -0.01036448
P        1.48980838       0.00000000       2.09743389
In       2.97961675       2.10690721       2.09373516
P        4.46942513       2.10690721       4.20490500
In       0.00000000       0.00000000       4.20578085
P        1.48980838       0.00000000       6.31507102
In       2.97961675       2.10690721       6.31431714
P        4.46942513       2.10690721       8.42387014
In       0.00000000       0.00000000       8.42435060
P        1.48980838       0.00000000      10.53350481
In       2.97961675       2.10690721      10.53323565
P        4.46942513       2.10690721      12.64247451
In       0.00000000       0.00000000      12.64274367
P        1.48980838       0.00000000      14.75210917
In       2.97961675       2.10690721      14.75162871
P        4.46942513       2.10690721      16.86090830
In       0.00000000       0.00000000      16.86166218
P        1.48980838       0.00000000      18.97107431
In       2.97961675       2.10690721      18.97019847
P        4.46942513       2.10690721      21.07854543
In       0.00000000       0.00000000      21.08224415
P        1.48980838       0.00000000      23.19118375
In       2.97961675       2.10690721      23.18634379
24
Lattice="5.959233503412287 0.0 0.0 0.0 4.213814420936895 0.0 0.0 0.5267268026171119 25.282886525621365" Properties=species:S:1:pos:R:3 energy=-102.23928596406027 pbc="T T T"
P        4.46942513       2.10690721      -0.01848804
In       0.00000000       0.00000000      -0.01268229
P        1.48980838       0.00000000       2.09534641
In       2.97961675       2.10690721       2.09086837
P        4.46942513       2.10690721       4.20298482
In       0.00000000       0.00000000       4.20400216
P        1.48980838       0.00000000       6.31383371
In       2.97961675       2.10690721       6.31293473
P        4.46942513       2.10690721       8.42306022
In       0.00000000       0.00000000       8.42363771
P        1.48980838       0.00000000      10.53328033
In       2.97961675       2.10690721      10.53295829
P        4.46942513       2.10690721      12.64269898
In       0.00000000       0.00000000      12.64302103
P        1.48980838       0.00000000      14.75291910
In       2.97961675       2.10690721      14.75234161
P        4.46942513       2.10690721      16.86214560
In       0.00000000       0.00000000      16.86304459
P        1.48980838       0.00000000      18.97299450
In       2.97961675       2.10690721      18.97197716
P        4.46942513       2.10690721      21.08063291
In       0.00000000       0.00000000      21.08511095
P        1.48980838       0.00000000      23.19446735
In       2.97961675       2.10690721      23.18866160
24
Lattice="5.959233503412287 0.0 0.0 0.0 4.213814420936895 0.0 0.0 0.5793994828788231 25.282886525621365" Properties=species:S:1:pos:R:3 energy=-102.21421983102205 pbc="T T T"
P        4.46942513       2.10690721      -0.02197811
In       0.00000000       0.00000000      -0.01533372
P        1.48980838       0.00000000       2.09309127
In       2.97961675       2.10690721       2.08784085
P        4.46942513       2.10690721       4.20106434
In       0.00000000       0.00000000       4.20219107
P        1.48980838       0.00000000       6.31253909
In       2.97961675       2.10690721       6.31156009
P        4.46942513       2.10690721       8.42215560
In       0.00000000       0.00000000       8.42278461
P        1.48980838       0.00000000      10.53300628
In       2.97961675       2.10690721      10.53257865
P        4.46942513       2.10690721      12.64297304
In       0.00000000       0.00000000      12.64340067
P        1.48980838       0.00000000      14.75382371
In       2.97961675       2.10690721      14.75319470
P        4.46942513       2.10690721      16.86344023
In       0.00000000       0.00000000      16.86441922
P        1.48980838       0.00000000      18.97491498
In       2.97961675       2.10690721      18.97378824
P        4.46942513       2.10690721      21.08288804
In       0.00000000       0.00000000      21.08813847
P        1.48980838       0.00000000      23.19795742
In       2.97961675       2.10690721      23.19131303
24
Lattice="5.959233503412287 0.0 0.0 0.0 4.213814420936895 0.0 0.0 0.6320721631405344 25.282886525621365" Properties=species:S:1:pos:R:3 energy=-102.18674532885423 pbc="T T T"
P        4.46942513       2.10690721      -0.02569273
In       0.00000000       0.00000000      -0.01806323
P        1.48980838       0.00000000       2.09070567
In       2.97961675       2.10690721       2.08454772
P        4.46942513       2.10690721       4.19890011
In       0.00000000       0.00000000       4.20016749
P        1.48980838       0.00000000       6.31112955
In       2.97961675       2.10690721       6.31000078
P        4.46942513       2.10690721       8.42122255
In       0.00000000       0.00000000       8.42195337
P        1.48980838       0.00000000      10.53274399
In       2.97961675       2.10690721      10.53224548
P        4.46942513       2.10690721      12.64323533
In       0.00000000       0.00000000      12.64373384
P        1.48980838       0.00000000      14.75475676
In       2.97961675       2.10690721      14.75402594
P        4.46942513       2.10690721      16.86484977
In       0.00000000       0.00000000      16.86597854
P        1.48980838       0.00000000      18.97707920
In       2.97961675       2.10690721      18.97581183
P        4.46942513       2.10690721      21.08527365
In       0.00000000       0.00000000      21.09143159
P        1.48980838       0.00000000      23.20167205
In       2.97961675       2.10690721      23.19404254
24
Lattice="5.959233503412287 0.0 0.0 0.0 4.213814420936895 0.0 0.0 0.6847448434022455 25.282886525621365" Properties=species:S:1:pos:R:3 energy=-102.15690591990236 pbc="T T T"
P        4.46942513       2.10690721      -0.02957948
In       0.00000000       0.00000000      -0.02095810
P        1.48980838       0.00000000       2.08820387
In       2.97961675       2.10690721       2.08106187
P        4.46942513       2.10690721       4.19662454
In       0.00000000       0.00000000       4.19803832
P        1.48980838       0.00000000       6.30964933
In       2.97961675       2.10690721       6.30836023
P        4.46942513       2.10690721       8.42024012
In       0.00000000       0.00000000       8.42108185
P        1.48980838       0.00000000      10.53247016
In       2.97961675       2.10690721      10.53189297
P        4.46942513       2.10690721      12.64350916
In       0.00000000       0.00000000      12.64408635
P        1.48980838       0.00000000      14.75573920
In       2.97961675       2.10690721      14.75489746
P        4.46942513       2.10690721      16.86632999
In       0.00000000       0.00000000      16.86761908
P        1.48980838       0.00000000      18.97935478
In       2.97961675       2.10690721      18.97794099
P        4.46942513       2.10690721      21.08777544
In       0.00000000       0.00000000      21.09491745
P        1.48980838       0.00000000      23.20555880
In       2.97961675       2.10690721      23.19693741
24
Lattice="5.959233503412287 0.0 0.0 0.0 4.213814420936895 0.0 0.0 0.7374175236639567 25.282886525621365" Properties=species:S:1:pos:R:3 energy=-102.12476266601749 pbc="T T T"
P        4.46942513       2.10690721      -0.03364186
In       0.00000000       0.00000000      -0.02392059
P        1.48980838       0.00000000       2.08564934
In       2.97961675       2.10690721       2.07729561
P        4.46942513       2.10690721       4.19426257
In       0.00000000       0.00000000       4.19590804
P        1.48980838       0.00000000       6.30819382
In       2.97961675       2.10690721       6.30668372
P        4.46942513       2.10690721       8.41921928
In       0.00000000       0.00000000       8.42018386
P        1.48980838       0.00000000      10.53219290
In       2.97961675       2.10690721      10.53149240
P        4.46942513       2.10690721      12.64378641
In       0.00000000       0.00000000      12.64448692
P        1.48980838       0.00000000      14.75676003
In       2.97961675       2.10690721      14.75579545
P        4.46942513       2.10690721      16.86778549
In       0.00000000       0.00000000      16.86929559
P        1.48980838       0.00000000      18.98171674
In       2.97961675       2.10690721      18.98007128
P        4.46942513       2.10690721      21.09032997
In       0.00000000       0.00000000      21.09868370
P        1.48980838       0.00000000      23.20962118
In       2.97961675       2.10690721      23.19989990
24
Lattice="5.959233503412287 0.0 0.0 0.0 4.213814420936895 0.0 0.0 0.7900902039256679 25.282886525621365" Properties=species:S:1:pos:R:3 energy=-102.09039740464303 pbc="T T T"
P        4.46942513       2.10690721      -0.03778802
In       0.00000000       0.00000000      -0.02704001
P        1.48980838       0.00000000       2.08300166
In       2.97961675       2.10690721       2.07347473
P        4.46942513       2.10690721       4.19181831
In       0.00000000       0.00000000       4.19364595
P        1.48980838       0.00000000       6.30662750
In       2.97961675       2.10690721       6.30491975
P        4.46942513       2.10690721       8.41815578
In       0.00000000       0.00000000       8.41926582
P        1.48980838       0.00000000      10.53191035
In       2.97961675       2.10690721      10.53110064
P        4.46942513       2.10690721      12.64406896
In       0.00000000       0.00000000      12.64487868
P        1.48980838       0.00000000      14.75782354
In       2.97961675       2.10690721      14.75671350
P        4.46942513       2.10690721      16.86935181
In       0.00000000       0.00000000      16.87105957
P        1.48980838       0.00000000      18.98416101
In       2.97961675       2.10690721      18.98233337
P        4.46942513       2.10690721      21.09297766
In       0.00000000       0.00000000      21.10250459
P        1.48980838       0.00000000      23.21376734
In       2.97961675       2.10690721      23.20301932
24
Lattice="5.959233503412287 0.0 0.0 0.0 4.213814420936895 0.0 0.0 0.8427628841873791 25.282886525621365" Properties=species:S:1:pos:R:3 energy=-102.05391312059066 pbc="T T T"
P        4.46942513       2.10690721      -0.04201941
In       0.00000000       0.00000000      -0.03021485
P        1.48980838       0.00000000       2.08032742
In       2.97961675       2.10690721       2.06952891
P        4.46942513       2.10690721       4.18931621
In       0.00000000       0.00000000       4.19135013
P        1.48980838       0.00000000       6.30503919
In       2.97961675       2.10690721       6.30311219
P        4.46942513       2.10690721       8.41706432
In       0.00000000       0.00000000       8.41834027
P        1.48980838       0.00000000      10.53162912
In       2.97961675       2.10690721      10.53069435
P        4.46942513       2.10690721      12.64435020
In       0.00000000       0.00000000      12.64528496
P        1.48980838       0.00000000      14.75891499
In       2.97961675       2.10690721      14.75763904
P        4.46942513       2.10690721      16.87094012
In       0.00000000       0.00000000      16.87286713
P        1.48980838       0.00000000      18.98666310
In       2.97961675       2.10690721      18.98462918
P        4.46942513       2.10690721      21.09565189
In       0.00000000       0.00000000      21.10645041
P        1.48980838       0.00000000      23.21799873
In       2.97961675       2.10690721      23.20619417
24
Lattice="5.959233503412287 0.0 0.0 0.0 4.213814420936895 0.0 0.0 0.8954355644490903 25.282886525621365" Properties=species:S:1:pos:R:3 energy=-102.01543837669513 pbc="T T T"
P        4.46942513       2.10690721      -0.04602956
In       0.00000000       0.00000000      -0.03390312
P        1.48980838       0.00000000       2.07737478
In       2.97961675       2.10690721       2.06578009
P        4.46942513       2.10690721       4.18684807
In       0.00000000       0.00000000       4.18877776
P        1.48980838       0.00000000       6.30323207
In       2.97961675       2.10690721       6.30144527
P        4.46942513       2.10690721       8.41607957
In       0.00000000       0.00000000       8.41724999
P        1.48980838       0.00000000      10.53125258
In       2.97961675       2.10690721      10.53036762
P        4.46942513       2.10690721      12.64472674
In       0.00000000       0.00000000      12.64561169
P        1.48980838       0.00000000      14.75989975
In       2.97961675       2.10690721      14.75872933
P        4.46942513       2.10690721      16.87274725
In       0.00000000       0.00000000      16.87453405
P        1.48980838       0.00000000      18.98913124
In       2.97961675       2.10690721      18.98720156
P        4.46942513       2.10690721      21.09860453
In       0.00000000       0.00000000      21.11019922
P        1.48980838       0.00000000      23.22200888
In       2.97961675       2.10690721      23.20988244
24
Lattice="5.959233503412287 0.0 0.0 0.0 4.213814420936895 0.0 0.0 0.9481082447108015 25.282886525621365" Properties=species:S:1:pos:R:3 energy=-101.97512312352237 pbc="T T T"
P        4.46942513       2.10690721      -0.05032198
In       0.00000000       0.00000000      -0.03709796
P        1.48980838       0.00000000       2.07472987
In       2.97961675       2.10690721       2.06169622
P        4.46942513       2.10690721       4.18430340
In       0.00000000       0.00000000       4.18646616
P        1.48980838       0.00000000       6.30162867
In       2.97961675       2.10690721       6.29962921
P        4.46942513       2.10690721       8.41499249
In       0.00000000       0.00000000       8.41628950
P        1.48980838       0.00000000      10.53095321
In       2.97961675       2.10690721      10.52996134
P        4.46942513       2.10690721      12.64502610
In       0.00000000       0.00000000      12.64601798
P        1.48980838       0.00000000      14.76098682
In       2.97961675       2.10690721      14.75968982
P        4.46942513       2.10690721      16.87435064
In       0.00000000       0.00000000      16.87635011
P        1.48980838       0.00000000      18.99167592
In       2.97961675       2.10690721      18.98951316
P        4.46942513       2.10690721      21.10124945
In       0.00000000       0.00000000      21.11428310
P        1.48980838       0.00000000      23.22630130
In       2.97961675       2.10690721      23.21307727
24
Lattice="5.959233503412287 0.0 0.0 0.0 4.213814420936895 0.0 0.0 1.0007809249725128 25.282886525621365" Properties=species:S:1:pos:R:3 energy=-101.93314899392671 pbc="T T T"
P        4.46942513       2.10690721      -0.05461933
In       0.00000000       0.00000000      -0.04019088
P        1.48980838       0.00000000       2.07216575
In       2.97961675       2.10690721       2.05757827
P        4.46942513       2.10690721       4.18176927
In       0.00000000       0.00000000       4.18420489
P        1.48980838       0.00000000       6.30005869
In       2.97961675       2.10690721       6.29782180
P        4.46942513       2.10690721       8.41390987
In       0.00000000       0.00000000       8.41534736
P        1.48980838       0.00000000      10.53066293
In       2.97961675       2.10690721      10.52954945
P        4.46942513       2.10690721      12.64531639
In       0.00000000       0.00000000      12.64642987
P        1.48980838       0.00000000      14.76206945
In       2.97961675       2.10690721      14.76063196
P        4.46942513       2.10690721      16.87592063
In       0.00000000       0.00000000      16.87815752
P        1.48980838       0.00000000      18.99421004
In       2.97961675       2.10690721      18.99177443
P        4.46942513       2.10690721      21.10381357
In       0.00000000       0.00000000      21.11840104
P        1.48980838       0.00000000      23.23059864
In       2.97961675       2.10690721      23.21617020
24
Lattice="5.959233503412287 0.0 0.0 0.0 4.213814420936895 0.0 0.0 1.0534536052342238 25.282886525621365" Properties=species:S:1:pos:R:3 energy=-101.88972630823109 pbc="T T T"
P        4.46942513       2.10690721      -0.05881315
In       0.00000000       0.00000000      -0.04320622
P        1.48980838       0.00000000       2.06959314
In       2.97961675       2.10690721       2.05355917
P        4.46942513       2.10690721       4.17938955
In       0.00000000       0.00000000       4.18191759