24
Lattice="4.213814420936895 0.0 0.0 0.0 7.298540670729132 -4.440892098500626e-16 0.0 0.0 20.643390404153525" Properties=species:S:1:pos:R:3 energy=-102.35705602201251 pbc="T T T"
In       2.10690721       3.64927034       0.00000000
P        2.10690721       3.64927034       2.58042380
In       0.00000000       0.00000000       0.00000000
P        0.00000000       0.00000000       2.58042380
In      -0.00000000       2.43284689       3.44056507
P        0.00000000       2.43284689       6.02098887
In       2.10690721       6.08211723       3.44056507
P        2.10690721       6.08211723       6.02098887
In       2.10690721       1.21642345       6.88113013
P        2.10690721       1.21642345       9.46155394
In       0.00000000       4.86569378       6.88113013
P        0.00000000       4.86569378       9.46155394
In       2.10690721       3.64927034      10.32169520
P        2.10690721       3.64927034      12.90211900
In       0.00000000       0.00000000      10.32169520
P        0.00000000       0.00000000      12.90211900
In      -0.00000000       2.43284689      13.76226027
P        0.00000000       2.43284689      16.34268407
In       2.10690721       6.08211723      13.76226027
P        2.10690721       6.08211723      16.34268407
In       2.10690721       1.21642345      17.20282534
P        2.10690721       1.21642345      19.78324914
In       0.00000000       4.86569378      17.20282534
P        0.00000000       4.86569378      19.78324914
24
Lattice="4.213814420936895 0.0 0.0 0.0 7.298540670729132 -4.440892098500626e-16 0.0 0.03041058612803805 20.643390404153525" Properties=species:S:1:pos:R:3 energy=-102.35159093149734 pbc="T T T"
In       2.10690721       3.64927034       0.00043171
P        2.10690721       3.64927034       2.58057802
In       0.00000000       0.00000000       0.00043171
P        0.00000000       0.00000000       2.58057802
In      -0.00000000       2.43284689       3.44056788
P        0.00000000       2.43284689       6.02099739
In       2.10690721       6.08211723       3.44056788
P        2.10690721       6.08211723       6.02099739
In       2.10690721       1.21642345       6.88113067
P        2.10690721       1.21642345       9.46155439
In       0.00000000       4.86569378       6.88113067
P        0.00000000       4.86569378       9.46155439
In       2.10690721       3.64927034      10.32169565
P        2.10690721       3.64927034      12.90211919
In       0.00000000       0.00000000      10.32169565
P        0.00000000       0.00000000      12.90211919
In      -0.00000000       2.43284689      13.76224879
P        0.00000000       2.43284689      16.34263135
In       2.10690721       6.08211723      13.76224879
P        2.10690721       6.08211723      16.34263135
In       2.10690721       1.21642345      17.20267832
P        2.10690721       1.21642345      19.78286146
In       0.00000000       4.86569378      17.20267832
P        0.00000000       4.86569378      19.78286146
24
Lattice="4.213814420936895 0.0 0.0 0.0 7.298540670729132 -4.440892098500626e-16 0.0 0.0608211722560761 20.643390404153525" Properties=species:S:1:pos:R:3 energy=-102.33558898472985 pbc="T T T"
In       2.10690721       3.64927034       0.00216815
P        2.10690721       3.64927034       2.58186956
In       0.00000000       0.00000000       0.00216815
P        0.00000000       0.00000000       2.58186956
In      -0.00000000       2.43284689       3.44159278
P        0.00000000       2.43284689       6.02178557
In       2.10690721       6.08211723       3.44159278
P        2.10690721       6.08211723       6.02178557
In       2.10690721       1.21642345       6.88145925
P        2.10690721       1.21642345       9.46165974
In       0.00000000       4.86569378       6.88145925
P        0.00000000       4.86569378       9.46165974
In       2.10690721       3.64927034      10.32152209
P        2.10690721       3.64927034      12.90165588
In       0.00000000       0.00000000      10.32152209
P        0.00000000       0.00000000      12.90165588
In      -0.00000000       2.43284689      13.76133032
P        0.00000000       2.43284689      16.34147244
In       2.10690721       6.08211723      13.76133032
P        2.10690721       6.08211723      16.34147244
In       2.10690721       1.21642345      17.20144835
P        2.10690721       1.21642345      19.78153069
In       0.00000000       4.86569378      17.20144835
P        0.00000000       4.86569378      19.78153069
24
Lattice="4.213814420936895 0.0 0.0 0.0 7.298540670729132 -4.440892098500626e-16 0.0 0.09123175838411403 20.643390404153525" Properties=species:S:1:pos:R:3 energy=-102.3096710624287 pbc="T T T"
In       2.10690721       3.64927034       0.00482459
P        2.10690721       3.64927034       2.58365756
In       0.00000000      -0.00000000       0.00482459
P        0.00000000       0.00000000       2.58365756
In      -0.00000000       2.43284689       3.44281701
P        0.00000000       2.43284689       6.02280947
In       2.10690721       6.08211723       3.44281701
P        2.10690721       6.08211723       6.02280947
In       2.10690721       1.21642345       6.88194864
P        2.10690721       1.21642345       9.46185787
In       0.00000000       4.86569378       6.88194864
P        0.00000000       4.86569378       9.46185787
In       2.10690721       3.64927034      10.32119519
P        2.10690721       3.64927034      12.90102963
In       0.00000000      -0.00000000      10.32119519
P        0.00000000       0.00000000      12.90102963
In      -0.00000000       2.43284689      13.76017457
P        0.00000000       2.43284689      16.34001691
In       2.10690721       6.08211723      13.76017457
P        2.10690721       6.08211723      16.34001691
In       2.10690721       1.21642345      17.19973239
P        2.10690721       1.21642345      19.77943098
In       0.00000000       4.86569378      17.19973239
P        0.00000000       4.86569378      19.77943098
24
Lattice="4.213814420936895 0.0 0.0 0.0 7.298540670729132 -4.440892098500626e-16 0.0 0.1216423445121522 20.643390404153525" Properties=species:S:1:pos:R:3 energy=-102.27450961721401 pbc="T T T"
In       2.10690721       3.64927034       0.00843630
P        2.10690721       3.64927034       2.58607351
In       0.00000000       0.00000000       0.00843630
P        0.00000000       0.00000000       2.58607351
In      -0.00000000       2.43284689       3.44450300
P        0.00000000       2.43284689       6.02416908
In       2.10690721       6.08211723       3.44450300
P        2.10690721       6.08211723       6.02416908
In       2.10690721       1.21642345       6.88255982
P        2.10690721       1.21642345       9.46208542
In       0.00000000       4.86569378       6.88255982
P        0.00000000       4.86569378       9.46208542
In       2.10690721       3.64927034      10.32082013
P        2.10690721       3.64927034      12.90021613
In       0.00000000       0.00000000      10.32082013
P        0.00000000       0.00000000      12.90021613
In      -0.00000000       2.43284689      13.75861612
P        0.00000000       2.43284689      16.33802461
In       2.10690721       6.08211723      13.75861612
P        2.10690721       6.08211723      16.33802461
In       2.10690721       1.21642345      17.19742392
P        2.10690721       1.21642345      19.77656679
In       0.00000000       4.86569378      17.19742392
P        0.00000000       4.86569378      19.77656679
24
Lattice="4.213814420936895 0.0 0.0 0.0 7.298540670729132 -4.440892098500626e-16 0.0 0.15205293064019024 20.643390404153525" Properties=species:S:1:pos:R:3 energy=-102.23083319666051 pbc="T T T"
In       2.10690721       3.64927034       0.01303508
P        2.10690721       3.64927034       2.58919156
In       0.00000000       0.00000000       0.01303508
P        0.00000000       0.00000000       2.58919156
In      -0.00000000       2.43284689       3.44660979
P        0.00000000       2.43284689       6.02593151
In       2.10690721       6.08211723       3.44660979
P        2.10690721       6.08211723       6.02593151
In       2.10690721       1.21642345       6.88357811
P        2.10690721       1.21642345       9.46246473
In       0.00000000       4.86569378       6.88357811
P        0.00000000       4.86569378       9.46246473
In       2.10690721       3.64927034      10.32015809
P        2.10690721       3.64927034      12.89899498
In       0.00000000       0.00000000      10.32015809
P        0.00000000       0.00000000      12.89899498
In      -0.00000000       2.43284689      13.75666178
P        0.00000000       2.43284689      16.33550933
In       2.10690721       6.08211723      13.75666178
P        2.10690721       6.08211723      16.33550933
In       2.10690721       1.21642345      17.19441309
P        2.10690721       1.21642345      19.77294678
In       0.00000000       4.86569378      17.19441309
P        0.00000000       4.86569378      19.77294678
24
Lattice="4.213814420936895 0.0 0.0 0.0 7.298540670729132 -4.440892098500626e-16 0.0 0.18246351676822808 20.643390404153525" Properties=species:S:1:pos:R:3 energy=-102.17944046101479 pbc="T T T"
In       2.10690721       3.64927034       0.01846967
P        2.10690721       3.64927034       2.59284148
In       0.00000000      -0.00000000       0.01846967
P        0.00000000       0.00000000       2.59284148
In      -0.00000000       2.43284689       3.44914477
P        0.00000000       2.43284689       6.02797893
In       2.10690721       6.08211723       3.44914477
P        2.10690721       6.08211723       6.02797893
In       2.10690721       1.21642345       6.88456509
P        2.10690721       1.21642345       9.46287792
In       0.00000000       4.86569378       6.88456509
P        0.00000000       4.86569378       9.46287792
In       2.10690721       3.64927034      10.31949479
P        2.10690721       3.64927034      12.89771530
In       0.00000000      -0.00000000      10.31949479
P        0.00000000       0.00000000      12.89771530
In      -0.00000000       2.43284689      13.75432930
P        0.00000000       2.43284689      16.33252124
In       2.10690721       6.08211723      13.75432930
P        2.10690721       6.08211723      16.33252124
In       2.10690721       1.21642345      17.19093665
P        2.10690721       1.21642345      19.76861968
In       0.00000000       4.86569378      17.19093665
P        0.00000000       4.86569378      19.76861968
24
Lattice="4.213814420936895 0.0 0.0 0.0 7.298540670729132 -4.440892098500626e-16 0.0 0.21287410289626604 20.643390404153525" Properties=species:S:1:pos:R:3 energy=-102.121219030573 pbc="T T T"
In       2.10690721       3.64927034       0.02471433
P        2.10690721       3.64927034       2.59707505
In       0.00000000      -0.00000000       0.02471433
P        0.00000000       0.00000000       2.59707505
In      -0.00000000       2.43284689       3.45205882
P        0.00000000       2.43284689       6.03035858
In       2.10690721       6.08211723       3.45205882
P        2.10690721       6.08211723       6.03035858
In       2.10690721       1.21642345       6.88576038
P        2.10690721       1.21642345       9.46328461
In       0.00000000       4.86569378       6.88576038
P        0.00000000       4.86569378       9.46328461
In       2.10690721       3.64927034      10.31877628
P        2.10690721       3.64927034      12.89620275
In       0.00000000      -0.00000000      10.31877628
P        0.00000000      -0.00000000      12.89620275
In      -0.00000000       2.43284689      13.75163710
P        0.00000000       2.43284689      16.32907913
In       2.10690721       6.08211723      13.75163710
P        2.10690721       6.08211723      16.32907913
In       2.10690721       1.21642345      17.18690181
P        2.10690721       1.21642345      19.76364597
In       0.00000000       4.86569378      17.18690181
P        0.00000000       4.86569378      19.76364597
24
Lattice="4.213814420936895 0.0 0.0 0.0 7.298540670729132 -4.440892098500626e-16 0.0 0.2432846890243044 20.643390404153525" Properties=species:S:1:pos:R:3 energy=-102.05712867500094 pbc="T T T"
In       2.10690721       3.64927034       0.03172517
P        2.10690721       3.64927034       2.60184160
In       0.00000000       0.00000000       0.03172517
P        0.00000000       0.00000000       2.60184160
In      -0.00000000       2.43284689       3.45535645
P        0.00000000       2.43284689       6.03302637
In       2.10690721       6.08211723       3.45535645
P        2.10690721       6.08211723       6.03302637
In       2.10690721       1.21642345       6.88707071
P        2.10690721       1.21642345       9.46378122
In       0.00000000       4.86569378       6.88707071
P        0.00000000       4.86569378       9.46378122
In       2.10690721       3.64927034      10.31794305
P        2.10690721       3.64927034      12.89452533
In       0.00000000       0.00000000      10.31794305
P        0.00000000       0.00000000      12.89452533
In      -0.00000000       2.43284689      13.74860613
P        0.00000000       2.43284689      16.32520574
In       2.10690721       6.08211723      13.74860613
P        2.10690721       6.08211723      16.32520574
In       2.10690721       1.21642345      17.18239096
P        2.10690721       1.21642345      19.75802210
In       0.00000000       4.86569378      17.18239096
P        0.00000000       4.86569378      19.75802210
24
Lattice="4.213814420936895 0.0 0.0 0.0 7.298540670729132 -4.440892098500626e-16 0.0 0.27369527515234243 20.643390404153525" Properties=species:S:1:pos:R:3 energy=-101.98814798810461 pbc="T T T"
In       2.10690721       3.64927034       0.03937918
P        2.10690721       3.64927034       2.60708661
In       0.00000000       0.00000000       0.03937918
P        0.00000000       0.00000000       2.60708661
In      -0.00000000       2.43284689       3.45898531
P        0.00000000       2.43284689       6.03595298
In       2.10690721       6.08211723       3.45898531
P        2.10690721       6.08211723       6.03595298
In       2.10690721       1.21642345       6.88850386
P        2.10690721       1.21642345       9.46432792
In       0.00000000       4.86569378       6.88850386
P        0.00000000       4.86569378       9.46432792
In       2.10690721       3.64927034      10.31702842
P        2.10690721       3.64927034      12.89268957
In       0.00000000       0.00000000      10.31702842
P        0.00000000       0.00000000      12.89268957
In      -0.00000000       2.43284689      13.74527781
P        0.00000000       2.43284689      16.32095738
In       2.10690721       6.08211723      13.74527781
P        2.10690721       6.08211723      16.32095738
In       2.10690721       1.21642345      17.17745862
P        2.10690721       1.21642345      19.75184715
In       0.00000000       4.86569378      17.17745862
P        0.00000000       4.86569378      19.75184715
24
Lattice="4.213814420936895 0.0 0.0 0.0 7.298540670729132 -4.440892098500626e-16 0.0 0.3041058612803805 20.643390404153525" Properties=species:S:1:pos:R:3 energy=-101.91521503188805 pbc="T T T"
In       2.10690721       3.64927034       0.04754333
P        2.10690721       3.64927034       2.61273834
In       0.00000000       0.00000000       0.04754333
P        0.00000000       0.00000000       2.61273834
In      -0.00000000       2.43284689       3.46289387
P        0.00000000       2.43284689       6.03909477
In       2.10690721       6.08211723       3.46289387
P        2.10690721       6.08211723       6.03909477
In       2.10690721       1.21642345       6.89003747
P        2.10690721       1.21642345       9.46491669
In       0.00000000       4.86569378       6.89003747
P        0.00000000       4.86569378       9.46491669
In       2.10690721       3.64927034      10.31604550
P        2.10690721       3.64927034      12.89072330
In       0.00000000       0.00000000      10.31604550
P        0.00000000       0.00000000      12.89072330
In      -0.00000000       2.43284689      13.74170023
P        0.00000000       2.43284689      16.31639627
In       2.10690721       6.08211723      13.74170023
P        2.10690721       6.08211723      16.31639627
In       2.10690721       1.21642345      17.17218278
P        2.10690721       1.21642345      19.74522229
In       0.00000000       4.86569378      17.17218278
P        0.00000000       4.86569378      19.74522229
24
Lattice="4.213814420936895 0.0 0.0 0.0 7.298540670729132 -4.440892098500626e-16 0.0 0.3345164474084185 20.643390404153525" Properties=species:S:1:pos:R:3 energy=-101.83919768268153 pbc="T T T"
In       2.10690721       3.64927034       0.05609302
P        2.10690721       3.64927034       2.61872835
In       0.00000000       0.00000000       0.05609302
P        0.00000000       0.00000000       2.61872835
In      -0.00000000       2.43284689       3.46703271
P        0.00000000       2.43284689       6.04241008
In       2.10690721       6.08211723       3.46703271
P        2.10690721       6.08211723       6.04241008
In       2.10690721       1.21642345       6.89165092
P        2.10690721       1.21642345       9.46553987
In       0.00000000       4.86569378       6.89165092
P        0.00000000       4.86569378       9.46553987
In       2.10690721       3.64927034      10.31500660
P        2.10690721       3.64927034      12.88865235
In       0.00000000       0.00000000      10.31500660
P        0.00000000       0.00000000      12.88865235
In      -0.00000000       2.43284689      13.73791968
P        0.00000000       2.43284689      16.31158125
In       2.10690721       6.08211723      13.73791968
P        2.10690721       6.08211723      16.31158125
In       2.10690721       1.21642345      17.16663455
P        2.10690721       1.21642345      19.73824544
In       0.00000000       4.86569378      17.16663455
P        0.00000000       4.86569378      19.73824544
24
Lattice="4.213814420936895 0.0 0.0 0.0 7.298540670729132 -4.440892098500626e-16 0.0 0.364927033536456 20.643390404153525" Properties=species:S:1:pos:R:3 energy=-101.76089565424844 pbc="T T T"
In       2.10690721       3.64927034       0.06492616
P        2.10690721       3.64927034       2.62499835
In       0.00000000      -0.00000000       0.06492616
P        0.00000000       0.00000000       2.62499835
In      -0.00000000       2.43284689       3.47135949
P        0.00000000       2.43284689       6.04586356
In       2.10690721       6.08211723       3.47135949
P        2.10690721       6.08211723       6.04586356
In       2.10690721       1.21642345       6.89332741
P        2.10690721       1.21642345       9.46619099
In       0.00000000       4.86569378       6.89332741
P        0.00000000       4.86569378       9.46619099
In       2.10690721       3.64927034      10.31392197
P        2.10690721       3.64927034      12.88649799
In       0.00000000      -0.00000000      10.31392197
P        0.00000000      -0.00000000      12.88649799
In      -0.00000000       2.43284689      13.73397579
P        0.00000000       2.43284689      16.30656191
In       2.10690721       6.08211723      13.73397579
P        2.10690721       6.08211723      16.30656191
In       2.10690721       1.21642345      17.16087111
P        2.10690721       1.21642345      19.73100010
In       0.00000000       4.86569378      17.16087111
P        0.00000000       4.86569378      19.73100010
24
Lattice="4.213814420936895 0.0 0.0 0.0 7.298540670729132 -4.440892098500626e-16 0.0 0.39533761966449404 20.643390404153525" Properties=species:S:1:pos:R:3 energy=-101.68105633034065 pbc="T T T"
In       2.10690721       3.64927034       0.07396347
P        2.10690721       3.64927034       2.63149907
In       0.00000000      -0.00000000       0.07396347
P        0.00000000      -0.00000000       2.63149907
In      -0.00000000       2.43284689       3.47583818
P        0.00000000       2.43284689       6.04942591
In       2.10690721       6.08211723       3.47583818
P        2.10690721       6.08211723       6.04942591
In       2.10690721       1.21642345       6.89505332
P        2.10690721       1.21642345       9.46686455
In       0.00000000       4.86569378       6.89505332
P        0.00000000       4.86569378       9.46686455
In       2.10690721       3.64927034      10.31279993
P        2.10690721       3.64927034      12.88427724
In       0.00000000      -0.00000000      10.31279993
P        0.00000000      -0.00000000      12.88427724
In      -0.00000000       2.43284689      13.72990155
P        0.00000000       2.43284689      16.30137919
In       2.10690721       6.08211723      13.72990155
P        2.10690721       6.08211723      16.30137919
In       2.10690721       1.21642345      17.15493759
P        2.10690721       1.21642345      19.72355481
In       0.00000000       4.86569378      17.15493759
P        0.00000000       4.86569378      19.72355481
24
Lattice="4.213814420936895 0.0 0.0 0.0 7.298540670729132 -4.440892098500626e-16 0.0 0.42574820579253203 20.643390404153525" Properties=species:S:1:pos:R:3 energy=-101.60039519355726 pbc="T T T"
In       2.10690721       3.64927034       0.08310190
P        2.10690721       3.64927034       2.63816405
In       0.00000000      -0.00000000       0.08310190
P        0.00000000      -0.00000000       2.63816405
In      -0.00000000       2.43284689       3.48045850
P        0.00000000       2.43284689       6.05309805
In       2.10690721       6.08211723       3.48045850
P        2.10690721       6.08211723       6.05309805
In       2.10690721       1.21642345       6.89684779
P        2.10690721       1.21642345       9.46760082
In       0.00000000       4.86569378       6.89684779
P        0.00000000       4.86569378       9.46760082
In       2.10690721       3.64927034      10.31158405
P        2.10690721       3.64927034      12.88199343
In       0.00000000      -0.00000000      10.31158405
P        0.00000000      -0.00000000      12.88199343
In      -0.00000000       2.43284689      13.72573408
P        0.00000000       2.43284689      16.29603476
In       2.10690721       6.08211723      13.72573408
P        2.10690721       6.08211723      16.29603476
In       2.10690721       1.21642345      17.14882897
P        2.10690721       1.21642345      19.71604843
In       0.00000000       4.86569378      17.14882897
P        0.00000000       4.86569378      19.71604843
24
Lattice="4.213814420936895 0.0 0.0 0.0 7.298540670729132 -4.440892098500626e-16 0.0 0.45615879192057074 20.643390404153525" Properties=species:S:1:pos:R:3 energy=-101.51961780052322 pbc="T T T"
In       2.10690721       3.64927034       0.09238145
P        2.10690721       3.64927034       2.64500853
In       0.00000000       0.00000000       0.09238145
P        0.00000000       0.00000000       2.64500853
In      -0.00000000       2.43284689       3.48515962
P        0.00000000       2.43284689       6.05682603
In       2.10690721       6.08211723       3.48515962
P        2.10690721       6.08211723       6.05682603
In       2.10690721       1.21642345       6.89865383
P        2.10690721       1.21642345       9.46831460
In       0.00000000       4.86569378       6.89865383
P        0.00000000       4.86569378       9.46831460
In       2.10690721       3.64927034      10.31039055
P        2.10690721       3.64927034      12.87967105
In       0.00000000       0.00000000      10.31039055
P        0.00000000       0.00000000      12.87967105
In      -0.00000000       2.43284689      13.72146755
P        0.00000000       2.43284689      16.29061636
In       2.10690721       6.08211723      13.72146755
P        2.10690721       6.08211723      16.29061636
In       2.10690721       1.21642345      17.14263551
P        2.10690721       1.21642345      19.70836974
In       0.00000000       4.86569378      17.14263551
P        0.00000000       4.86569378      19.70836974
24
Lattice="4.213814420936895 0.0 0.0 0.0 7.298540670729132 -4.440892098500626e-16 0.0 0.4865693780486088 20.643390404153525" Properties=species:S:1:pos:R:3 energy=-101.43943160509316 pbc="T T T"
In       2.10690721       3.64927034       0.10173363
P        2.10690721       3.64927034       2.65197856
In       0.00000000       0.00000000       0.10173363
P        0.00000000       0.00000000       2.65197856
In      -0.00000000       2.43284689       3.48993577
P        0.00000000       2.43284689       6.06060695
In       2.10690721       6.08211723       3.48993577
P        2.10690721       6.08211723       6.06060695
In       2.10690721       1.21642345       6.90048111
P        2.10690721       1.21642345       9.46903998
In       0.00000000       4.86569378       6.90048111
P        0.00000000       4.86569378       9.46903998
In       2.10690721       3.64927034      10.30917509
P        2.10690721       3.64927034      12.87731746
In       0.00000000       0.00000000      10.30917509
P        0.00000000       0.00000000      12.87731746
In      -0.00000000       2.43284689      13.71713395
P        0.00000000       2.43284689      16.28512024
In       2.10690721       6.08211723      13.71713395
P        2.10690721       6.08211723      16.28512024
In       2.10690721       1.21642345      17.13635238
P        2.10690721       1.21642345      19.70061970
In       0.00000000       4.86569378      17.13635238
P        0.00000000       4.86569378      19.70061970
24
Lattice="4.213814420936895 0.0 0.0 0.0 7.298540670729132 -4.440892098500626e-16 0.0 0.5169799641766468 20.643390404153525" Properties=species:S:1:pos:R:3 energy=-101.36052476400653 pbc="T T T"
In       2.10690721       3.64927034       0.11110608
P        2.10690721       3.64927034       2.65902871
In       0.00000000       0.00000000       0.11110608
P        0.00000000       0.00000000       2.65902871
In      -0.00000000       2.43284689       3.49475490
P        0.00000000       2.43284689       6.06441629
In       2.10690721       6.08211723       3.49475490
P        2.10690721       6.08211723       6.06441629
In       2.10690721       1.21642345       6.90231752
P        2.10690721       1.21642345       9.46977207
In       0.00000000       4.86569378       6.90231752
P        0.00000000       4.86569378       9.46977207
In       2.10690721       3.64927034      10.30794533
P        2.10690721       3.64927034      12.87494770
In       0.00000000       0.00000000      10.30794533
P        0.00000000       0.00000000      12.87494770
In      -0.00000000       2.43284689      13.71276090
P        0.00000000       2.43284689      16.27958182
In       2.10690721       6.08211723      13.71276090
P        2.10690721       6.08211723      16.27958182
In       2.10690721       1.21642345      17.13001540
P        2.10690721       1.21642345      19.69284812
In       0.00000000       4.86569378      17.13001540
P        0.00000000       4.86569378      19.69284812
24
Lattice="4.213814420936895 0.0 0.0 0.0 7.298540670729132 -4.440892098500626e-16 0.0 0.5473905503046849 20.643390404153525" Properties=species:S:1:pos:R:3 energy=-101.28351803006078 pbc="T T T"
In       2.10690721       3.64927034       0.12042113
P        2.10690721       3.64927034       2.66609456
In       0.00000000       0.00000000       0.12042113
P        0.00000000       0.00000000       2.66609456
In      -0.00000000       2.43284689       3.49957231
P        0.00000000       2.43284689       6.06821952
In       2.10690721       6.08211723       3.49957231
P        2.10690721       6.08211723       6.06821952
In       2.10690721       1.21642345       6.90414621
P        2.10690721       1.21642345       9.47050388
In       0.00000000       4.86569378       6.90414621
P        0.00000000       4.86569378       9.47050388
In       2.10690721       3.64927034      10.30671201
P        2.10690721       3.64927034      12.87258266
In       0.00000000       0.00000000      10.30671201
P        0.00000000       0.00000000      12.87258266
In      -0.00000000       2.43284689      13.70838724
P        0.00000000       2.43284689      16.27405038
In       2.10690721       6.08211723      13.70838724
P        2.10690721       6.08211723      16.27405038
In       2.10690721       1.21642345      17.12367860
P        2.10690721       1.21642345      19.68512630
In       0.00000000       4.86569378      17.12367860
P        0.00000000       4.86569378      19.68512630
24
Lattice="4.213814420936895 0.0 0.0 0.0 7.298540670729132 -4.440892098500626e-16 0.0 0.5778011364327229 20.643390404153525" Properties=species:S:1:pos:R:3 energy=-101.2089229368003 pbc="T T T"
In       2.10690721       3.64927034       0.12952220
P        2.10690721       3.64927034       2.67302645
In       0.00000000       0.00000000       0.12952220
P        0.00000000       0.00000000       2.67302645
In      -0.00000000       2.43284689       3.50434897
P        0.00000000       2.43284689       6.07198700
In       2.10690721       6.08211723       3.50434897
P        2.10690721       6.08211723       6.07198700
In       2.10690721       1.21642345       6.90593868
P        2.10690721       1.21642345       9.47119685
In       0.00000000       4.86569378       6.90593868
P        0.00000000       4.86569378       9.47119685
In       2.10690721       3.64927034      10.30554219
P        2.10690721       3.64927034      12.87024976
In       0.00000000       0.00000000      10.30554219
P        0.00000000       0.00000000      12.87024976
In      -0.00000000       2.43284689      13.70405621
P        0.00000000       2.43284689      16.26859508
In       2.10690721       6.08211723      13.70405621
P        2.10690721       6.08211723      16.26859508
In       2.10690721       1.21642345      17.11749241
P        2.10690721       1.21642345      19.67753903
In       0.00000000       4.86569378      17.11749241
P        0.00000000       4.86569378      19.67753903
24