 +-------------------------------------------------+
 |                                                 |
 |      CCC   AA    SSS  TTTTT  EEEEE  PPPP        |
 |     C     A  A  S       T    E      P   P       |
 |     C     AAAA   SS     T    EEE    PPPP        |
 |     C     A  A     S    T    E      P           |
 |      CCC  A  A  SSS     T    EEEEE  P           |
 |                                                 |
 +-------------------------------------------------+
 |                                                 |
 | Welcome to Academic Release CASTEP version 24.1 |
 | Ab Initio Total Energy Program                  |
 |                                                 |
 | Authors:                                        |
 | M. Segall, M. Probert, C. Pickard, P. Hasnip,   |
 | S. Clark, K. Refson, J. R. Yates,               |
 | A. Bartok-Partay, M. Payne                      |
 |                                                 |
 | Contributors:                                   |
 | P. Lindan, P. Haynes, J. White, V. Milman,      |
 | N. Govind, M. Gibson, P. Tulip, V. Cocula,      |
 | B. Montanari, D. Quigley, M. Glover,            |
 | L. Bernasconi, A. Perlov, M. Plummer,           |
 | E. McNellis, J. Meyer, J. Gale, D. Jochym       |
 | J. Aarons, B. Walker, R. Gillen, D. Jones       |
 | T. Green, I. J. Bush, C. J. Armstrong,          |
 | E. J. Higgins, E. L. Brown, M. S. McFly,        |
 | J. Wilkins, B-C. Shih, P. J. P. Byrne,          |
 | R. J. Maurer, J. C. Womack, J. Dziedzic,        |
 | L. LeBlanc, T. K. Stenczel, J. Kermode,         |
 | S. Sturniolo, B. Shi, B. Durham, M. Evans,      |
 | M. J. Smith, A. Tamerus, Z. Hawkhead,           |
 | V. Ravindran, T. Hollins, S. A. Joyce,          |
 | R. T. Strong, A. M. Reilly, S. J. Donaldson     |
 |                                                 |
 | Copyright (c) 2000 - 2023                       |
 |                                                 |
 |     Distributed under license from Cambridge    |
 |     Enterprise for academic use only.           |
 |                                                 |
 | Please cite                                     |
 |                                                 |
 |     "First principles methods using CASTEP"     |
 |                                                 |
 |         Zeitschrift fuer Kristallographie       |
 |           220(5-6) pp. 567-570 (2005)           |
 |                                                 |
 | S. J. Clark, M. D. Segall, C. J. Pickard,       |
 | P. J. Hasnip, M. J. Probert, K. Refson,         |
 | M. C. Payne                                     |
 |                                                 |
 |       in all publications arising from          |
 |              your use of CASTEP                 |
 |                                                 |
 +-------------------------------------------------+
 |                                                 |
 |              http://www.castep.org              |
 |                                                 |
 +-------------------------------------------------+



 Compiled for  GNU 11.2.0 on 04-04-2024 18:39:17
 from code version 6355fd106 Castep241_branch Thu Mar 7 17:56:19 2024 +0000
 Compiler: GNU Fortran 11.2.0; Optimisation: FAST
 Comms   : MPI VERSION : CRAY MPICH version 8.1.23.14 (ANL base 3.4a2)
 MATHLIBS: default (LAPACK version 3.10.1)
 FFT Lib : fftw3 version commercial-fftw-3.3.10-sse2-avx-avx2-avx2_128
 Fundamental constants values: CODATA 2018

 Run started: Tue, 29 Apr 2025 18:17:36 +0100

 Atomic calculation performed for P: 1s2 2s2 2p6 3s2 3p3

 Converged in 47 iterations to an ae energy of -9309.074 eV

   ============================================================                
   | Pseudopotential Report - Date of generation 29-04-2025   |                
   ------------------------------------------------------------                
   | Element: P Ionic charge:  5.00 Level of theory: RSCAN    |                
   | Atomic Solver: Koelling-Harmon                           |                
   |                                                          |                
   |               Reference Electronic Structure             |                
   |         Orbital         Occupation         Energy        |                
   |            3s              2.000           -0.535        |                
   |            3p              3.000           -0.209        |                
   |                                                          |                
   |                 Pseudopotential Definition               |                
   |        Beta     l      e      Rc     scheme   norm       |                
   |          1      0   -0.535   1.807     qc      0         |                
   |          2      0    0.250   1.807     qc      0         |                
   |          3      1   -0.209   1.807     qc      0         |                
   |          4      1    0.250   1.807     qc      0         |                
   |          5      2    0.000   1.807     qc      0         |                
   |          6      2    0.250   1.807     qc      0         |                
   |         loc     3    0.000   1.807     pn      0         |                
   |                                                          |                
   | Augmentation charge Rinner = 1.263                       |                
   | Partial core correction Rc = 1.263                       |                
   ------------------------------------------------------------                
   | "3|1.8|4|4|5|30:31:32"                                   |                
   ------------------------------------------------------------                
   |      Author: Chris J. Pickard, Cambridge University      |                
   ============================================================                
 Warning: otfg_output_psp cannot write out meta-GGA pseudopotentials presently.

 Atomic calculation performed for In:
 1s2 2s2 2p6 3s2 3p6 3d10 4s2 4p6 4d10 5s2 5p1

 Converged in 84 iterations to an ae energy of -160093.328 eV

   ============================================================                
   | Pseudopotential Report - Date of generation 29-04-2025   |                
   ------------------------------------------------------------                
   | Element: In Ionic charge: 13.00 Level of theory: RSCAN   |                
   | Atomic Solver: Koelling-Harmon                           |                
   |                                                          |                
   |               Reference Electronic Structure             |                
   |         Orbital         Occupation         Energy        |                
   |            4d             10.000           -0.711        |                
   |            5s              2.000           -0.313        |                
   |            5p              1.000           -0.095        |                
   |                                                          |                
   |                 Pseudopotential Definition               |                
   |        Beta     l      e      Rc     scheme   norm       |                
   |          1      0   -0.313   2.501     qc      0         |                
   |          2      0    0.250   2.501     qc      0         |                
   |          3      1   -0.095   2.501     qc      0         |                
   |          4      1    0.250   2.501     qc      0         |                
   |          5      2   -0.711   2.207     qc      0         |                
   |          6      2    0.250   2.207     qc      0         |                
   |         loc     3    0.000   2.501     pn      0         |                
   |                                                          |                
   | Augmentation charge Rinner = 1.504                       |                
   | Partial core correction Rc = 1.504                       |                
   ------------------------------------------------------------                
   | "3|2.5|2.5|1.5|7|8|9|50:51:42U2.2U2.2"                   |                
   ------------------------------------------------------------                
   |      Author: Chris J. Pickard, Cambridge University      |                
   ============================================================                
 Warning: otfg_output_psp cannot write out meta-GGA pseudopotentials presently.

 Pseudo atomic calculation performed for P 3s2 3p3

 Converged in 23 iterations to a total energy of -208.0292 eV

 Pseudo atomic calculation performed for In 4d10 5s2 5p1

 Converged in 42 iterations to a total energy of -1747.4501 eV
 Calculation parallelised over 120 processes.
 Data is distributed by G-vector(6-way) and k-point(20-way)
 Each process may use up to 16 threads.

 ************************************ Title ************************************
 

 ***************************** General Parameters ******************************
  
 output verbosity                               : normal  (1)
 write checkpoint data to                       : 90deg_Singlepoints_4.check
 type of calculation                            : single point energy
 stress calculation                             : off
 density difference calculation                 : off
 electron localisation func (ELF) calculation   : off
 Hirshfeld analysis                             : on
 polarisation (Berry phase) analysis            : off
 molecular orbital projected DOS                : off
 deltaSCF calculation                           : off
 unlimited duration calculation
 timing information                             : on
 memory usage estimate                          : on
 write extra output files                       : on
 write final potential to formatted file        : off
 write final density to formatted file          : off
 write BibTeX reference list                    : on
 write OTFG pseudopotential files               : on
 write electrostatic potential file             : on
 write bands file                               : on
 checkpoint writing                             : off
  
 output         length unit                     : A
 output           mass unit                     : amu
 output           time unit                     : ps
 output         charge unit                     : e
 output           spin unit                     : hbar/2
 output         energy unit                     : eV
 output          force unit                     : eV/A
 output       velocity unit                     : A/ps
 output       pressure unit                     : GPa
 output     inv_length unit                     : 1/A
 output      frequency unit                     : cm-1
 output force constant unit                     : eV/A**2
 output         volume unit                     : A**3
 output   IR intensity unit                     : (D/A)**2/amu
 output         dipole unit                     : D
 output         efield unit                     : eV/A/e
 output        entropy unit                     : J/mol/K
 output    efield chi2 unit                     : pm/V
  
 wavefunctions paging                           : none
 random number generator seed                   :  181736643
 data distribution                              : optimal for this architecture
 optimization strategy                          : balance speed and memory

 *********************** Exchange-Correlation Parameters ***********************
  
 using functional                               : RSCAN
 relativistic treatment                         : Koelling-Harmon
 DFT+D: Semi-empirical dispersion correction    : off

 ************************* Pseudopotential Parameters **************************
  
 pseudopotential representation                 : reciprocal space
 <beta|phi> representation                      : reciprocal space
 spin-orbit coupling                            : off

 **************************** Basis Set Parameters *****************************
  
 plane wave basis set cut-off                   :   900.0000   eV
 size of standard grid                          :     2.0000
 size of   fine   gmax                          :    30.7390   1/A
 finite basis set correction                    : none

 **************************** Electronic Parameters ****************************
  
 number of  electrons                           :  864.0    
 net charge of system                           :  0.000    
 treating system as non-spin-polarized
 number of bands                                :        518

 ********************* Electronic Minimization Parameters **********************
  
 Method: Treating system as metallic with density mixing treatment of electrons,
         and number of  SD  steps               :          1
         and number of  CG  steps               :          4
  
 total energy / atom convergence tol.           : 0.1000E-07   eV
 eigen-energy convergence tolerance             : 0.2222E-08   eV
 max force / atom convergence tol.              : ignored
 convergence tolerance window                   :          3   cycles
 max. number of SCF cycles                      :        100
 number of fixed-spin iterations                :         10
 smearing scheme                                : Gaussian
 smearing width                                 : 0.2000       eV
 Fermi energy convergence tolerance             : 0.2721E-13   eV
 periodic dipole correction                     : NONE

 ************************** Density Mixing Parameters **************************
  
 density-mixing scheme                          : Pulay
 max. length of mixing history                  :         20
 charge density mixing amplitude                : 0.5000    
 cut-off energy for mixing                      :  900.0       eV

 *********************** Population Analysis Parameters ************************
  
 Population analysis with cutoff                :  3.000       A
 Population analysis output                     : summary and pdos components

 *******************************************************************************
  

                           -------------------------------
                                      Unit Cell
                           -------------------------------
        Real Lattice(A)                      Reciprocal Lattice(1/A)
    14.4540490    20.4411120     0.0000000        0.217350353   0.153689910   0.000000000
    14.4540490   -20.4411120     0.0000000        0.217350353  -0.153689910   0.000000000
     0.0000000     0.0000000     4.1725250        0.000000000   0.000000000   1.505847252

                       Lattice parameters(A)       Cell Angles
                    a =     25.035147          alpha =   90.000000
                    b =     25.035147          beta  =   90.000000
                    c =      4.172525          gamma =  109.471220

                       Current cell volume =          2465.602056       A**3
                                   density =             2.838254   AMU/A**3
                                           =             4.713031     g/cm^3

                           -------------------------------
                                     Cell Contents
                           -------------------------------
                         Total number of ions in cell =   96
                      Total number of species in cell =    2
                        Max number of any one species =   48

            xxxxxxxxxxxxxxxxxxxxxxxxxxxxxxxxxxxxxxxxxxxxxxxxxxxxxxxxxxxx
            x  Element    Atom        Fractional coordinates of atoms  x
            x            Number           u          v          w      x
            x----------------------------------------------------------x
            x  P            1         0.274264   0.308189   0.144712   x 
            x  P            2         0.202010   0.234605   0.346008   x 
            x  P            3         0.379774   0.240189   0.535838   x 
            x  P            4         0.508083   0.364750   0.031744   x 
            x  P            5         0.410352   0.104474   0.016842   x 
            x  P            6         0.538247   0.227916   0.515337   x 
            x  P            7         0.572643   0.094463   0.010551   x 
            x  P            8         0.448124   0.970989   0.511551   x 
            x  P            9         0.609915   0.961195   0.509908   x 
            x  P           10         0.734796   0.086212   0.000673   x 
            x  P           11         0.643579   0.827336   0.011861   x 
            x  P           12         0.774382   0.954902   0.498748   x 
            x  P           13         0.534135   0.555629   0.032332   x 
            x  P           14         0.406101   0.429124   0.561301   x 
            x  P           15         0.633132   0.488524   0.521993   x 
            x  P           16         0.756837   0.610614   0.009282   x 
            x  P           17         0.664310   0.352039   0.009487   x 
            x  P           18         0.790154   0.476052   0.500709   x 
            x  P           19         0.822225   0.343181  -0.004148   x 
            x  P           20         0.697930   0.218387   0.504331   x 
            x  P           21         0.858767   0.212649   0.489463   x 
            x  P           22         0.981377   0.336879  -0.018741   x 
            x  P           23         0.899099   0.085351  -0.019379   x 
            x  P           24         0.021588   0.209992   0.471687   x 
            x  P           25         0.791567   0.808854   0.004465   x 
            x  P           26         0.660897   0.681211   0.516785   x 
            x  P           27         0.886453   0.721849   0.496597   x 
            x  P           28         0.001418   0.851187  -0.019212   x 
            x  P           29         0.918327   0.595327  -0.007728   x 
            x  P           30         0.042890   0.723138   0.482945   x 
            x  P           31         0.075159   0.593847  -0.016743   x 
            x  P           32         0.949314   0.466142   0.489020   x 
            x  P           33         0.106278   0.464480   0.474209   x 
            x  P           34         0.232319   0.587435   0.008402   x 
            x  P           35         0.138089   0.336831  -0.054426   x 
            x  P           36         0.263294   0.455733   0.537893   x 
            x  P           37         0.077101   0.098258  -0.055937   x 
            x  P           38         0.948684   0.968183   0.461282   x 
            x  P           39         0.124039   0.979043   0.473327   x 
            x  P           40         0.249871   0.108633  -0.035722   x 
            x  P           41         0.163331   0.850170  -0.014436   x 
            x  P           42         0.286938   0.976803   0.488535   x 
            x  P           43         0.323904   0.845126   0.001220   x 
            x  P           44         0.200662   0.719375   0.495960   x 
            x  P           45         0.357845   0.711270   0.512071   x 
            x  P           46         0.483001   0.836979   0.014703   x 
            x  P           47         0.388618   0.576293   0.027892   x 
            x  P           48         0.514581   0.701514   0.523492   x 
            x  In           1         0.239955   0.393995   0.040680   x 
            x  In           2         0.122155   0.276542   0.439918   x 
            x  In           3         0.339425   0.321800   0.620261   x 
            x  In           4         0.468461   0.448229   0.056747   x 
            x  In           5         0.354080   0.175425   0.026510   x 
            x  In           6         0.485384   0.300316   0.529212   x 
            x  In           7         0.515438   0.163851   0.014775   x 
            x  In           8         0.390794   0.040200   0.514383   x 
            x  In           9         0.552912   0.030671   0.510663   x 
            x  In          10         0.677101   0.154700   0.004567   x 
            x  In          11         0.587498   0.897117   0.010746   x 
            x  In          12         0.714510   0.022407   0.501335   x 
            x  In          13         0.491977   0.637000   0.025590   x 
            x  In          14         0.367373   0.512665   0.530013   x 
            x  In          15         0.595400   0.573305   0.530275   x 
            x  In          16         0.721125   0.697148   0.015758   x 
            x  In          17         0.612375   0.424706   0.021951   x 
            x  In          18         0.737043   0.547126   0.509527   x 
            x  In          19         0.767707   0.412796   0.000785   x 
            x  In          20         0.642457   0.288240   0.509265   x 
            x  In          21         0.801478   0.280118   0.495971   x 
            x  In          22         0.925476   0.404214  -0.010839   x 
            x  In          23         0.838251   0.149946  -0.010410   x 
            x  In          24         0.962180   0.274868   0.481034   x 
            x  In          25         0.747000   0.891232   0.000435   x 
            x  In          26         0.618489   0.762424   0.513524   x 
            x  In          27         0.838072   0.792640   0.504141   x 
            x  In          28         0.931917   0.905926  -0.037956   x 
            x  In          29         0.861510   0.660651  -0.002691   x 
            x  In          30         0.987386   0.789981   0.482089   x 
            x  In          31         0.020055   0.661567  -0.016810   x 
            x  In          32         0.894272   0.533833   0.492658   x 
            x  In          33         0.051230   0.532233   0.482478   x 
            x  In          34         0.178204   0.656877  -0.003650   x 
            x  In          35         0.082461   0.403334  -0.028787   x 
            x  In          36         0.209475   0.525275   0.509155   x 
            x  In          37         1.003469   0.148420  -0.027972   x 
            x  In          38         0.878323   0.022737   0.481050   x 
            x  In          39         0.055127   0.035020   0.448625   x 
            x  In          40         0.182084   0.165391  -0.120282   x 
            x  In          41         0.105148   0.916830  -0.024526   x 
            x  In          42         0.228579   0.044097   0.466593   x 
            x  In          43         0.266832   0.913508  -0.010932   x 
            x  In          44         0.145306   0.787696   0.486386   x 
            x  In          45         0.303910   0.781880   0.501635   x 
            x  In          46         0.427611   0.907342   0.011072   x 
            x  In          47         0.335820   0.647956   0.012946   x 
            x  In          48         0.461261   0.773131   0.515413   x 
            xxxxxxxxxxxxxxxxxxxxxxxxxxxxxxxxxxxxxxxxxxxxxxxxxxxxxxxxxxxx


                         No user defined ionic velocities

                           -------------------------------
                                   Details of Species
                           -------------------------------

                               Mass of species in AMU
                                    P   30.9737600
                                    In  114.8180000

                          Electric Quadrupole Moment (Barn)
                                    P    1.0000000 No Isotope Defined
                                    In    0.7700000 Isotope115

                          Files used for pseudopotentials:
                                    P 3|1.8|4|4|5|30:31:32
                                    In 3|2.5|2.5|1.5|7|8|9|50:51:42U2.2U2.2

                           -------------------------------
                              k-Points For BZ Sampling
                           -------------------------------
                       MP grid size for SCF calculation is  2  2  8
                            with an offset of   0.250  0.250  0.062
                       Number of kpoints used =            20

                           -------------------------------
                               Symmetry and Constraints
                           -------------------------------

                      Maximum deviation from symmetry =  0.00000         ANG

                      Number of symmetry operations   =           1
                      Number of ionic constraints     =           3
                      Point group of crystal =     1: C1, 1, 1
                      Space group of crystal =     1: P1, P 1

             Set iprint > 1 for details on symmetry rotations/translations

                         Centre of mass is constrained
             Set iprint > 1 for details of linear ionic constraints

                         Number of cell constraints= 0
                         Cell constraints are:  1 2 3 4 5 6

                         External pressure/stress (GPa)
                          0.00000   0.00000   0.00000
                                    0.00000   0.00000
                                              0.00000
 
+---------------- MEMORY AND SCRATCH DISK ESTIMATES PER PROCESS --------------+
|                                                     Memory          Disk    |
| Baseline code, static data and system overhead      368.0 MB         0.0 MB |
| BLAS internal memory storage                          0.0 MB         0.0 MB |
| Model and support data                             3663.9 MB         0.0 MB |
| Electronic energy minimisation requirements         956.3 MB         0.0 MB |
| Force calculation requirements                       70.0 MB         0.0 MB |
|                                               ----------------------------- |
| Approx. total storage required per process         4988.2 MB         0.0 MB |
|                                                                             |
| Requirements will fluctuate during execution and may exceed these estimates |
+-----------------------------------------------------------------------------+
Calculating approximate eigenstates for fixed initial Hamiltonian
Cut-off for approx. calculation is   89.988 eV
Improving approx. states at cut-off of  450.000 eV
Resetting cut-off to  900.000 eV
Calculating total energy with cut-off of  900.000 eV.
------------------------------------------------------------------------ <-- SCF
SCF loop      Energy           Fermi           Energy gain       Timer   <-- SCF
                               energy          per atom          (sec)   <-- SCF
------------------------------------------------------------------------ <-- SCF
Initial  -9.45651448E+004  0.00000000E+000                       364.57  <-- SCF
      1  -9.42024923E+004  3.48022885E+000  -3.77762934E+000     706.54  <-- SCF
      2  -9.42029345E+004  3.47973128E+000   4.60597656E-003     930.27  <-- SCF
      3  -9.43027579E+004  3.59426327E+000   1.03982659E+000    1185.11  <-- SCF
      4  -9.43204988E+004  3.64026528E+000   1.84801241E-001    1554.72  <-- SCF
      5  -9.43111120E+004  3.95034261E+000  -9.77791077E-002    1812.86  <-- SCF
      6  -9.43115725E+004  4.03537722E+000   4.79699823E-003    2069.75  <-- SCF
      7  -9.43112270E+004  4.06275642E+000  -3.59886339E-003    2327.12  <-- SCF
      8  -9.43134722E+004  4.05469739E+000   2.33875628E-002    2589.68  <-- SCF
      9  -9.43134986E+004  4.04263699E+000   2.74478835E-004    2846.90  <-- SCF
     10  -9.43134625E+004  4.04430873E+000  -3.76100942E-004    3113.81  <-- SCF
     11  -9.43134975E+004  4.04257602E+000   3.64809070E-004    3378.45  <-- SCF
     12  -9.43134977E+004  4.04682276E+000   2.06856913E-006    3652.62  <-- SCF
     13  -9.43134975E+004  4.04690807E+000  -1.85440844E-006    3920.63  <-- SCF
     14  -9.43134974E+004  4.04708976E+000  -9.03178667E-007    4191.58  <-- SCF
     15  -9.43134974E+004  4.04712700E+000  -1.76683690E-007    4470.74  <-- SCF
     16  -9.43134974E+004  4.04680977E+000  -4.82084908E-008    4701.97  <-- SCF
     17  -9.43134974E+004  4.04668261E+000  -9.50759162E-009    4897.49  <-- SCF
     18  -9.43134974E+004  4.04658870E+000  -1.47718275E-010    5092.98  <-- SCF
------------------------------------------------------------------------ <-- SCF
 
Final energy, E             =  -94313.37102553     eV
Final free energy (E-TS)    =  -94313.49740463     eV
(energies not corrected for finite basis set)
 
NB est. 0K energy (E-0.5TS)      =  -94313.43421508     eV
 

 ************************** Forces **************************
 *                                                          *
 *               Cartesian components (eV/A)                *
 * -------------------------------------------------------- *
 *                         x            y            z      *
 *                                                          *
 * P               1      0.15118     -0.02663     -0.18889 *
 * P               2     -0.08790      0.10192      0.20309 *
 * P               3      0.03073      0.02944     -0.03852 *
 * P               4     -0.05591      0.03148     -0.02264 *
 * P               5      0.00198      0.01061      0.01566 *
 * P               6     -0.02546      0.00653      0.00594 *
 * P               7     -0.00596      0.00763      0.00213 *
 * P               8      0.02054     -0.00304      0.00584 *
 * P               9     -0.00382     -0.01402      0.00377 *
 * P              10     -0.02163      0.02696      0.00422 *
 * P              11     -0.04584     -0.06966      0.00102 *
 * P              12      0.00713     -0.01321      0.00466 *
 * P              13     -0.00767      0.00241     -0.00801 *
 * P              14      0.12135      0.02382     -0.03640 *
 * P              15     -0.02170      0.03044     -0.00635 *
 * P              16     -0.03988     -0.00026     -0.01701 *
 * P              17     -0.02863      0.00377      0.00034 *
 * P              18     -0.02383     -0.00469      0.00070 *
 * P              19     -0.01290      0.00462      0.00622 *
 * P              20     -0.02460      0.03676      0.00880 *
 * P              21     -0.02837     -0.01748      0.00000 *
 * P              22     -0.01060     -0.01060      0.01030 *
 * P              23     -0.04068     -0.06521     -0.00555 *
 * P              24     -0.06552     -0.05927      0.00685 *
 * P              25     -0.81787      0.01185      0.05074 *
 * P              26     -0.22784     -0.00254      0.00564 *
 * P              27     -0.11252      0.03194     -0.01166 *
 * P              28      0.22347      0.19403      0.05859 *
 * P              29      0.01308     -0.00272      0.00583 *
 * P              30     -0.00916      0.05956      0.01276 *
 * P              31      0.01393     -0.00043     -0.00681 *
 * P              32      0.01219     -0.01050      0.00361 *
 * P              33      0.01591     -0.02296     -0.01822 *
 * P              34      0.01857     -0.02590     -0.00651 *
 * P              35     -0.01529     -0.08551      0.01668 *
 * P              36      0.03358     -0.05381     -0.05409 *
 * P              37      0.05351      0.03949      0.02422 *
 * P              38      0.42663      0.07170     -0.03285 *
 * P              39      0.06319      0.04360      0.00855 *
 * P              40     -0.01330      0.05640      0.04648 *
 * P              41      0.06666      0.09264     -0.00259 *
 * P              42      0.02676      0.02650      0.00344 *
 * P              43      0.01657      0.02658     -0.00589 *
 * P              44     -0.00099      0.00391     -0.00626 *
 * P              45      0.01697     -0.00170     -0.00228 *
 * P              46      0.02130      0.02030      0.00910 *
 * P              47      0.00417     -0.01315      0.00471 *
 * P              48      0.00512     -0.02132      0.00433 *
 * In              1      0.01745      0.11863      0.01297 *
 * In              2      0.01051      0.14679     -0.01163 *
 * In              3     -0.07035     -0.11540      0.10362 *
 * In              4     -0.06168     -0.01781     -0.00092 *
 * In              5     -0.02560      0.01138     -0.00751 *
 * In              6      0.03378     -0.02301      0.01739 *
 * In              7      0.03639     -0.00198     -0.00563 *
 * In              8     -0.00950     -0.02235     -0.01282 *
 * In              9      0.00004     -0.02338     -0.00472 *
 * In             10      0.00813     -0.04585     -0.00268 *
 * In             11     -0.00566     -0.02920     -0.00698 *
 * In             12     -0.00888     -0.00541     -0.00229 *
 * In             13      0.00040      0.03747     -0.00985 *
 * In             14     -0.05728     -0.00819      0.01409 *
 * In             15      0.02247     -0.03154      0.02508 *
 * In             16      0.13415     -0.12162      0.09777 *
 * In             17      0.01611     -0.02315     -0.00641 *
 * In             18      0.03958     -0.03247     -0.00006 *
 * In             19      0.01823     -0.01975      0.00084 *
 * In             20      0.01645     -0.02856      0.00076 *
 * In             21      0.03076     -0.02053     -0.00362 *
 * In             22      0.00196      0.00724     -0.00392 *
 * In             23      0.03532      0.04988     -0.00806 *
 * In             24      0.03080     -0.01736     -0.00836 *
 * In             25     -0.00284      0.19461      0.00695 *
 * In             26     -0.00541      0.07663      0.00313 *
 * In             27      0.85705     -0.27463      0.20810 *
 * In             28     -0.44649     -0.00914     -0.33592 *
 * In             29      0.03113     -0.00952      0.00721 *
 * In             30      0.09370     -0.10692      0.00126 *
 * In             31     -0.00791     -0.00937      0.00109 *
 * In             32     -0.02485     -0.01457     -0.00015 *
 * In             33     -0.00540      0.03466      0.00009 *
 * In             34     -0.00155      0.00121      0.00643 *
 * In             35      0.01340      0.00591      0.02436 *
 * In             36     -0.00153      0.01544      0.00707 *
 * In             37      0.03819      0.08481     -0.03844 *
 * In             38      0.03979      0.17573     -0.01165 *
 * In             39     -0.14308     -0.14339     -0.06062 *
 * In             40     -0.00591     -0.12707     -0.07963 *
 * In             41     -0.16069     -0.02553     -0.00155 *
 * In             42     -0.01754     -0.06142      0.00296 *
 * In             43     -0.03411      0.00013      0.01142 *
 * In             44      0.01196     -0.04266      0.00224 *
 * In             45     -0.01439     -0.01584      0.00705 *
 * In             46     -0.02440     -0.00899     -0.00196 *
 * In             47     -0.00274      0.00512      0.00333 *
 * In             48     -0.01661      0.00066     -0.00352 *
 *                                                          *
 ************************************************************

 Pseudo atomic calculation performed for P 3s2 3p3

 Converged in 23 iterations to a total energy of -208.0292 eV

 Pseudo atomic calculation performed for In 4d10 5s2 5p1

 Converged in 42 iterations to a total energy of -1747.4501 eV
Charge spilling parameter for spin component 1 = 0.18%

            Orbital Populations       
     Ion    Atom   Orbital             Charge
  -------------------------------------------
      P     1      S                    1.745
      P     1      Px                   1.072
      P     1      Py                   1.347
      P     1      Pz                   1.317
      P     2      S                    1.755
      P     2      Px                   1.064
      P     2      Py                   1.346
      P     2      Pz                   1.310
      P     3      S                    1.746
      P     3      Px                   1.303
      P     3      Py                   1.312
      P     3      Pz                   1.302
      P     4      S                    1.741
      P     4      Px                   1.306
      P     4      Py                   1.323
      P     4      Pz                   1.300
      P     5      S                    1.745
      P     5      Px                   1.309
      P     5      Py                   1.303
      P     5      Pz                   1.305
      P     6      S                    1.740
      P     6      Px                   1.310
      P     6      Py                   1.310
      P     6      Pz                   1.310
      P     7      S                    1.741
      P     7      Px                   1.314
      P     7      Py                   1.306
      P     7      Pz                   1.308
      P     8      S                    1.741
      P     8      Px                   1.316
      P     8      Py                   1.304
      P     8      Pz                   1.306
      P     9      S                    1.742
      P     9      Px                   1.309
      P     9      Py                   1.307
      P     9      Pz                   1.309
      P    10      S                    1.741
      P    10      Px                   1.313
      P    10      Py                   1.310
      P    10      Pz                   1.306
      P    11      S                    1.742
      P    11      Px                   1.296
      P    11      Py                   1.315
      P    11      Pz                   1.310
      P    12      S                    1.747
      P    12      Px                   1.307
      P    12      Py                   1.319
      P    12      Pz                   1.292
      P    13      S                    1.744
      P    13      Px                   1.289
      P    13      Py                   1.311
      P    13      Pz                   1.320
      P    14      S                    1.750
      P    14      Px                   1.281
      P    14      Py                   1.310
      P    14      Pz                   1.317
      P    15      S                    1.740
      P    15      Px                   1.310
      P    15      Py                   1.321
      P    15      Pz                   1.303
      P    16      S                    1.740
      P    16      Px                   1.305
      P    16      Py                   1.314
      P    16      Pz                   1.308
      P    17      S                    1.737
      P    17      Px                   1.311
      P    17      Py                   1.313
      P    17      Pz                   1.309
      P    18      S                    1.735
      P    18      Px                   1.315
      P    18      Py                   1.311
      P    18      Pz                   1.312
      P    19      S                    1.733
      P    19      Px                   1.315
      P    19      Py                   1.316
      P    19      Pz                   1.312
      P    20      S                    1.738
      P    20      Px                   1.314
      P    20      Py                   1.310
      P    20      Pz                   1.309
      P    21      S                    1.734
      P    21      Px                   1.316
      P    21      Py                   1.314
      P    21      Pz                   1.310
      P    22      S                    1.728
      P    22      Px                   1.316
      P    22      Py                   1.323
      P    22      Pz                   1.312
      P    23      S                    1.738
      P    23      Px                   1.306
      P    23      Py                   1.315
      P    23      Pz                   1.311
      P    24      S                    1.730
      P    24      Px                   1.304
      P    24      Py                   1.314
      P    24      Pz                   1.326
      P    25      S                    1.761
      P    25      Px                   1.280
      P    25      Py                   1.313
      P    25      Pz                   1.262
      P    26      S                    1.744
      P    26      Px                   1.286
      P    26      Py                   1.307
      P    26      Pz                   1.321
      P    27      S                    1.729
      P    27      Px                   1.340
      P    27      Py                   1.268
      P    27      Pz                   1.340
      P    28      S                    1.737
      P    28      Px                   1.314
      P    28      Py                   1.313
      P    28      Pz                   1.293
      P    29      S                    1.727
      P    29      Px                   1.320
      P    29      Py                   1.314
      P    29      Pz                   1.318
      P    30      S                    1.728
      P    30      Px                   1.323
      P    30      Py                   1.320
      P    30      Pz                   1.308
      P    31      S                    1.728
      P    31      Px                   1.315
      P    31      Py                   1.328
      P    31      Pz                   1.308
      P    32      S                    1.729
      P    32      Px                   1.313
      P    32      Py                   1.324
      P    32      Pz                   1.313
      P    33      S                    1.726
      P    33      Px                   1.316
      P    33      Py                   1.328
      P    33      Pz                   1.308
      P    34      S                    1.731
      P    34      Px                   1.315
      P    34      Py                   1.319
      P    34      Pz                   1.309
      P    35      S                    1.720
      P    35      Px                   1.332
      P    35      Py                   1.318
      P    35      Pz                   1.308
      P    36      S                    1.729
      P    36      Px                   1.325
      P    36      Py                   1.314
      P    36      Pz                   1.297
      P    37      S                    1.753
      P    37      Px                   1.278
      P    37      Py                   1.309
      P    37      Pz                   1.313
      P    38      S                    1.758
      P    38      Px                   1.260
      P    38      Py                   1.312
      P    38      Pz                   1.293
      P    39      S                    1.738
      P    39      Px                   1.308
      P    39      Py                   1.318
      P    39      Pz                   1.304
      P    40      S                    1.748
      P    40      Px                   1.303
      P    40      Py                   1.307
      P    40      Pz                   1.302
      P    41      S                    1.736
      P    41      Px                   1.315
      P    41      Py                   1.318
      P    41      Pz                   1.303
      P    42      S                    1.740
      P    42      Px                   1.314
      P    42      Py                   1.309
      P    42      Pz                   1.307
      P    43      S                    1.738
      P    43      Px                   1.315
      P    43      Py                   1.313
      P    43      Pz                   1.305
      P    44      S                    1.732
      P    44      Px                   1.318
      P    44      Py                   1.317
      P    44      Pz                   1.307
      P    45      S                    1.736
      P    45      Px                   1.314
      P    45      Py                   1.314
      P    45      Pz                   1.307
      P    46      S                    1.741
      P    46      Px                   1.310
      P    46      Py                   1.311
      P    46      Pz                   1.306
      P    47      S                    1.735
      P    47      Px                   1.317
      P    47      Py                   1.312
      P    47      Pz                   1.306
      P    48      S                    1.739
      P    48      Px                   1.307
      P    48      Py                   1.315
      P    48      Pz                   1.308
     In     1      Dzz                  1.997
     In     1      Dzy                  1.998
     In     1      Dzx                  1.997
     In     1      Dxx-yy               1.998
     In     1      Dxy                  1.998
     In     1      S                    1.415
     In     1      Px                   0.493
     In     1      Py                   0.475
     In     1      Pz                   0.479
     In     1      S                   -0.500
     In     2      Dzz                  1.997
     In     2      Dzy                  1.998
     In     2      Dzx                  1.997
     In     2      Dxx-yy               1.997
     In     2      Dxy                  1.998
     In     2      S                    1.403
     In     2      Px                   0.486
     In     2      Py                   0.480
     In     2      Pz                   0.487
     In     2      S                   -0.511
     In     3      Dzz                  1.998
     In     3      Dzy                  1.998
     In     3      Dzx                  1.998
     In     3      Dxx-yy               1.998
     In     3      Dxy                  1.999
     In     3      S                    1.446
     In     3      Px                   0.455
     In     3      Py                   0.469
     In     3      Pz                   0.472
     In     3      S                   -0.483
     In     4      Dzz                  1.998
     In     4      Dzy                  1.998
     In     4      Dzx                  1.998
     In     4      Dxx-yy               1.998
     In     4      Dxy                  1.998
     In     4      S                    1.434
     In     4      Px                   0.465
     In     4      Py                   0.461
     In     4      Pz                   0.493
     In     4      S                   -0.517
     In     5      Dzz                  1.998
     In     5      Dzy                  1.999
     In     5      Dzx                  1.998
     In     5      Dxx-yy               1.998
     In     5      Dxy                  1.999
     In     5      S                    1.434
     In     5      Px                   0.483
     In     5      Py                   0.463
     In     5      Pz                   0.464
     In     5      S                   -0.499
     In     6      Dzz                  1.998
     In     6      Dzy                  1.999
     In     6      Dzx                  1.998
     In     6      Dxx-yy               1.998
     In     6      Dxy                  1.998
     In     6      S                    1.422
     In     6      Px                   0.485
     In     6      Py                   0.471
     In     6      Pz                   0.471
     In     6      S                   -0.495
     In     7      Dzz                  1.998
     In     7      Dzy                  1.999
     In     7      Dzx                  1.998
     In     7      Dxx-yy               1.998
     In     7      Dxy                  1.998
     In     7      S                    1.420
     In     7      Px                   0.487
     In     7      Py                   0.474
     In     7      Pz                   0.473
     In     7      S                   -0.508
     In     8      Dzz                  1.998
     In     8      Dzy                  1.999
     In     8      Dzx                  1.998
     In     8      Dxx-yy               1.997
     In     8      Dxy                  1.999
     In     8      S                    1.420
     In     8      Px                   0.484
     In     8      Py                   0.474
     In     8      Pz                   0.474
     In     8      S                   -0.507
     In     9      Dzz                  1.998
     In     9      Dzy                  1.998
     In     9      Dzx                  1.998
     In     9      Dxx-yy               1.998
     In     9      Dxy                  1.998
     In     9      S                    1.420
     In     9      Px                   0.485
     In     9      Py                   0.477
     In     9      Pz                   0.476
     In     9      S                   -0.504
     In    10      Dzz                  1.998
     In    10      Dzy                  1.999
     In    10      Dzx                  1.998
     In    10      Dxx-yy               1.997
     In    10      Dxy                  1.998
     In    10      S                    1.422
     In    10      Px                   0.488
     In    10      Py                   0.475
     In    10      Pz                   0.475
     In    10      S                   -0.511
     In    11      Dzz                  1.998
     In    11      Dzy                  1.999
     In    11      Dzx                  1.998
     In    11      Dxx-yy               1.997
     In    11      Dxy                  1.998
     In    11      S                    1.415
     In    11      Px                   0.491
     In    11      Py                   0.478
     In    11      Pz                   0.474
     In    11      S                   -0.505
     In    12      Dzz                  1.998
     In    12      Dzy                  1.999
     In    12      Dzx                  1.998
     In    12      Dxx-yy               1.998
     In    12      Dxy                  1.999
     In    12      S                    1.410
     In    12      Px                   0.487
     In    12      Py                   0.471
     In    12      Pz                   0.478
     In    12      S                   -0.506
     In    13      Dzz                  1.998
     In    13      Dzy                  1.999
     In    13      Dzx                  1.998
     In    13      Dxx-yy               1.998
     In    13      Dxy                  1.998
     In    13      S                    1.422
     In    13      Px                   0.492
     In    13      Py                   0.477
     In    13      Pz                   0.465
     In    13      S                   -0.503
     In    14      Dzz                  1.997
     In    14      Dzy                  1.999
     In    14      Dzx                  1.998
     In    14      Dxx-yy               1.998
     In    14      Dxy                  1.998
     In    14      S                    1.420
     In    14      Px                   0.492
     In    14      Py                   0.479
     In    14      Pz                   0.468
     In    14      S                   -0.513
     In    15      Dzz                  1.998
     In    15      Dzy                  1.998
     In    15      Dzx                  1.998
     In    15      Dxx-yy               1.998
     In    15      Dxy                  1.998
     In    15      S                    1.432
     In    15      Px                   0.463
     In    15      Py                   0.458
     In    15      Pz                   0.497
     In    15      S                   -0.509
     In    16      Dzz                  1.998
     In    16      Dzy                  1.998
     In    16      Dzx                  1.998
     In    16      Dxx-yy               1.998
     In    16      Dxy                  1.999
     In    16      S                    1.433
     In    16      Px                   0.478
     In    16      Py                   0.460
     In    16      Pz                   0.509
     In    16      S                   -0.478
     In    17      Dzz                  1.997
     In    17      Dzy                  1.998
     In    17      Dzx                  1.998
     In    17      Dxx-yy               1.997
     In    17      Dxy                  1.998
     In    17      S                    1.421
     In    17      Px                   0.492
     In    17      Py                   0.477
     In    17      Pz                   0.472
     In    17      S                   -0.516
     In    18      Dzz                  1.997
     In    18      Dzy                  1.998
     In    18      Dzx                  1.998
     In    18      Dxx-yy               1.997
     In    18      Dxy                  1.998
     In    18      S                    1.414
     In    18      Px                   0.493
     In    18      Py                   0.485
     In    18      Pz                   0.474
     In    18      S                   -0.525
     In    19      Dzz                  1.997
     In    19      Dzy                  1.998
     In    19      Dzx                  1.998
     In    19      Dxx-yy               1.997
     In    19      Dxy                  1.998
     In    19      S                    1.422
     In    19      Px                   0.492
     In    19      Py                   0.482
     In    19      Pz                   0.473
     In    19      S                   -0.538
     In    20      Dzz                  1.998
     In    20      Dzy                  1.999
     In    20      Dzx                  1.998
     In    20      Dxx-yy               1.997
     In    20      Dxy                  1.998
     In    20      S                    1.422
     In    20      Px                   0.490
     In    20      Py                   0.477
     In    20      Pz                   0.472
     In    20      S                   -0.518
     In    21      Dzz                  1.997
     In    21      Dzy                  1.998
     In    21      Dzx                  1.998
     In    21      Dxx-yy               1.997
     In    21      Dxy                  1.998
     In    21      S                    1.423
     In    21      Px                   0.488
     In    21      Py                   0.482
     In    21      Pz                   0.475
     In    21      S                   -0.528
     In    22      Dzz                  1.997
     In    22      Dzy                  1.998
     In    22      Dzx                  1.997
     In    22      Dxx-yy               1.997
     In    22      Dxy                  1.998
     In    22      S                    1.425
     In    22      Px                   0.492
     In    22      Py                   0.485
     In    22      Pz                   0.477
     In    22      S                   -0.547
     In    23      Dzz                  1.998
     In    23      Dzy                  1.998
     In    23      Dzx                  1.998
     In    23      Dxx-yy               1.997
     In    23      Dxy                  1.998
     In    23      S                    1.422
     In    23      Px                   0.484
     In    23      Py                   0.481
     In    23      Pz                   0.480
     In    23      S                   -0.527
     In    24      Dzz                  1.997
     In    24      Dzy                  1.998
     In    24      Dzx                  1.998
     In    24      Dxx-yy               1.997
     In    24      Dxy                  1.998
     In    24      S                    1.429
     In    24      Px                   0.484
     In    24      Py                   0.484
     In    24      Pz                   0.479
     In    24      S                   -0.551
     In    25      Dzz                  1.998
     In    25      Dzy                  1.999
     In    25      Dzx                  1.998
     In    25      Dxx-yy               1.998
     In    25      Dxy                  1.998
     In    25      S                    1.440
     In    25      Px                   0.498
     In    25      Py                   0.448
     In    25      Pz                   0.476
     In    25      S                   -0.485
     In    26      Dzz                  1.998
     In    26      Dzy                  1.999
     In    26      Dzx                  1.998
     In    26      Dxx-yy               1.998
     In    26      Dxy                  1.998
     In    26      S                    1.420
     In    26      Px                   0.493
     In    26      Py                   0.473
     In    26      Pz                   0.462
     In    26      S                   -0.499
     In    27      Dzz                  1.997
     In    27      Dzy                  1.996
     In    27      Dzx                  1.999
     In    27      Dxx-yy               1.996
     In    27      Dxy                  1.999
     In    27      S                    1.448
     In    27      Px                   0.501
     In    27      Py                   0.498
     In    27      Pz                   0.478
     In    27      S                   -0.478
     In    28      Dzz                  1.998
     In    28      Dzy                  1.998
     In    28      Dzx                  1.998
     In    28      Dxx-yy               1.998
     In    28      Dxy                  1.999
     In    28      S                    1.453
     In    28      Px                   0.527
     In    28      Py                   0.467
     In    28      Pz                   0.488
     In    28      S                   -0.452
     In    29      Dzz                  1.997
     In    29      Dzy                  1.998
     In    29      Dzx                  1.997
     In    29      Dxx-yy               1.997
     In    29      Dxy                  1.998
     In    29      S                    1.418
     In    29      Px                   0.492
     In    29      Py                   0.497
     In    29      Pz                   0.477
     In    29      S                   -0.537
     In    30      Dzz                  1.997
     In    30      Dzy                  1.998
     In    30      Dzx                  1.998
     In    30      Dxx-yy               1.997
     In    30      Dxy                  1.998
     In    30      S                    1.424
     In    30      Px                   0.472
     In    30      Py                   0.483
     In    30      Pz                   0.492
     In    30      S                   -0.561
     In    31      Dzz                  1.997
     In    31      Dzy                  1.998
     In    31      Dzx                  1.997
     In    31      Dxx-yy               1.997
     In    31      Dxy                  1.998
     In    31      S                    1.429
     In    31      Px                   0.486
     In    31      Py                   0.486
     In    31      Pz                   0.481
     In    31      S                   -0.552
     In    32      Dzz                  1.997
     In    32      Dzy                  1.998
     In    32      Dzx                  1.997
     In    32      Dxx-yy               1.997
     In    32      Dxy                  1.998
     In    32      S                    1.424
     In    32      Px                   0.492
     In    32      Py                   0.489
     In    32      Pz                   0.478
     In    32      S                   -0.559
     In    33      Dzz                  1.997
     In    33      Dzy                  1.998
     In    33      Dzx                  1.997
     In    33      Dxx-yy               1.997
     In    33      Dxy                  1.998
     In    33      S                    1.423
     In    33      Px                   0.488
     In    33      Py                   0.486
     In    33      Pz                   0.479
     In    33      S                   -0.554
     In    34      Dzz                  1.997
     In    34      Dzy                  1.998
     In    34      Dzx                  1.998
     In    34      Dxx-yy               1.997
     In    34      Dxy                  1.998
     In    34      S                    1.428
     In    34      Px                   0.487
     In    34      Py                   0.484
     In    34      Pz                   0.477
     In    34      S                   -0.544
     In    35      Dzz                  1.997
     In    35      Dzy                  1.998
     In    35      Dzx                  1.997
     In    35      Dxx-yy               1.996
     In    35      Dxy                  1.998
     In    35      S                    1.432
     In    35      Px                   0.491
     In    35      Py                   0.485
     In    35      Pz                   0.480
     In    35      S                   -0.568
     In    36      Dzz                  1.997
     In    36      Dzy                  1.998
     In    36      Dzx                  1.997
     In    36      Dxx-yy               1.997
     In    36      Dxy                  1.998
     In    36      S                    1.431
     In    36      Px                   0.488
     In    36      Py                   0.484
     In    36      Pz                   0.478
     In    36      S                   -0.550
     In    37      Dzz                  1.997
     In    37      Dzy                  1.998
     In    37      Dzx                  1.998
     In    37      Dxx-yy               1.997
     In    37      Dxy                  1.998
     In    37      S                    1.421
     In    37      Px                   0.474
     In    37      Py                   0.487
     In    37      Pz                   0.479
     In    37      S                   -0.522
     In    38      Dzz                  1.998
     In    38      Dzy                  1.999
     In    38      Dzx                  1.998
     In    38      Dxx-yy               1.997
     In    38      Dxy                  1.999
     In    38      S                    1.426
     In    38      Px                   0.471
     In    38      Py                   0.485
     In    38      Pz                   0.480
     In    38      S                   -0.507
     In    39      Dzz                  1.998
     In    39      Dzy                  1.998
     In    39      Dzx                  1.998
     In    39      Dxx-yy               1.997
     In    39      Dxy                  1.999
     In    39      S                    1.453
     In    39      Px                   0.474
     In    39      Py                   0.482
     In    39      Pz                   0.483
     In    39      S                   -0.463
     In    40      Dzz                  1.998
     In    40      Dzy                  1.999
     In    40      Dzx                  1.998
     In    40      Dxx-yy               1.998
     In    40      Dxy                  1.999
     In    40      S                    1.458
     In    40      Px                   0.462
     In    40      Py                   0.481
     In    40      Pz                   0.459
     In    40      S                   -0.484
     In    41      Dzz                  1.997
     In    41      Dzy                  1.998
     In    41      Dzx                  1.998
     In    41      Dxx-yy               1.997
     In    41      Dxy                  1.999
     In    41      S                    1.429
     In    41      Px                   0.484
     In    41      Py                   0.476
     In    41      Pz                   0.483
     In    41      S                   -0.532
     In    42      Dzz                  1.998
     In    42      Dzy                  1.999
     In    42      Dzx                  1.998
     In    42      Dxx-yy               1.997
     In    42      Dxy                  1.999
     In    42      S                    1.429
     In    42      Px                   0.479
     In    42      Py                   0.477
     In    42      Pz                   0.473
     In    42      S                   -0.508
     In    43      Dzz                  1.998
     In    43      Dzy                  1.998
     In    43      Dzx                  1.998
     In    43      Dxx-yy               1.997
     In    43      Dxy                  1.998
     In    43      S                    1.428
     In    43      Px                   0.486
     In    43      Py                   0.477
     In    43      Pz                   0.477
     In    43      S                   -0.516
     In    44      Dzz                  1.997
     In    44      Dzy                  1.998
     In    44      Dzx                  1.998
     In    44      Dxx-yy               1.997
     In    44      Dxy                  1.998
     In    44      S                    1.427
     In    44      Px                   0.483
     In    44      Py                   0.484
     In    44      Pz                   0.481
     In    44      S                   -0.539
     In    45      Dzz                  1.997
     In    45      Dzy                  1.998
     In    45      Dzx                  1.998
     In    45      Dxx-yy               1.997
     In    45      Dxy                  1.998
     In    45      S                    1.424
     In    45      Px                   0.487
     In    45      Py                   0.480
     In    45      Pz                   0.477
     In    45      S                   -0.532
     In    46      Dzz                  1.998
     In    46      Dzy                  1.998
     In    46      Dzx                  1.998
     In    46      Dxx-yy               1.997
     In    46      Dxy                  1.998
     In    46      S                    1.421
     In    46      Px                   0.487
     In    46      Py                   0.476
     In    46      Pz                   0.476
     In    46      S                   -0.511
     In    47      Dzz                  1.997
     In    47      Dzy                  1.998
     In    47      Dzx                  1.998
     In    47      Dxx-yy               1.997
     In    47      Dxy                  1.998
     In    47      S                    1.428
     In    47      Px                   0.491
     In    47      Py                   0.480
     In    47      Pz                   0.473
     In    47      S                   -0.529
     In    48      Dzz                  1.998
     In    48      Dzy                  1.999
     In    48      Dzx                  1.998
     In    48      Dxx-yy               1.997
     In    48      Dxy                  1.998
     In    48      S                    1.422
     In    48      Px                   0.491
     In    48      Py                   0.479
     In    48      Pz                   0.472
     In    48      S                   -0.517
  -------------------------------------------
                           Total:     864.000
  -------------------------------------------

     Atomic Populations (Mulliken)
     -----------------------------
Species          Ion     s       p       d       f      Total   Charge (e)
==========================================================================
  P               1     1.745   3.736   0.000   0.000   5.481    -0.481
  P               2     1.755   3.721   0.000   0.000   5.476    -0.476
  P               3     1.746   3.917   0.000   0.000   5.664    -0.664
  P               4     1.741   3.929   0.000   0.000   5.670    -0.670
  P               5     1.745   3.918   0.000   0.000   5.663    -0.663
  P               6     1.740   3.929   0.000   0.000   5.669    -0.669
  P               7     1.741   3.927   0.000   0.000   5.669    -0.669
  P               8     1.741   3.926   0.000   0.000   5.668    -0.668
  P               9     1.742   3.925   0.000   0.000   5.667    -0.667
  P              10     1.741   3.929   0.000   0.000   5.670    -0.670
  P              11     1.742   3.921   0.000   0.000   5.663    -0.663
  P              12     1.747   3.918   0.000   0.000   5.664    -0.664
  P              13     1.744   3.920   0.000   0.000   5.664    -0.664
  P              14     1.750   3.908   0.000   0.000   5.658    -0.658
  P              15     1.740   3.933   0.000   0.000   5.673    -0.673
  P              16     1.740   3.928   0.000   0.000   5.667    -0.667
  P              17     1.737   3.934   0.000   0.000   5.671    -0.671
  P              18     1.735   3.938   0.000   0.000   5.672    -0.672
  P              19     1.733   3.942   0.000   0.000   5.675    -0.675
  P              20     1.738   3.933   0.000   0.000   5.672    -0.672
  P              21     1.734   3.941   0.000   0.000   5.675    -0.675
  P              22     1.728   3.950   0.000   0.000   5.678    -0.678
  P              23     1.738   3.931   0.000   0.000   5.669    -0.669
  P              24     1.730   3.943   0.000   0.000   5.674    -0.674
  P              25     1.761   3.854   0.000   0.000   5.615    -0.615
  P              26     1.744   3.914   0.000   0.000   5.658    -0.658
  P              27     1.729   3.947   0.000   0.000   5.676    -0.676
  P              28     1.737   3.921   0.000   0.000   5.658    -0.658
  P              29     1.727   3.952   0.000   0.000   5.679    -0.679
  P              30     1.728   3.951   0.000   0.000   5.679    -0.679
  P              31     1.728   3.950   0.000   0.000   5.678    -0.678
  P              32     1.729   3.950   0.000   0.000   5.679    -0.679
  P              33     1.726   3.952   0.000   0.000   5.678    -0.678
  P              34     1.731   3.943   0.000   0.000   5.674    -0.674
  P              35     1.720   3.959   0.000   0.000   5.679    -0.679
  P              36     1.729   3.936   0.000   0.000   5.665    -0.665
  P              37     1.753   3.900   0.000   0.000   5.653    -0.653
  P              38     1.758   3.865   0.000   0.000   5.623    -0.623
  P              39     1.738   3.931   0.000   0.000   5.669    -0.669
  P              40     1.748   3.913   0.000   0.000   5.661    -0.661
  P              41     1.736   3.936   0.000   0.000   5.672    -0.672
  P              42     1.740   3.930   0.000   0.000   5.670    -0.670
  P              43     1.738   3.933   0.000   0.000   5.671    -0.671
  P              44     1.732   3.943   0.000   0.000   5.675    -0.675
  P              45     1.736   3.935   0.000   0.000   5.671    -0.671
  P              46     1.741   3.927   0.000   0.000   5.668    -0.668
  P              47     1.735   3.935   0.000   0.000   5.670    -0.670
  P              48     1.739   3.930   0.000   0.000   5.668    -0.668
  In              1     0.916   1.447   9.988   0.000  12.350     0.650
  In              2     0.892   1.453   9.988   0.000  12.333     0.667
  In              3     0.963   1.395   9.991   0.000  12.350     0.650
  In              4     0.917   1.418   9.990   0.000  12.326     0.674
  In              5     0.935   1.410   9.991   0.000  12.336     0.664
  In              6     0.927   1.428   9.990   0.000  12.345     0.655
  In              7     0.912   1.433   9.990   0.000  12.336     0.664
  In              8     0.914   1.432   9.990   0.000  12.335     0.665
  In              9     0.916   1.438   9.990   0.000  12.344     0.656
  In             10     0.911   1.438   9.990   0.000  12.339     0.661
  In             11     0.911   1.443   9.990   0.000  12.343     0.657
  In             12     0.904   1.437   9.990   0.000  12.331     0.669
  In             13     0.919   1.434   9.990   0.000  12.343     0.657
  In             14     0.907   1.439   9.989   0.000  12.335     0.665
  In             15     0.922   1.418   9.990   0.000  12.331     0.669
  In             16     0.955   1.447   9.990   0.000  12.392     0.608
  In             17     0.906   1.442   9.989   0.000  12.337     0.663
  In             18     0.889   1.452   9.989   0.000  12.330     0.670
  In             19     0.884   1.447   9.989   0.000  12.320     0.680
  In             20     0.904   1.438   9.990   0.000  12.332     0.668
  In             21     0.894   1.444   9.989   0.000  12.328     0.672
  In             22     0.878   1.454   9.988   0.000  12.320     0.680
  In             23     0.896   1.445   9.989   0.000  12.330     0.670
  In             24     0.878   1.446   9.989   0.000  12.313     0.687
  In             25     0.955   1.422   9.990   0.000  12.367     0.633
  In             26     0.921   1.429   9.990   0.000  12.340     0.660
  In             27     0.970   1.477   9.987   0.000  12.433     0.567
  In             28     1.002   1.483   9.990   0.000  12.475     0.525
  In             29     0.881   1.466   9.987   0.000  12.334     0.666
  In             30     0.862   1.448   9.988   0.000  12.298     0.702
  In             31     0.876   1.452   9.988   0.000  12.317     0.683
  In             32     0.865   1.459   9.988   0.000  12.312     0.688
  In             33     0.869   1.454   9.988   0.000  12.310     0.690
  In             34     0.883   1.448   9.989   0.000  12.320     0.680
  In             35     0.864   1.457   9.987   0.000  12.308     0.692
  In             36     0.881   1.449   9.988   0.000  12.319     0.681
  In             37     0.899   1.440   9.989   0.000  12.328     0.672
  In             38     0.919   1.436   9.990   0.000  12.345     0.655
  In             39     0.990   1.439   9.990   0.000  12.419     0.581
  In             40     0.973   1.402   9.991   0.000  12.367     0.633
  In             41     0.897   1.444   9.989   0.000  12.330     0.670
  In             42     0.921   1.429   9.990   0.000  12.341     0.659
  In             43     0.912   1.439   9.990   0.000  12.341     0.659
  In             44     0.888   1.448   9.989   0.000  12.325     0.675
  In             45     0.892   1.444   9.989   0.000  12.325     0.675
  In             46     0.911   1.439   9.990   0.000  12.340     0.660
  In             47     0.899   1.443   9.989   0.000  12.331     0.669
  In             48     0.904   1.443   9.989   0.000  12.336     0.664
==========================================================================

                 Bond                   Population      Length (A)
======================================================================
              P 1  -- P 2                    0.44        2.26929
              P 27 -- In 27                  0.68        2.45765
              P 25 -- In 27                  1.46        2.48640
              P 29 -- In 29                  0.61        2.49983
              P 16 -- In 29                  0.55        2.50004
              P 35 -- In 35                  0.58        2.50371
              P 35 -- In 1                   0.57        2.50522
              P 30 -- In 30                  0.59        2.50627
              P 35 -- In 2                   1.37        2.50807
              P 32 -- In 32                  0.59        2.51552
              P 24 -- In 2                   0.58        2.51711
              P 33 -- In 33                  0.57        2.51712
              P 31 -- In 31                  0.57        2.51728
              P 1  -- In 3                   1.22        2.51872
              P 36 -- In 14                  0.55        2.51913
              P 26 -- In 16                  1.36        2.52315
              P 22 -- In 35                  0.57        2.52331
              P 22 -- In 22                  0.58        2.52472
              P 18 -- In 32                  0.57        2.52473
              P 15 -- In 18                  0.54        2.52549
              P 47 -- In 13                  0.57        2.52662
              P 19 -- In 22                  0.56        2.52668
              P 17 -- In 19                  0.56        2.52797
              P 33 -- In 35                  1.38        2.52802
              P 33 -- In 36                  0.58        2.52806
              P 34 -- In 47                  0.57        2.52840
              P 13 -- In 15                  1.34        2.53230
              P 29 -- In 31                  0.55        2.53417
              P 30 -- In 44                  0.56        2.53454
              P 36 -- In 36                  0.56        2.53470
              P 27 -- In 30                  0.50        2.53472
              P 44 -- In 44                  0.58        2.53533
              P 45 -- In 48                  0.56        2.53550
              P 34 -- In 34                  0.56        2.53583
              P 36 -- In 1                   1.37        2.53621
              P 32 -- In 33                  0.56        2.53653
              P 44 -- In 45                  0.56        2.53654
              P 31 -- In 34                  0.56        2.53657
              P 20 -- In 21                  0.56        2.53753
              P 27 -- In 29                  1.32        2.53763
              P 21 -- In 24                  0.56        2.53807
              P 14 -- In 4                   1.30        2.53808
              P 28 -- In 30                  1.40        2.53818
              P 48 -- In 26                  0.58        2.53960
              P 4  -- In 17                  0.52        2.54150
              P 29 -- In 32                  1.36        2.54173
              P 2  -- In 40                  1.11        2.54174
              P 31 -- In 33                  1.37        2.54188
              P 6  -- In 20                  0.55        2.54188
              P 24 -- In 24                  0.55        2.54204
              P 24 -- In 37                  1.34        2.54209
              P 30 -- In 31                  1.35        2.54236
              P 43 -- In 46                  0.56        2.54414
              P 39 -- In 41                  1.35        2.54432
              P 7  -- In 10                  0.55        2.54646
              P 46 -- In 11                  0.56        2.54660
              P 19 -- In 19                  0.58        2.54688
              P 41 -- In 43                  0.55        2.54745
              P 22 -- In 24                  1.37        2.54799
              P 32 -- In 22                  1.36        2.54814
              P 34 -- In 36                  1.35        2.54850
              P 10 -- In 23                  0.54        2.54972
              P 28 -- In 28                  0.55        2.54976
              P 8  -- In 9                   0.55        2.54978
              P 37 -- In 39                  1.21        2.54988
              P 11 -- In 25                  0.56        2.55024
              P 38 -- In 28                  1.31        2.55117
              P 18 -- In 18                  0.59        2.55200
              P 41 -- In 44                  1.35        2.55295
              P 44 -- In 34                  1.34        2.55412
              P 5  -- In 7                   0.55        2.55420
              P 21 -- In 21                  0.57        2.55457
              P 41 -- In 41                  0.54        2.55522
              P 23 -- In 38                  1.33        2.55523
              P 9  -- In 12                  0.56        2.55565
              P 37 -- In 37                  0.55        2.55579
              P 3  -- In 5                   1.30        2.55714
              P 42 -- In 8                   0.55        2.55732
              P 21 -- In 23                  1.34        2.55749
              P 45 -- In 45                  0.56        2.55758
              P 47 -- In 47                  0.57        2.55945
              P 39 -- In 39                  0.55        2.56178
              P 19 -- In 21                  1.33        2.56244
              P 45 -- In 47                  1.33        2.56342
              P 47 -- In 14                  1.32        2.56343
              P 23 -- In 37                  0.54        2.56345
              P 43 -- In 45                  1.34        2.56408
              P 42 -- In 43                  1.33        2.56433
              P 38 -- In 38                  0.56        2.56493
              P 23 -- In 23                  0.55        2.56505
              P 17 -- In 17                  0.57        2.56509
              P 18 -- In 19                  1.33        2.56544
              P 48 -- In 48                  0.56        2.56772
              P 16 -- In 18                  1.34        2.56807
              P 28 -- In 41                  0.54        2.56904
              P 8  -- In 46                  1.32        2.56930
              P 3  -- In 6                   0.51        2.56980
              P 12 -- In 25                  1.32        2.57010
              P 43 -- In 43                  0.55        2.57014
              P 20 -- In 20                  0.57        2.57029
              P 20 -- In 10                  1.33        2.57063
              P 10 -- In 12                  1.35        2.57092
              P 46 -- In 48                  1.32        2.57127
              P 5  -- In 8                   1.32        2.57167
              P 17 -- In 20                  1.33        2.57227
              P 7  -- In 9                   1.32        2.57277
              P 15 -- In 17                  1.36        2.57312
              P 42 -- In 42                  0.54        2.57336
              P 4  -- In 6                   1.35        2.57341
              P 9  -- In 11                  1.32        2.57413
              P 6  -- In 7                   1.33        2.57499
              P 40 -- In 40                  0.53        2.57512
              P 40 -- In 42                  1.30        2.57539
              P 48 -- In 13                  1.30        2.57596
              P 6  -- In 6                   0.55        2.57671
              P 2  -- In 2                   0.57        2.57912
              P 46 -- In 46                  0.55        2.57967
              P 11 -- In 11                  0.55        2.58040
              P 39 -- In 42                  0.54        2.58093
              P 10 -- In 10                  0.55        2.58409
              P 11 -- In 26                  1.28        2.58428
              P 14 -- In 14                  0.53        2.58517
              P 3  -- In 3                   0.52        2.58742
              P 13 -- In 13                  0.53        2.58805
              P 26 -- In 26                  0.54        2.58847
              P 12 -- In 38                  0.53        2.59128
              P 9  -- In 9                   0.55        2.59165
              P 8  -- In 8                   0.56        2.59236
              P 7  -- In 7                   0.56        2.59376
              P 15 -- In 15                  0.54        2.59522
              P 4  -- In 4                   0.54        2.59705
              P 40 -- In 5                   0.52        2.60030
              P 1  -- In 1                   0.50        2.60209
              P 16 -- In 16                  0.54        2.60472
              P 12 -- In 12                  0.52        2.60608
              P 5  -- In 5                   0.54        2.60953
              P 37 -- In 40                  0.51        2.61910
              P 38 -- In 39                  0.40        2.63273
              P 13 -- In 4                   0.53        2.64498
              P 25 -- In 25                  0.44        2.65189
              P 26 -- In 15                  0.51        2.65267
              P 14 -- In 3                   0.51        2.66012
              P 25 -- In 16                  0.34        2.76499
======================================================================

 Hirshfeld supercell size:           1           1           4
Standard grid dimensions: 250 250 180
Fine grid dimensions:     250 250 180


     Hirshfeld Analysis
     ------------------
Species   Ion     Hirshfeld Charge (e)
======================================
  P        1                -0.16
  P        2                -0.16
  P        3                -0.24
  P        4                -0.25
  P        5                -0.24
  P        6                -0.24
  P        7                -0.24
  P        8                -0.24
  P        9                -0.24
  P       10                -0.24
  P       11                -0.24
  P       12                -0.23
  P       13                -0.24
  P       14                -0.24
  P       15                -0.24
  P       16                -0.24
  P       17                -0.24
  P       18                -0.24
  P       19                -0.24
  P       20                -0.24
  P       21                -0.24
  P       22                -0.24
  P       23                -0.24
  P       24                -0.24
  P       25                -0.23
  P       26                -0.24
  P       27                -0.23
  P       28                -0.24
  P       29                -0.24
  P       30                -0.24
  P       31                -0.24
  P       32                -0.24
  P       33                -0.24
  P       34                -0.24
  P       35                -0.25
  P       36                -0.24
  P       37                -0.24
  P       38                -0.24
  P       39                -0.24
  P       40                -0.24
  P       41                -0.24
  P       42                -0.24
  P       43                -0.24
  P       44                -0.24
  P       45                -0.24
  P       46                -0.24
  P       47                -0.24
  P       48                -0.24
  In       1                 0.24
  In       2                 0.24
  In       3                 0.24
  In       4                 0.24
  In       5                 0.25
  In       6                 0.24
  In       7                 0.24
  In       8                 0.24
  In       9                 0.24
  In      10                 0.24
  In      11                 0.23
  In      12                 0.24
  In      13                 0.24
  In      14                 0.24
  In      15                 0.24
  In      16                 0.21
  In      17                 0.24
  In      18                 0.23
  In      19                 0.24
  In      20                 0.24
  In      21                 0.24
  In      22                 0.24
  In      23                 0.24
  In      24                 0.24
  In      25                 0.25
  In      26                 0.24
  In      27                 0.22
  In      28                 0.16
  In      29                 0.23
  In      30                 0.23
  In      31                 0.24
  In      32                 0.23
  In      33                 0.24
  In      34                 0.24
  In      35                 0.24
  In      36                 0.24
  In      37                 0.24
  In      38                 0.24
  In      39                 0.22
  In      40                 0.23
  In      41                 0.23
  In      42                 0.24
  In      43                 0.24
  In      44                 0.24
  In      45                 0.24
  In      46                 0.24
  In      47                 0.24
  In      48                 0.24
======================================

 
 A BibTeX formatted list of references used in this run has been written to 
 90deg_Singlepoints_4.bib
 
Initialisation time =     31.06 s
Calculation time    =   5262.40 s
Finalisation time   =     67.69 s
Total time          =   5361.15 s
Peak Memory Use     = 8598428 kB
 
Overall parallel efficiency rating: Terrible (33%)
 
Data was distributed by:-
G-vector (6-way); efficiency rating: Poor (36%)
k-point (20-way); efficiency rating: Very good (84%)
