 +-------------------------------------------------+
 |                                                 |
 |      CCC   AA    SSS  TTTTT  EEEEE  PPPP        |
 |     C     A  A  S       T    E      P   P       |
 |     C     AAAA   SS     T    EEE    PPPP        |
 |     C     A  A     S    T    E      P           |
 |      CCC  A  A  SSS     T    EEEEE  P           |
 |                                                 |
 +-------------------------------------------------+
 |                                                 |
 | Welcome to Academic Release CASTEP version 24.1 |
 | Ab Initio Total Energy Program                  |
 |                                                 |
 | Authors:                                        |
 | M. Segall, M. Probert, C. Pickard, P. Hasnip,   |
 | S. Clark, K. Refson, J. R. Yates,               |
 | A. Bartok-Partay, M. Payne                      |
 |                                                 |
 | Contributors:                                   |
 | P. Lindan, P. Haynes, J. White, V. Milman,      |
 | N. Govind, M. Gibson, P. Tulip, V. Cocula,      |
 | B. Montanari, D. Quigley, M. Glover,            |
 | L. Bernasconi, A. Perlov, M. Plummer,           |
 | E. McNellis, J. Meyer, J. Gale, D. Jochym       |
 | J. Aarons, B. Walker, R. Gillen, D. Jones       |
 | T. Green, I. J. Bush, C. J. Armstrong,          |
 | E. J. Higgins, E. L. Brown, M. S. McFly,        |
 | J. Wilkins, B-C. Shih, P. J. P. Byrne,          |
 | R. J. Maurer, J. C. Womack, J. Dziedzic,        |
 | L. LeBlanc, T. K. Stenczel, J. Kermode,         |
 | S. Sturniolo, B. Shi, B. Durham, M. Evans,      |
 | M. J. Smith, A. Tamerus, Z. Hawkhead,           |
 | V. Ravindran, T. Hollins, S. A. Joyce,          |
 | R. T. Strong, A. M. Reilly, S. J. Donaldson     |
 |                                                 |
 | Copyright (c) 2000 - 2023                       |
 |                                                 |
 |     Distributed under license from Cambridge    |
 |     Enterprise for academic use only.           |
 |                                                 |
 | Please cite                                     |
 |                                                 |
 |     "First principles methods using CASTEP"     |
 |                                                 |
 |         Zeitschrift fuer Kristallographie       |
 |           220(5-6) pp. 567-570 (2005)           |
 |                                                 |
 | S. J. Clark, M. D. Segall, C. J. Pickard,       |
 | P. J. Hasnip, M. J. Probert, K. Refson,         |
 | M. C. Payne                                     |
 |                                                 |
 |       in all publications arising from          |
 |              your use of CASTEP                 |
 |                                                 |
 +-------------------------------------------------+
 |                                                 |
 |              http://www.castep.org              |
 |                                                 |
 +-------------------------------------------------+



 Compiled for  GNU 11.2.0 on 04-04-2024 18:39:17
 from code version 6355fd106 Castep241_branch Thu Mar 7 17:56:19 2024 +0000
 Compiler: GNU Fortran 11.2.0; Optimisation: FAST
 Comms   : MPI VERSION : CRAY MPICH version 8.1.23.14 (ANL base 3.4a2)
 MATHLIBS: default (LAPACK version 3.10.1)
 FFT Lib : fftw3 version commercial-fftw-3.3.10-sse2-avx-avx2-avx2_128
 Fundamental constants values: CODATA 2018

 Run started: Tue, 29 Jul 2025 20:34:51 +0100

 Atomic calculation performed for P: 1s2 2s2 2p6 3s2 3p3

 Converged in 47 iterations to an ae energy of -9309.074 eV

   ============================================================                
   | Pseudopotential Report - Date of generation 29-07-2025   |                
   ------------------------------------------------------------                
   | Element: P Ionic charge:  5.00 Level of theory: RSCAN    |                
   | Atomic Solver: Koelling-Harmon                           |                
   |                                                          |                
   |               Reference Electronic Structure             |                
   |         Orbital         Occupation         Energy        |                
   |            3s              2.000           -0.535        |                
   |            3p              3.000           -0.209        |                
   |                                                          |                
   |                 Pseudopotential Definition               |                
   |        Beta     l      e      Rc     scheme   norm       |                
   |          1      0   -0.535   1.807     qc      0         |                
   |          2      0    0.250   1.807     qc      0         |                
   |          3      1   -0.209   1.807     qc      0         |                
   |          4      1    0.250   1.807     qc      0         |                
   |          5      2    0.000   1.807     qc      0         |                
   |          6      2    0.250   1.807     qc      0         |                
   |         loc     3    0.000   1.807     pn      0         |                
   |                                                          |                
   | Augmentation charge Rinner = 1.263                       |                
   | Partial core correction Rc = 1.263                       |                
   ------------------------------------------------------------                
   | "3|1.8|4|4|5|30:31:32"                                   |                
   ------------------------------------------------------------                
   |      Author: Chris J. Pickard, Cambridge University      |                
   ============================================================                
 Warning: otfg_output_psp cannot write out meta-GGA pseudopotentials presently.

 Atomic calculation performed for In:
 1s2 2s2 2p6 3s2 3p6 3d10 4s2 4p6 4d10 5s2 5p1

 Converged in 84 iterations to an ae energy of -160093.328 eV

   ============================================================                
   | Pseudopotential Report - Date of generation 29-07-2025   |                
   ------------------------------------------------------------                
   | Element: In Ionic charge: 13.00 Level of theory: RSCAN   |                
   | Atomic Solver: Koelling-Harmon                           |                
   |                                                          |                
   |               Reference Electronic Structure             |                
   |         Orbital         Occupation         Energy        |                
   |            4d             10.000           -0.711        |                
   |            5s              2.000           -0.313        |                
   |            5p              1.000           -0.095        |                
   |                                                          |                
   |                 Pseudopotential Definition               |                
   |        Beta     l      e      Rc     scheme   norm       |                
   |          1      0   -0.313   2.501     qc      0         |                
   |          2      0    0.250   2.501     qc      0         |                
   |          3      1   -0.095   2.501     qc      0         |                
   |          4      1    0.250   2.501     qc      0         |                
   |          5      2   -0.711   2.207     qc      0         |                
   |          6      2    0.250   2.207     qc      0         |                
   |         loc     3    0.000   2.501     pn      0         |                
   |                                                          |                
   | Augmentation charge Rinner = 1.504                       |                
   | Partial core correction Rc = 1.504                       |                
   ------------------------------------------------------------                
   | "3|2.5|2.5|1.5|7|8|9|50:51:42U2.2U2.2"                   |                
   ------------------------------------------------------------                
   |      Author: Chris J. Pickard, Cambridge University      |                
   ============================================================                
 Warning: otfg_output_psp cannot write out meta-GGA pseudopotentials presently.

 Pseudo atomic calculation performed for P 3s2 3p3

 Converged in 23 iterations to a total energy of -208.0292 eV

 Pseudo atomic calculation performed for In 4d10 5s2 5p1

 Converged in 42 iterations to a total energy of -1747.4501 eV
 Calculation parallelised over 108 processes.
 Data is distributed by G-vector(3-way) and k-point(36-way)
 Each process may use up to 16 threads.

 ************************************ Title ************************************
 

 ***************************** General Parameters ******************************
  
 output verbosity                               : normal  (1)
 write checkpoint data to                       : P_Interstitial_Migration_Dumbbell_Dumbbell+_Singlepoints_4.check
 type of calculation                            : single point energy
 stress calculation                             : off
 density difference calculation                 : off
 electron localisation func (ELF) calculation   : off
 Hirshfeld analysis                             : on
 polarisation (Berry phase) analysis            : off
 molecular orbital projected DOS                : off
 deltaSCF calculation                           : off
 unlimited duration calculation
 timing information                             : on
 memory usage estimate                          : on
 write extra output files                       : on
 write final potential to formatted file        : off
 write final density to formatted file          : off
 write BibTeX reference list                    : on
 write OTFG pseudopotential files               : on
 write electrostatic potential file             : on
 write bands file                               : on
 checkpoint writing                             : off
  
 output         length unit                     : A
 output           mass unit                     : amu
 output           time unit                     : ps
 output         charge unit                     : e
 output           spin unit                     : hbar/2
 output         energy unit                     : eV
 output          force unit                     : eV/A
 output       velocity unit                     : A/ps
 output       pressure unit                     : GPa
 output     inv_length unit                     : 1/A
 output      frequency unit                     : cm-1
 output force constant unit                     : eV/A**2
 output         volume unit                     : A**3
 output   IR intensity unit                     : (D/A)**2/amu
 output         dipole unit                     : D
 output         efield unit                     : eV/A/e
 output        entropy unit                     : J/mol/K
 output    efield chi2 unit                     : pm/V
  
 wavefunctions paging                           : none
 random number generator seed                   :  203451699
 data distribution                              : optimal for this architecture
 optimization strategy                          : balance speed and memory

 *********************** Exchange-Correlation Parameters ***********************
  
 using functional                               : RSCAN
 relativistic treatment                         : Koelling-Harmon
 DFT+D: Semi-empirical dispersion correction    : off

 ************************* Pseudopotential Parameters **************************
  
 pseudopotential representation                 : reciprocal space
 <beta|phi> representation                      : reciprocal space
 spin-orbit coupling                            : off

 **************************** Basis Set Parameters *****************************
  
 plane wave basis set cut-off                   :   900.0000   eV
 size of standard grid                          :     2.0000
 size of   fine   gmax                          :    30.7390   1/A
 finite basis set correction                    : none

 **************************** Electronic Parameters ****************************
  
 number of  electrons                           :  581.0    
 net charge of system                           :  0.000    
 net spin   of system                           :  1.000    
 number of  up  spins                           :  291.0    
 number of down spins                           :  290.0    
 treating system as spin-polarized
 number of bands                                :        349

 ********************* Electronic Minimization Parameters **********************
  
 Method: Treating system as metallic with density mixing treatment of electrons,
         and number of  SD  steps               :          1
         and number of  CG  steps               :          4
  
 total energy / atom convergence tol.           : 0.1000E-07   eV
 eigen-energy convergence tolerance             : 0.2234E-08   eV
 max force / atom convergence tol.              : ignored
 convergence tolerance window                   :          3   cycles
 max. number of SCF cycles                      :        100
 number of fixed-spin iterations                :         10
 smearing scheme                                : Gaussian
 smearing width                                 : 0.2000       eV
 Fermi energy convergence tolerance             : 0.2721E-13   eV
 periodic dipole correction                     : NONE

 ************************** Density Mixing Parameters **************************
  
 density-mixing scheme                          : Pulay
 max. length of mixing history                  :         20
 charge density mixing amplitude                : 0.5000    
   spin density mixing amplitude                :  2.000    
 cut-off energy for mixing                      :  900.0       eV

 *********************** Population Analysis Parameters ************************
  
 Population analysis with cutoff                :  3.000       A
 Population analysis output                     : summary and pdos components

 *******************************************************************************
  

                           -------------------------------
                                      Unit Cell
                           -------------------------------
        Real Lattice(A)                      Reciprocal Lattice(1/A)
    11.8016820    -0.0000080    -0.0000080        0.532397442   0.000000361   0.000000361
    -0.0000080    11.8016820    -0.0000080        0.000000361   0.532397442   0.000000361
    -0.0000080    -0.0000080    11.8016820        0.000000361   0.000000361   0.532397442

                       Lattice parameters(A)       Cell Angles
                    a =     11.801682          alpha =   90.000078
                    b =     11.801682          beta  =   90.000078
                    c =     11.801682          gamma =   90.000078

                       Current cell volume =          1643.734705       A**3
                                   density =             2.857097   AMU/A**3
                                           =             4.744322     g/cm^3

                           -------------------------------
                                     Cell Contents
                           -------------------------------
                         Total number of ions in cell =   65
                      Total number of species in cell =    2
                        Max number of any one species =   33

            xxxxxxxxxxxxxxxxxxxxxxxxxxxxxxxxxxxxxxxxxxxxxxxxxxxxxxxxxxxx
            x  Element    Atom        Fractional coordinates of atoms  x
            x            Number           u          v          w      x
            x----------------------------------------------------------x
            x  P            1         0.114070   0.124465   0.382091   x 
            x  P            2         0.388641   0.115074   0.216135   x 
            x  P            3         0.125755   0.372077   0.122220   x 
            x  P            4         0.374430   0.382345   0.378739   x 
            x  P            5         0.116741   0.123738   0.861142   x 
            x  P            6         0.373837   0.123906   0.620615   x 
            x  P            7         0.124136   0.373896   0.621524   x 
            x  P            8         0.376987   0.377029   0.869184   x 
            x  P            9         0.122156   0.621924   0.370803   x 
            x  P           10         0.373568   0.625830   0.122081   x 
            x  P           11         0.122082   0.871995   0.124436   x 
            x  P           12         0.373573   0.862903   0.383776   x 
            x  P           13         0.123468   0.624204   0.875054   x 
            x  P           14         0.372335   0.619570   0.625732   x 
            x  P           15         0.120519   0.870573   0.622079   x 
            x  P           16         0.373032   0.866321   0.860699   x 
            x  P           17         0.630530   0.126656   0.378403   x 
            x  P           18         0.875214   0.123665   0.122122   x 
            x  P           19         0.629289   0.379843   0.118586   x 
            x  P           20         0.874977   0.373967   0.372544   x 
            x  P           21         0.625853   0.126400   0.869809   x 
            x  P           22         0.870112   0.121719   0.625497   x 
            x  P           23         0.625720   0.375385   0.622499   x 
            x  P           24         0.874830   0.374626   0.872408   x 
            x  P           25         0.623835   0.625286   0.372416   x 
            x  P           26         0.873019   0.622966   0.121938   x 
            x  P           27         0.621456   0.875799   0.121508   x 
            x  P           28         0.871328   0.873118   0.370451   x 
            x  P           29         0.624977   0.624996   0.872222   x 
            x  P           30         0.873751   0.623824   0.622574   x 
            x  P           31         0.624062   0.874281   0.621286   x 
            x  P           32         0.874511   0.873749   0.875255   x 
            x  P           33         0.326756   0.080721   0.053763   x 
            x  In           1         0.002056   0.000701  -0.003075   x 
            x  In           2         0.231489  -0.018637   0.274861   x 
            x  In           3        -0.000653   0.248093   0.247449   x 
            x  In           4         0.238570   0.257524  -0.021172   x 
            x  In           5        -0.008865  -0.004620   0.502009   x 
            x  In           6         0.246989  -0.002530   0.743037   x 
            x  In           7        -0.005713   0.250625   0.741864   x 
            x  In           8         0.250056   0.248857   0.495400   x 
            x  In           9        -0.000622   0.498425  -0.000786   x 
            x  In          10         0.250239   0.499133   0.246537   x 
            x  In          11        -0.003760   0.746883   0.246514   x 
            x  In          12         0.250155   0.751784  -0.003390   x 
            x  In          13        -0.000938   0.498659   0.497798   x 
            x  In          14         0.245811   0.498526   0.749174   x 
            x  In          15        -0.002528   0.747678   0.749825   x 
            x  In          16         0.245096   0.739864   0.503222   x 
            x  In          17         0.504157  -0.010774  -0.019967   x 
            x  In          18         0.747180   0.001261   0.246781   x 
            x  In          19         0.517951   0.271737   0.263840   x 
            x  In          20         0.751779   0.248093  -0.003114   x 
            x  In          21         0.498979   0.000181   0.495156   x 
            x  In          22         0.748288  -0.004147   0.749476   x 
            x  In          23         0.499480   0.249415   0.744363   x 
            x  In          24         0.753599   0.250016   0.501301   x 
            x  In          25         0.498203   0.502619  -0.003104   x 
            x  In          26         0.751147   0.501384   0.249854   x 
            x  In          27         0.497750   0.750330   0.247847   x 
            x  In          28         0.748412   0.749680  -0.000587   x 
            x  In          29         0.500826   0.503396   0.501300   x 
            x  In          30         0.749432   0.499317   0.748618   x 
            x  In          31         0.501025   0.744470   0.741785   x 
            x  In          32         0.748872   0.749243   0.497610   x 
            xxxxxxxxxxxxxxxxxxxxxxxxxxxxxxxxxxxxxxxxxxxxxxxxxxxxxxxxxxxx


                         No user defined ionic velocities

                           -------------------------------
                                   Details of Species
                           -------------------------------

                               Mass of species in AMU
                                    P   30.9737600
                                    In  114.8180000

                          Electric Quadrupole Moment (Barn)
                                    P    1.0000000 No Isotope Defined
                                    In    0.7700000 Isotope115

                          Files used for pseudopotentials:
                                    P 3|1.8|4|4|5|30:31:32
                                    In 3|2.5|2.5|1.5|7|8|9|50:51:42U2.2U2.2

                           -------------------------------
                              k-Points For BZ Sampling
                           -------------------------------
                       MP grid size for SCF calculation is  4  4  4
                            with an offset of   0.125  0.125  0.125
                       Number of kpoints used =            36

                           -------------------------------
                               Symmetry and Constraints
                           -------------------------------

                      Maximum deviation from symmetry =  0.00000         ANG

                      Number of symmetry operations   =           1
                      Number of ionic constraints     =           3
                      Point group of crystal =     1: C1, 1, 1
                      Space group of crystal =     1: P1, P 1

             Set iprint > 1 for details on symmetry rotations/translations

                         Centre of mass is constrained
             Set iprint > 1 for details of linear ionic constraints

                         Number of cell constraints= 0
                         Cell constraints are:  1 2 3 4 5 6

                         External pressure/stress (GPa)
                          0.00000   0.00000   0.00000
                                    0.00000   0.00000
                                              0.00000
 
+---------------- MEMORY AND SCRATCH DISK ESTIMATES PER PROCESS --------------+
|                                                     Memory          Disk    |
| Baseline code, static data and system overhead      368.0 MB         0.0 MB |
| BLAS internal memory storage                          0.0 MB         0.0 MB |
| Model and support data                             4327.0 MB         0.0 MB |
| Electronic energy minimisation requirements        1337.1 MB         0.0 MB |
| Force calculation requirements                      127.4 MB         0.0 MB |
|                                               ----------------------------- |
| Approx. total storage required per process         6032.2 MB         0.0 MB |
|                                                                             |
| Requirements will fluctuate during execution and may exceed these estimates |
+-----------------------------------------------------------------------------+
Calculating approximate eigenstates for fixed initial Hamiltonian
Cut-off for approx. calculation is   89.988 eV
Improving approx. states at cut-off of  450.000 eV
Resetting cut-off to  900.000 eV
Calculating total energy with cut-off of  900.000 eV.
------------------------------------------------------------------------ <-- SCF
SCF loop      Energy           Fermi           Energy gain       Timer   <-- SCF
                               energy          per atom          (sec)   <-- SCF
------------------------------------------------------------------------ <-- SCF
Initial  -6.32532935E+004  0.00000000E+000                       437.95  <-- SCF
      1  -6.30178157E+004  2.90382287E+000  -3.62273422E+000     891.12  <-- SCF
      2  -6.30180791E+004  2.90326494E+000   4.05218494E-003    1225.05  <-- SCF
      3  -6.30839500E+004  3.24708237E+000   1.01339718E+000    1580.16  <-- SCF
      4  -6.30955346E+004  3.33453655E+000   1.78225972E-001    2081.81  <-- SCF
      5  -6.31019061E+004  3.50601226E+000   9.80224168E-002    2433.73  <-- SCF
      6  -6.30901706E+004  3.73208490E+000  -1.80546230E-001    2784.92  <-- SCF
      7  -6.30888427E+004  3.79116686E+000  -2.04293426E-002    3143.65  <-- SCF
      8  -6.30889474E+004  3.83512829E+000   1.61152669E-003    3520.62  <-- SCF
      9  -6.30898045E+004  3.86314411E+000   1.31850479E-002    3877.45  <-- SCF
     10  -6.30900711E+004  3.84736649E+000   4.10206055E-003    4247.18  <-- SCF
     11  -6.30900756E+004  3.83875393E+000   6.98271727E-005    4625.79  <-- SCF
     12  -6.30900777E+004  3.83239366E+000   3.23112933E-005    4995.47  <-- SCF
     13  -6.30900787E+004  3.83175225E+000   1.51438706E-005    5368.16  <-- SCF
     14  -6.30900789E+004  3.83094559E+000   3.47957769E-006    5739.11  <-- SCF
     15  -6.30900790E+004  3.83026168E+000   8.97945498E-007    6090.77  <-- SCF
     16  -6.30900790E+004  3.83023589E+000   2.83608809E-007    6392.62  <-- SCF
     17  -6.30900790E+004  3.83014450E+000   8.16342472E-008    6677.17  <-- SCF
     18  -6.30900790E+004  3.83022660E+000   2.81536398E-008    6929.68  <-- SCF
     19  -6.30900790E+004  3.83030708E+000   1.04614285E-008    7175.81  <-- SCF
     20  -6.30900790E+004  3.83031809E+000   3.44119925E-009    7425.98  <-- SCF
     21  -6.30900790E+004  3.83031774E+000   6.70306626E-010    7671.10  <-- SCF
------------------------------------------------------------------------ <-- SCF
 
Integrated Spin Density     =    0.997360     hbar/2
Integrated |Spin Density|   =     1.17905     hbar/2
 
Final energy, E             =  -63090.06921940     eV
Final free energy (E-TS)    =  -63090.07902968     eV
(energies not corrected for finite basis set)
 
NB est. 0K energy (E-0.5TS)      =  -63090.07412454     eV
 

 ************************** Forces **************************
 *                                                          *
 *               Cartesian components (eV/A)                *
 * -------------------------------------------------------- *
 *                         x            y            z      *
 *                                                          *
 * P               1      0.01258      0.00218     -0.04085 *
 * P               2     -0.01085     -0.02202     -0.05676 *
 * P               3     -0.01171      0.01853      0.01621 *
 * P               4     -0.00941     -0.03108     -0.02402 *
 * P               5     -0.04519      0.00270      0.05792 *
 * P               6     -0.00555     -0.00724      0.02208 *
 * P               7     -0.02085     -0.01424     -0.02406 *
 * P               8     -0.03671      0.12109     -0.03321 *
 * P               9     -0.01881      0.00018      0.00653 *
 * P              10     -0.00325     -0.01119      0.00772 *
 * P              11     -0.02196     -0.00008      0.04738 *
 * P              12     -0.05771     -0.07717      0.02791 *
 * P              13     -0.03040     -0.00139     -0.00559 *
 * P              14     -0.01032      0.01587     -0.00687 *
 * P              15      0.01148      0.01573     -0.01777 *
 * P              16      0.02146     -0.03455      0.04992 *
 * P              17      0.02339      0.01179      0.00437 *
 * P              18     -0.02203     -0.01706      0.00599 *
 * P              19     -0.05080     -0.05003      0.04642 *
 * P              20      0.00759     -0.00741      0.00033 *
 * P              21      0.09068     -0.02726     -0.00296 *
 * P              22      0.03471     -0.00204     -0.02113 *
 * P              23      0.01164     -0.00269     -0.01175 *
 * P              24      0.01296      0.00164     -0.00434 *
 * P              25      0.00872      0.00921     -0.01039 *
 * P              26     -0.01590      0.00985      0.02150 *
 * P              27     -0.01384      0.04724      0.05395 *
 * P              28     -0.00118     -0.00436     -0.00344 *
 * P              29      0.00939      0.03128      0.00706 *
 * P              30     -0.00684     -0.00874     -0.00417 *
 * P              31     -0.01110     -0.00873     -0.01124 *
 * P              32     -0.01707     -0.01921      0.00892 *
 * P              33     -0.18770     -0.17216     -0.03970 *
 * In              1      0.01106     -0.00819      0.01485 *
 * In              2      0.07895     -0.02682     -0.04123 *
 * In              3     -0.03879      0.00014     -0.01713 *
 * In              4      0.19838     -0.00863     -0.02237 *
 * In              5     -0.01627      0.03030      0.00490 *
 * In              6      0.04098      0.02116      0.00855 *
 * In              7      0.01218     -0.02012      0.01350 *
 * In              8     -0.01151      0.02756      0.09467 *
 * In              9     -0.00831     -0.00628     -0.01990 *
 * In             10     -0.01538      0.05267     -0.00287 *
 * In             11      0.02791      0.01998     -0.01851 *
 * In             12      0.00253      0.01590      0.02008 *
 * In             13     -0.00613      0.02550     -0.00843 *
 * In             14      0.10403     -0.00584      0.01052 *
 * In             15     -0.02232     -0.01912      0.00971 *
 * In             16      0.09132      0.01287     -0.03037 *
 * In             17     -0.02687      0.10813     -0.08316 *
 * In             18      0.03620      0.00134     -0.00045 *
 * In             19      0.06559      0.06978     -0.02426 *
 * In             20     -0.03813      0.01947     -0.01419 *
 * In             21     -0.00157     -0.03358      0.06518 *
 * In             22      0.00020      0.06604      0.00811 *
 * In             23     -0.03795     -0.01427      0.03967 *
 * In             24     -0.01993     -0.01136      0.00192 *
 * In             25      0.01289     -0.03241     -0.03157 *
 * In             26     -0.01369     -0.01579     -0.04151 *
 * In             27     -0.04023     -0.03886      0.01040 *
 * In             28      0.00706     -0.02143     -0.04870 *
 * In             29     -0.02799      0.00055      0.01451 *
 * In             30      0.01865      0.02272      0.01296 *
 * In             31     -0.04142      0.00579      0.00914 *
 * In             32      0.02317     -0.00584      0.00002 *
 *                                                          *
 ************************************************************

 Pseudo atomic calculation performed for P 3s2 3p3

 Converged in 23 iterations to a total energy of -208.0292 eV

 Pseudo atomic calculation performed for In 4d10 5s2 5p1

 Converged in 42 iterations to a total energy of -1747.4501 eV
Charge spilling parameter for spin component 1 = 0.17%
Charge spilling parameter for spin component 2 = 0.18%

                   Orbital Populations                  
  ---------------------------------------------------------------
     Ion    Atom   Orbital              Up        Down      Spin
  ---------------------------------------------------------------
      P     1      S                    0.868     0.866     0.003
      P     1      Px                   0.666     0.656     0.010
      P     1      Py                   0.648     0.645     0.003
      P     1      Pz                   0.663     0.657     0.006
      P     2      S                    0.885     0.858     0.027
      P     2      Px                   0.790     0.432     0.359
      P     2      Py                   0.793     0.504     0.289
      P     2      Pz                   0.579     0.558     0.021
      P     3      S                    0.868     0.868    -0.000
      P     3      Px                   0.659     0.658     0.000
      P     3      Py                   0.659     0.658     0.001
      P     3      Pz                   0.650     0.651    -0.000
      P     4      S                    0.868     0.864     0.003
      P     4      Px                   0.648     0.645     0.003
      P     4      Py                   0.667     0.656     0.011
      P     4      Pz                   0.663     0.656     0.007
      P     5      S                    0.868     0.864     0.003
      P     5      Px                   0.665     0.653     0.012
      P     5      Py                   0.651     0.647     0.005
      P     5      Pz                   0.662     0.649     0.013
      P     6      S                    0.867     0.867    -0.000
      P     6      Px                   0.657     0.657     0.000
      P     6      Py                   0.658     0.658     0.000
      P     6      Pz                   0.655     0.656    -0.000
      P     7      S                    0.867     0.867    -0.000
      P     7      Px                   0.656     0.656    -0.000
      P     7      Py                   0.658     0.658     0.000
      P     7      Pz                   0.656     0.656    -0.000
      P     8      S                    0.866     0.867    -0.000
      P     8      Px                   0.649     0.650    -0.001
      P     8      Py                   0.661     0.660     0.001
      P     8      Pz                   0.662     0.661     0.001
      P     9      S                    0.867     0.867     0.000
      P     9      Px                   0.658     0.657     0.000
      P     9      Py                   0.659     0.658     0.000
      P     9      Pz                   0.654     0.654    -0.000
      P    10      S                    0.867     0.867    -0.000
      P    10      Px                   0.658     0.658    -0.000
      P    10      Py                   0.656     0.656    -0.000
      P    10      Pz                   0.658     0.658    -0.000
      P    11      S                    0.871     0.871     0.000
      P    11      Px                   0.653     0.653    -0.000
      P    11      Py                   0.652     0.653    -0.000
      P    11      Pz                   0.641     0.641    -0.000
      P    12      S                    0.867     0.867     0.000
      P    12      Px                   0.643     0.644    -0.001
      P    12      Py                   0.661     0.662    -0.000
      P    12      Pz                   0.658     0.657     0.000
      P    13      S                    0.867     0.867    -0.000
      P    13      Px                   0.658     0.658     0.000
      P    13      Py                   0.655     0.655    -0.000
      P    13      Pz                   0.657     0.657    -0.000
      P    14      S                    0.863     0.862     0.001
      P    14      Px                   0.651     0.649     0.002
      P    14      Py                   0.667     0.662     0.005
      P    14      Pz                   0.666     0.661     0.004
      P    15      S                    0.866     0.867    -0.000
      P    15      Px                   0.656     0.656    -0.000
      P    15      Py                   0.655     0.655     0.000
      P    15      Pz                   0.658     0.659    -0.000
      P    16      S                    0.868     0.865     0.004
      P    16      Px                   0.653     0.645     0.007
      P    16      Py                   0.667     0.648     0.018
      P    16      Pz                   0.661     0.649     0.013
      P    17      S                    0.868     0.865     0.003
      P    17      Px                   0.662     0.658     0.004
      P    17      Py                   0.646     0.646     0.001
      P    17      Pz                   0.661     0.656     0.005
      P    18      S                    0.867     0.867    -0.000
      P    18      Px                   0.656     0.656    -0.000
      P    18      Py                   0.658     0.658    -0.000
      P    18      Pz                   0.658     0.658    -0.000
      P    19      S                    0.868     0.868    -0.000
      P    19      Px                   0.661     0.661    -0.000
      P    19      Py                   0.662     0.662    -0.000
      P    19      Pz                   0.646     0.646    -0.000
      P    20      S                    0.867     0.867     0.000
      P    20      Px                   0.658     0.657     0.000
      P    20      Py                   0.658     0.657     0.001
      P    20      Pz                   0.656     0.656     0.000
      P    21      S                    0.868     0.867     0.001
      P    21      Px                   0.662     0.656     0.006
      P    21      Py                   0.652     0.651     0.001
      P    21      Pz                   0.662     0.659     0.003
      P    22      S                    0.863     0.862     0.001
      P    22      Px                   0.667     0.661     0.006
      P    22      Py                   0.652     0.650     0.002
      P    22      Pz                   0.666     0.660     0.006
      P    23      S                    0.866     0.866    -0.000
      P    23      Px                   0.656     0.656     0.000
      P    23      Py                   0.656     0.656     0.000
      P    23      Pz                   0.658     0.659    -0.000
      P    24      S                    0.867     0.867    -0.000
      P    24      Px                   0.658     0.658    -0.000
      P    24      Py                   0.658     0.658     0.000
      P    24      Pz                   0.655     0.655    -0.000
      P    25      S                    0.867     0.867    -0.000
      P    25      Px                   0.658     0.657     0.000
      P    25      Py                   0.657     0.657     0.000
      P    25      Pz                   0.656     0.656     0.000
      P    26      S                    0.865     0.865    -0.000
      P    26      Px                   0.659     0.659    -0.000
      P    26      Py                   0.658     0.659    -0.000
      P    26      Pz                   0.657     0.657     0.000
      P    27      S                    0.868     0.869    -0.000
      P    27      Px                   0.657     0.658    -0.001
      P    27      Py                   0.657     0.657    -0.001
      P    27      Pz                   0.650     0.651    -0.001
      P    28      S                    0.867     0.867    -0.000
      P    28      Px                   0.658     0.658    -0.000
      P    28      Py                   0.657     0.657     0.000
      P    28      Pz                   0.655     0.655    -0.000
      P    29      S                    0.866     0.867    -0.000
      P    29      Px                   0.658     0.658     0.000
      P    29      Py                   0.658     0.658    -0.000
      P    29      Pz                   0.655     0.655     0.000
      P    30      S                    0.868     0.868    -0.000
      P    30      Px                   0.657     0.657    -0.000
      P    30      Py                   0.657     0.657    -0.000
      P    30      Pz                   0.656     0.656    -0.000
      P    31      S                    0.867     0.867    -0.000
      P    31      Px                   0.658     0.658    -0.000
      P    31      Py                   0.655     0.656    -0.000
      P    31      Pz                   0.656     0.656    -0.000
      P    32      S                    0.867     0.867    -0.000
      P    32      Px                   0.655     0.655    -0.000
      P    32      Py                   0.658     0.658     0.000
      P    32      Pz                   0.657     0.657     0.000
      P    33      S                    0.879     0.878     0.001
      P    33      Px                   0.698     0.626     0.072
      P    33      Py                   0.703     0.688     0.015
      P    33      Pz                   0.514     0.527    -0.013
     In     1      Dzz                  1.000     1.000     0.000
     In     1      Dzy                  0.998     0.998     0.000
     In     1      Dzx                  0.999     0.999     0.000
     In     1      Dxx-yy               1.000     1.000     0.000
     In     1      Dxy                  0.999     0.999     0.000
     In     1      S                    0.706     0.707    -0.001
     In     1      Px                   0.233     0.233    -0.000
     In     1      Py                   0.238     0.238    -0.000
     In     1      Pz                   0.241     0.242    -0.001
     In     1      S                   -0.260    -0.254    -0.006
     In     2      Dzz                  0.999     0.999     0.000
     In     2      Dzy                  0.999     0.999     0.000
     In     2      Dzx                  0.999     0.998     0.000
     In     2      Dxx-yy               1.000     0.999     0.000
     In     2      Dxy                  0.998     0.998     0.000
     In     2      S                    0.685     0.690    -0.006
     In     2      Px                   0.234     0.245    -0.011
     In     2      Py                   0.239     0.248    -0.008
     In     2      Pz                   0.219     0.221    -0.002
     In     2      S                   -0.256    -0.258     0.002
     In     3      Dzz                  1.000     1.000     0.000
     In     3      Dzy                  0.998     0.998     0.000
     In     3      Dzx                  0.998     0.998     0.000
     In     3      Dxx-yy               1.000     1.000     0.000
     In     3      Dxy                  0.999     0.999     0.000
     In     3      S                    0.711     0.711     0.000
     In     3      Px                   0.239     0.239    -0.000
     In     3      Py                   0.240     0.240    -0.000
     In     3      Pz                   0.242     0.241     0.000
     In     3      S                   -0.266    -0.272     0.006
     In     4      Dzz                  0.999     0.999     0.000
     In     4      Dzy                  0.998     0.998     0.000
     In     4      Dzx                  0.998     0.999    -0.000
     In     4      Dxx-yy               0.999     0.999     0.000
     In     4      Dxy                  0.998     0.998     0.000
     In     4      S                    0.718     0.703     0.016
     In     4      Px                   0.250     0.249     0.001
     In     4      Py                   0.256     0.242     0.014
     In     4      Pz                   0.235     0.229     0.005
     In     4      S                   -0.270    -0.266    -0.004
     In     5      Dzz                  1.000     1.000    -0.000
     In     5      Dzy                  0.998     0.998     0.000
     In     5      Dzx                  0.998     0.998    -0.000
     In     5      Dxx-yy               1.000     1.000     0.000
     In     5      Dxy                  0.998     0.998     0.000
     In     5      S                    0.711     0.708     0.004
     In     5      Px                   0.239     0.238     0.001
     In     5      Py                   0.250     0.246     0.004
     In     5      Pz                   0.241     0.239     0.001
     In     5      S                   -0.268    -0.266    -0.002
     In     6      Dzz                  1.000     1.000     0.000
     In     6      Dzy                  0.999     0.999     0.000
     In     6      Dzx                  0.999     0.999     0.000
     In     6      Dxx-yy               1.000     1.000     0.000
     In     6      Dxy                  0.998     0.998     0.000
     In     6      S                    0.707     0.708    -0.001
     In     6      Px                   0.241     0.242    -0.000
     In     6      Py                   0.242     0.242    -0.001
     In     6      Pz                   0.232     0.232    -0.001
     In     6      S                   -0.260    -0.259    -0.001
     In     7      Dzz                  0.999     0.999     0.000
     In     7      Dzy                  0.998     0.998     0.000
     In     7      Dzx                  0.998     0.998    -0.000
     In     7      Dxx-yy               0.999     0.999     0.000
     In     7      Dxy                  0.998     0.998     0.000
     In     7      S                    0.712     0.712     0.001
     In     7      Px                   0.242     0.241     0.001
     In     7      Py                   0.252     0.248     0.004
     In     7      Pz                   0.239     0.239    -0.000
     In     7      S                   -0.271    -0.271    -0.000
     In     8      Dzz                  1.000     1.000     0.000
     In     8      Dzy                  0.999     0.999     0.000
     In     8      Dzx                  0.999     0.999     0.000
     In     8      Dxx-yy               1.000     1.000     0.000
     In     8      Dxy                  0.998     0.998     0.000
     In     8      S                    0.709     0.710    -0.001
     In     8      Px                   0.241     0.242    -0.001
     In     8      Py                   0.239     0.240    -0.001
     In     8      Pz                   0.232     0.234    -0.002
     In     8      S                   -0.264    -0.265     0.001
     In     9      Dzz                  1.000     1.000     0.000
     In     9      Dzy                  0.998     0.998     0.000
     In     9      Dzx                  0.998     0.998     0.000
     In     9      Dxx-yy               1.000     1.000     0.000
     In     9      Dxy                  0.998     0.998     0.000
     In     9      S                    0.707     0.707     0.000
     In     9      Px                   0.240     0.240    -0.000
     In     9      Py                   0.240     0.240    -0.000
     In     9      Pz                   0.241     0.241    -0.000
     In     9      S                   -0.264    -0.265     0.001
     In    10      Dzz                  1.000     1.000     0.000
     In    10      Dzy                  0.998     0.998     0.000
     In    10      Dzx                  0.998     0.998    -0.000
     In    10      Dxx-yy               1.000     1.000     0.000
     In    10      Dxy                  0.999     0.999     0.000
     In    10      S                    0.711     0.711     0.000
     In    10      Px                   0.240     0.240     0.000
     In    10      Py                   0.238     0.238    -0.000
     In    10      Pz                   0.241     0.241     0.001
     In    10      S                   -0.267    -0.271     0.004
     In    11      Dzz                  1.000     1.000    -0.000
     In    11      Dzy                  0.998     0.998     0.000
     In    11      Dzx                  0.998     0.998    -0.000
     In    11      Dxx-yy               1.000     1.000    -0.000
     In    11      Dxy                  0.998     0.998    -0.000
     In    11      S                    0.717     0.717    -0.000
     In    11      Px                   0.242     0.242     0.000
     In    11      Py                   0.242     0.242    -0.000
     In    11      Pz                   0.248     0.248     0.000
     In    11      S                   -0.263    -0.262    -0.001
     In    12      Dzz                  1.000     1.000     0.000
     In    12      Dzy                  0.999     0.999     0.000
     In    12      Dzx                  0.998     0.998     0.000
     In    12      Dxx-yy               1.000     1.000     0.000
     In    12      Dxy                  0.999     0.999     0.000
     In    12      S                    0.707     0.707    -0.001
     In    12      Px                   0.238     0.238    -0.000
     In    12      Py                   0.233     0.233    -0.000
     In    12      Pz                   0.242     0.242    -0.001
     In    12      S                   -0.257    -0.256    -0.001
     In    13      Dzz                  1.000     1.000     0.000
     In    13      Dzy                  0.998     0.998     0.000
     In    13      Dzx                  0.998     0.998     0.000
     In    13      Dxx-yy               1.000     1.000    -0.000
     In    13      Dxy                  0.998     0.998     0.000
     In    13      S                    0.706     0.706    -0.000
     In    13      Px                   0.242     0.242     0.000
     In    13      Py                   0.240     0.241    -0.000
     In    13      Pz                   0.243     0.243     0.000
     In    13      S                   -0.265    -0.266     0.001
     In    14      Dzz                  1.000     1.000     0.000
     In    14      Dzy                  0.998     0.998     0.000
     In    14      Dzx                  0.998     0.998     0.000
     In    14      Dxx-yy               1.000     1.000     0.000
     In    14      Dxy                  0.998     0.998     0.000
     In    14      S                    0.708     0.708    -0.000
     In    14      Px                   0.248     0.248     0.000
     In    14      Py                   0.239     0.239    -0.000
     In    14      Pz                   0.240     0.240    -0.000
     In    14      S                   -0.264    -0.266     0.002
     In    15      Dzz                  1.000     1.000     0.000
     In    15      Dzy                  0.998     0.998     0.000
     In    15      Dzx                  0.998     0.998     0.000
     In    15      Dxx-yy               1.000     1.000     0.000
     In    15      Dxy                  0.999     0.999    -0.000
     In    15      S                    0.706     0.706    -0.000
     In    15      Px                   0.241     0.241    -0.000
     In    15      Py                   0.241     0.241    -0.000
     In    15      Pz                   0.242     0.242    -0.000
     In    15      S                   -0.265    -0.266     0.000
     In    16      Dzz                  0.999     0.999     0.000
     In    16      Dzy                  0.998     0.998     0.000
     In    16      Dzx                  0.998     0.998     0.000
     In    16      Dxx-yy               1.000     1.000    -0.000
     In    16      Dxy                  0.998     0.998     0.000
     In    16      S                    0.712     0.710     0.002
     In    16      Px                   0.251     0.250     0.001
     In    16      Py                   0.239     0.238     0.001
     In    16      Pz                   0.241     0.240     0.001
     In    16      S                   -0.270    -0.267    -0.003
     In    17      Dzz                  0.999     0.999     0.000
     In    17      Dzy                  0.999     0.999    -0.000
     In    17      Dzx                  0.998     0.998     0.000
     In    17      Dxx-yy               0.999     0.999     0.000
     In    17      Dxy                  0.998     0.998     0.000
     In    17      S                    0.712     0.693     0.019
     In    17      Px                   0.257     0.239     0.018
     In    17      Py                   0.251     0.244     0.007
     In    17      Pz                   0.225     0.231    -0.007
     In    17      S                   -0.264    -0.261    -0.003
     In    18      Dzz                  1.000     1.000     0.000
     In    18      Dzy                  0.999     0.999     0.000
     In    18      Dzx                  0.999     0.999     0.000
     In    18      Dxx-yy               1.000     1.000     0.000
     In    18      Dxy                  0.999     0.999     0.000
     In    18      S                    0.710     0.709     0.001
     In    18      Px                   0.237     0.238    -0.001
     In    18      Py                   0.240     0.240    -0.000
     In    18      Pz                   0.240     0.240    -0.000
     In    18      S                   -0.263    -0.265     0.002
     In    19      Dzz                  0.999     0.999     0.000
     In    19      Dzy                  0.998     0.998     0.000
     In    19      Dzx                  0.998     0.998     0.000
     In    19      Dxx-yy               0.999     0.999     0.000
     In    19      Dxy                  0.998     0.998     0.000
     In    19      S                    0.712     0.720    -0.008
     In    19      Px                   0.243     0.254    -0.011
     In    19      Py                   0.240     0.252    -0.013
     In    19      Pz                   0.242     0.246    -0.004
     In    19      S                   -0.268    -0.274     0.005
     In    20      Dzz                  1.000     1.000     0.000
     In    20      Dzy                  0.998     0.998     0.000
     In    20      Dzx                  0.998     0.998     0.000
     In    20      Dxx-yy               1.000     1.000    -0.000
     In    20      Dxy                  0.998     0.998     0.000
     In    20      S                    0.714     0.714    -0.001
     In    20      Px                   0.240     0.240     0.000
     In    20      Py                   0.240     0.240    -0.000
     In    20      Pz                   0.240     0.240    -0.000
     In    20      S                   -0.265    -0.265     0.000
     In    21      Dzz                  1.000     1.000     0.000
     In    21      Dzy                  0.999     0.999     0.000
     In    21      Dzx                  0.999     0.999     0.000
     In    21      Dxx-yy               1.000     1.000     0.000
     In    21      Dxy                  0.998     0.998     0.000
     In    21      S                    0.708     0.707     0.001
     In    21      Px                   0.239     0.240    -0.001
     In    21      Py                   0.242     0.242    -0.000
     In    21      Pz                   0.230     0.232    -0.002
     In    21      S                   -0.253    -0.266     0.012
     In    22      Dzz                  1.000     1.000     0.000
     In    22      Dzy                  0.998     0.998     0.000
     In    22      Dzx                  0.998     0.998     0.000
     In    22      Dxx-yy               1.000     1.000     0.000
     In    22      Dxy                  0.998     0.998     0.000
     In    22      S                    0.709     0.708     0.000
     In    22      Px                   0.239     0.239    -0.000
     In    22      Py                   0.247     0.245     0.002
     In    22      Pz                   0.240     0.240     0.000
     In    22      S                   -0.266    -0.265    -0.001
     In    23      Dzz                  1.000     1.000    -0.000
     In    23      Dzy                  0.998     0.998     0.000
     In    23      Dzx                  0.998     0.998    -0.000
     In    23      Dxx-yy               1.000     1.000     0.000
     In    23      Dxy                  0.998     0.998     0.000
     In    23      S                    0.710     0.710    -0.000
     In    23      Px                   0.240     0.240    -0.000
     In    23      Py                   0.240     0.240    -0.000
     In    23      Pz                   0.237     0.237    -0.000
     In    23      S                   -0.275    -0.273    -0.002
     In    24      Dzz                  0.999     0.999     0.000
     In    24      Dzy                  0.998     0.998     0.000
     In    24      Dzx                  0.998     0.998    -0.000
     In    24      Dxx-yy               1.000     1.000    -0.000
     In    24      Dxy                  0.998     0.998     0.000
     In    24      S                    0.714     0.708     0.005
     In    24      Px                   0.239     0.237     0.003
     In    24      Py                   0.252     0.248     0.005
     In    24      Pz                   0.242     0.240     0.002
     In    24      S                   -0.268    -0.263    -0.005
     In    25      Dzz                  1.000     1.000     0.000
     In    25      Dzy                  0.998     0.998    -0.000
     In    25      Dzx                  0.998     0.998    -0.000
     In    25      Dxx-yy               1.000     1.000     0.000
     In    25      Dxy                  0.998     0.998    -0.000
     In    25      S                    0.714     0.713     0.000
     In    25      Px                   0.241     0.241     0.000
     In    25      Py                   0.240     0.239     0.000
     In    25      Pz                   0.240     0.241    -0.000
     In    25      S                   -0.266    -0.266    -0.001
     In    26      Dzz                  1.000     1.000     0.000
     In    26      Dzy                  0.998     0.998    -0.000
     In    26      Dzx                  0.998     0.998     0.000
     In    26      Dxx-yy               1.000     1.000     0.000
     In    26      Dxy                  0.998     0.998    -0.000
     In    26      S                    0.705     0.706    -0.000
     In    26      Px                   0.240     0.240    -0.000
     In    26      Py                   0.240     0.240    -0.000
     In    26      Pz                   0.246     0.246    -0.000
     In    26      S                   -0.261    -0.260    -0.001
     In    27      Dzz                  1.000     1.000    -0.000
     In    27      Dzy                  0.998     0.998    -0.000
     In    27      Dzx                  0.998     0.998     0.000
     In    27      Dxx-yy               1.000     1.000    -0.000
     In    27      Dxy                  0.999     0.999     0.000
     In    27      S                    0.710     0.709     0.001
     In    27      Px                   0.240     0.240    -0.000
     In    27      Py                   0.237     0.237    -0.001
     In    27      Pz                   0.242     0.242    -0.000
     In    27      S                   -0.263    -0.269     0.006
     In    28      Dzz                  1.000     1.000     0.000
     In    28      Dzy                  0.998     0.998    -0.000
     In    28      Dzx                  0.998     0.998     0.000
     In    28      Dxx-yy               1.000     1.000    -0.000
     In    28      Dxy                  0.998     0.998    -0.000
     In    28      S                    0.710     0.708     0.001
     In    28      Px                   0.241     0.241     0.000
     In    28      Py                   0.241     0.241     0.000
     In    28      Pz                   0.241     0.241    -0.000
     In    28      S                   -0.265    -0.265    -0.000
     In    29      Dzz                  1.000     1.000    -0.000
     In    29      Dzy                  0.998     0.998    -0.000
     In    29      Dzx                  0.998     0.998     0.000
     In    29      Dxx-yy               1.000     1.000     0.000
     In    29      Dxy                  0.998     0.998     0.000
     In    29      S                    0.712     0.708     0.005
     In    29      Px                   0.252     0.247     0.005
     In    29      Py                   0.238     0.237     0.001
     In    29      Pz                   0.242     0.240     0.002
     In    29      S                   -0.266    -0.264    -0.003
     In    30      Dzz                  1.000     1.000     0.000
     In    30      Dzy                  0.998     0.998     0.000
     In    30      Dzx                  0.998     0.998     0.000
     In    30      Dxx-yy               1.000     1.000     0.000
     In    30      Dxy                  0.998     0.998    -0.000
     In    30      S                    0.707     0.707    -0.000
     In    30      Px                   0.241     0.241    -0.000
     In    30      Py                   0.241     0.241    -0.000
     In    30      Pz                   0.243     0.243    -0.000
     In    30      S                   -0.265    -0.265     0.000
     In    31      Dzz                  0.999     0.999    -0.000
     In    31      Dzy                  0.998     0.998     0.000
     In    31      Dzx                  0.998     0.998     0.000
     In    31      Dxx-yy               0.999     0.999     0.000
     In    31      Dxy                  0.998     0.998     0.000
     In    31      S                    0.713     0.713     0.000
     In    31      Px                   0.253     0.249     0.004
     In    31      Py                   0.241     0.241    -0.000
     In    31      Pz                   0.239     0.239     0.000
     In    31      S                   -0.273    -0.271    -0.002
     In    32      Dzz                  1.000     1.000     0.000
     In    32      Dzy                  0.998     0.998     0.000
     In    32      Dzx                  0.998     0.998     0.000
     In    32      Dxx-yy               1.000     1.000    -0.000
     In    32      Dxy                  0.998     0.998    -0.000
     In    32      S                    0.705     0.705    -0.000
     In    32      Px                   0.240     0.240    -0.000
     In    32      Py                   0.242     0.242    -0.000
     In    32      Pz                   0.243     0.243     0.000
     In    32      S                   -0.266    -0.264    -0.002
  ---------------------------------------------------------------
                           Total:     290.998   290.001     0.997
  ---------------------------------------------------------------

     Atomic Populations (Mulliken)
     -----------------------------
Species          Ion Spin      s       p       d       f      Total   Charge(e)   Spin(hbar/2)
==============================================================================================
  P               1   up:     0.868   1.978   0.000   0.000   2.846    -0.670        0.022
                  1   dn:     0.866   1.958   0.000   0.000   2.824
  P               2   up:     0.885   2.162   0.000   0.000   3.047    -0.399        0.695
                  2   dn:     0.858   1.494   0.000   0.000   2.352
  P               3   up:     0.868   1.968   0.000   0.000   2.836    -0.672        0.001
                  3   dn:     0.868   1.967   0.000   0.000   2.835
  P               4   up:     0.868   1.978   0.000   0.000   2.846    -0.667        0.025
                  4   dn:     0.864   1.957   0.000   0.000   2.821
  P               5   up:     0.868   1.978   0.000   0.000   2.846    -0.659        0.033
                  5   dn:     0.864   1.949   0.000   0.000   2.813
  P               6   up:     0.867   1.971   0.000   0.000   2.838    -0.676       -0.000
                  6   dn:     0.867   1.971   0.000   0.000   2.838
  P               7   up:     0.867   1.970   0.000   0.000   2.837    -0.673       -0.000
                  7   dn:     0.867   1.970   0.000   0.000   2.837
  P               8   up:     0.866   1.972   0.000   0.000   2.839    -0.676        0.001
                  8   dn:     0.867   1.971   0.000   0.000   2.838
  P               9   up:     0.867   1.971   0.000   0.000   2.837    -0.674        0.000
                  9   dn:     0.867   1.970   0.000   0.000   2.837
  P              10   up:     0.867   1.972   0.000   0.000   2.839    -0.678       -0.000
                 10   dn:     0.867   1.972   0.000   0.000   2.839
  P              11   up:     0.871   1.946   0.000   0.000   2.817    -0.634       -0.000
                 11   dn:     0.871   1.946   0.000   0.000   2.817
  P              12   up:     0.867   1.963   0.000   0.000   2.830    -0.660       -0.001
                 12   dn:     0.867   1.964   0.000   0.000   2.831
  P              13   up:     0.867   1.970   0.000   0.000   2.837    -0.674       -0.000
                 13   dn:     0.867   1.970   0.000   0.000   2.837
  P              14   up:     0.863   1.984   0.000   0.000   2.846    -0.681        0.012
                 14   dn:     0.862   1.973   0.000   0.000   2.835
  P              15   up:     0.866   1.970   0.000   0.000   2.837    -0.674       -0.000
                 15   dn:     0.867   1.971   0.000   0.000   2.837
  P              16   up:     0.868   1.981   0.000   0.000   2.849    -0.656        0.042
                 16   dn:     0.865   1.942   0.000   0.000   2.807
  P              17   up:     0.868   1.969   0.000   0.000   2.837    -0.661        0.012
                 17   dn:     0.865   1.960   0.000   0.000   2.825
  P              18   up:     0.867   1.972   0.000   0.000   2.839    -0.678       -0.000
                 18   dn:     0.867   1.972   0.000   0.000   2.839
  P              19   up:     0.868   1.969   0.000   0.000   2.837    -0.674       -0.000
                 19   dn:     0.868   1.969   0.000   0.000   2.837
  P              20   up:     0.867   1.971   0.000   0.000   2.838    -0.674        0.001
                 20   dn:     0.867   1.970   0.000   0.000   2.837
  P              21   up:     0.868   1.976   0.000   0.000   2.843    -0.676        0.011
                 21   dn:     0.867   1.966   0.000   0.000   2.832
  P              22   up:     0.863   1.985   0.000   0.000   2.848    -0.681        0.015
                 22   dn:     0.862   1.971   0.000   0.000   2.833
  P              23   up:     0.866   1.971   0.000   0.000   2.838    -0.675        0.000
                 23   dn:     0.866   1.971   0.000   0.000   2.837
  P              24   up:     0.867   1.971   0.000   0.000   2.837    -0.675       -0.000
                 24   dn:     0.867   1.971   0.000   0.000   2.837
  P              25   up:     0.867   1.971   0.000   0.000   2.837    -0.674        0.001
                 25   dn:     0.867   1.970   0.000   0.000   2.837
  P              26   up:     0.865   1.974   0.000   0.000   2.839    -0.678       -0.000
                 26   dn:     0.865   1.974   0.000   0.000   2.839
  P              27   up:     0.868   1.963   0.000   0.000   2.832    -0.667       -0.003
                 27   dn:     0.869   1.966   0.000   0.000   2.835
  P              28   up:     0.867   1.970   0.000   0.000   2.837    -0.674        0.000
                 28   dn:     0.867   1.970   0.000   0.000   2.837
  P              29   up:     0.866   1.971   0.000   0.000   2.837    -0.675        0.000
                 29   dn:     0.867   1.971   0.000   0.000   2.837
  P              30   up:     0.868   1.969   0.000   0.000   2.837    -0.674       -0.000
                 30   dn:     0.868   1.970   0.000   0.000   2.837
  P              31   up:     0.867   1.969   0.000   0.000   2.836    -0.673       -0.001
                 31   dn:     0.867   1.970   0.000   0.000   2.837
  P              32   up:     0.867   1.970   0.000   0.000   2.837    -0.674        0.000
                 32   dn:     0.867   1.970   0.000   0.000   2.837
  P              33   up:     0.879   1.916   0.000   0.000   2.795    -0.515        0.075
                 33   dn:     0.878   1.842   0.000   0.000   2.720
  In              1   up:     0.447   0.712   4.995   0.000   6.154     0.684       -0.008
                  1   dn:     0.453   0.714   4.995   0.000   6.162
  In              2   up:     0.429   0.693   4.994   0.000   6.116     0.744       -0.024
                  2   dn:     0.433   0.714   4.994   0.000   6.140
  In              3   up:     0.445   0.720   4.995   0.000   6.159     0.687        0.006
                  3   dn:     0.439   0.720   4.995   0.000   6.154
  In              4   up:     0.449   0.740   4.993   0.000   6.183     0.667        0.033
                  4   dn:     0.437   0.720   4.993   0.000   6.150
  In              5   up:     0.443   0.730   4.994   0.000   6.167     0.674        0.007
                  5   dn:     0.442   0.724   4.994   0.000   6.159
  In              6   up:     0.447   0.715   4.995   0.000   6.156     0.685       -0.003
                  6   dn:     0.448   0.716   4.995   0.000   6.159
  In              7   up:     0.442   0.733   4.994   0.000   6.169     0.668        0.005
                  7   dn:     0.441   0.728   4.994   0.000   6.164
  In              8   up:     0.445   0.712   4.995   0.000   6.152     0.692       -0.003
                  8   dn:     0.445   0.716   4.995   0.000   6.155
  In              9   up:     0.443   0.722   4.995   0.000   6.159     0.682        0.001
                  9   dn:     0.442   0.722   4.995   0.000   6.159
  In             10   up:     0.445   0.719   4.995   0.000   6.159     0.687        0.005
                 10   dn:     0.440   0.719   4.995   0.000   6.154
  In             11   up:     0.454   0.733   4.994   0.000   6.181     0.638       -0.001
                 11   dn:     0.455   0.733   4.994   0.000   6.182
  In             12   up:     0.449   0.713   4.995   0.000   6.157     0.683       -0.003
                 12   dn:     0.451   0.714   4.995   0.000   6.160
  In             13   up:     0.441   0.725   4.994   0.000   6.161     0.680        0.001
                 13   dn:     0.440   0.725   4.994   0.000   6.160
  In             14   up:     0.444   0.726   4.994   0.000   6.165     0.672        0.001
                 14   dn:     0.442   0.727   4.994   0.000   6.163
  In             15   up:     0.440   0.724   4.995   0.000   6.159     0.683        0.000
                 15   dn:     0.440   0.724   4.995   0.000   6.159
  In             16   up:     0.442   0.731   4.994   0.000   6.168     0.667        0.003
                 16   dn:     0.443   0.728   4.994   0.000   6.165
  In             17   up:     0.448   0.732   4.994   0.000   6.174     0.687        0.035
                 17   dn:     0.431   0.714   4.993   0.000   6.139
  In             18   up:     0.446   0.717   4.995   0.000   6.158     0.685        0.001
                 18   dn:     0.444   0.718   4.995   0.000   6.157
  In             19   up:     0.444   0.725   4.993   0.000   6.162     0.646       -0.030
                 19   dn:     0.446   0.753   4.992   0.000   6.192
  In             20   up:     0.448   0.720   4.995   0.000   6.163     0.673       -0.001
                 20   dn:     0.449   0.720   4.995   0.000   6.164
  In             21   up:     0.454   0.711   4.995   0.000   6.160     0.689        0.010
                 21   dn:     0.442   0.714   4.995   0.000   6.151
  In             22   up:     0.443   0.726   4.994   0.000   6.163     0.675        0.001
                 22   dn:     0.443   0.725   4.994   0.000   6.162
  In             23   up:     0.435   0.716   4.995   0.000   6.146     0.705       -0.003
                 23   dn:     0.438   0.717   4.995   0.000   6.149
  In             24   up:     0.446   0.734   4.994   0.000   6.174     0.662        0.010
                 24   dn:     0.446   0.724   4.994   0.000   6.164
  In             25   up:     0.447   0.721   4.995   0.000   6.163     0.674       -0.001
                 25   dn:     0.448   0.721   4.995   0.000   6.163
  In             26   up:     0.444   0.725   4.994   0.000   6.163     0.671       -0.002
                 26   dn:     0.446   0.725   4.994   0.000   6.165
  In             27   up:     0.446   0.719   4.995   0.000   6.160     0.686        0.006
                 27   dn:     0.440   0.719   4.995   0.000   6.154
  In             28   up:     0.444   0.723   4.995   0.000   6.162     0.678        0.002
                 28   dn:     0.443   0.723   4.995   0.000   6.160
  In             29   up:     0.446   0.731   4.994   0.000   6.171     0.667        0.009
                 29   dn:     0.444   0.723   4.994   0.000   6.162
  In             30   up:     0.442   0.724   4.995   0.000   6.160     0.679       -0.000
                 30   dn:     0.442   0.724   4.995   0.000   6.161
  In             31   up:     0.440   0.733   4.994   0.000   6.167     0.668        0.002
                 31   dn:     0.442   0.729   4.994   0.000   6.165
  In             32   up:     0.439   0.725   4.995   0.000   6.158     0.681       -0.002
                 32   dn:     0.441   0.725   4.995   0.000   6.161
==============================================================================================

                 Bond                   Population        Spin       Length (A)
================================================================================
              P 2  -- P 33                   0.52        -0.09          2.09042
              P 2  -- In 19                  0.73        -0.02          2.46256
              P 33 -- In 4                   0.72         0.04          2.49380
              P 19 -- In 19                  0.68         0.00          2.50857
              P 33 -- In 17                  0.70         0.05          2.51125
              P 5  -- In 7                   0.67         0.00          2.51247
              P 16 -- In 31                  0.66         0.00          2.51379
              P 22 -- In 24                  0.67        -0.00          2.51628
              P 8  -- In 4                   0.65        -0.00          2.51634
              P 17 -- In 24                  0.66        -0.00          2.51650
              P 14 -- In 29                  0.68        -0.00          2.51710
              P 22 -- In 7                   0.67        -0.00          2.51952
              P 14 -- In 31                  0.66        -0.00          2.52095
              P 4  -- In 29                  0.64        -0.00          2.52155
              P 14 -- In 16                  0.67         0.00          2.52206
              P 1  -- In 2                   0.65         0.00          2.52467
              P 21 -- In 17                  0.66        -0.01          2.52500
              P 22 -- In 5                   0.67        -0.00          2.52725
              P 14 -- In 14                  0.67        -0.00          2.52837
              P 12 -- In 16                  0.64         0.00          2.52877
              P 26 -- In 26                  0.68        -0.00          2.53111
              P 2  -- In 2                   0.63        -0.02          2.53185
              P 4  -- In 19                  0.61         0.00          2.53212
              P 22 -- In 22                  0.67        -0.00          2.53267
              P 26 -- In 11                  0.64        -0.00          2.53277
              P 12 -- In 2                   0.62         0.01          2.53347
              P 1  -- In 5                   0.63        -0.00          2.53548
              P 8  -- In 14                  0.63         0.00          2.54137
              P 10 -- In 25                  0.66         0.00          2.54179
              P 11 -- In 11                  0.59         0.00          2.54195
              P 18 -- In 20                  0.66         0.00          2.54223
              P 3  -- In 4                   0.66        -0.00          2.54246
              P 9  -- In 13                  0.67         0.00          2.54418
              P 31 -- In 32                  0.67        -0.00          2.54511
              P 31 -- In 31                  0.65         0.00          2.54516
              P 28 -- In 32                  0.67         0.00          2.54517
              P 21 -- In 22                  0.63         0.00          2.54525
              P 7  -- In 13                  0.67         0.00          2.54538
              P 7  -- In 7                   0.65        -0.00          2.54594
              P 26 -- In 9                   0.67         0.00          2.54595
              P 16 -- In 17                  0.60        -0.02          2.54599
              P 4  -- In 10                  0.67        -0.00          2.54600
              P 9  -- In 16                  0.66        -0.00          2.54650
              P 11 -- In 2                   0.68         0.00          2.54651
              P 29 -- In 30                  0.67        -0.00          2.54660
              P 15 -- In 15                  0.66         0.00          2.54662
              P 12 -- In 27                  0.68        -0.00          2.54679
              P 23 -- In 30                  0.66         0.00          2.54680
              P 1  -- In 3                   0.67        -0.00          2.54691
              P 25 -- In 26                  0.66         0.00          2.54713
              P 5  -- In 4                   0.58        -0.02          2.54739
              P 29 -- In 25                  0.66         0.00          2.54740
              P 26 -- In 28                  0.67         0.00          2.54752
              P 24 -- In 30                  0.67         0.00          2.54754
              P 18 -- In 3                   0.66        -0.00          2.54758
              P 25 -- In 29                  0.66        -0.00          2.54762
              P 13 -- In 14                  0.67        -0.00          2.54787
              P 28 -- In 5                   0.66        -0.00          2.54788
              P 6  -- In 8                   0.66         0.00          2.54799
              P 20 -- In 26                  0.66         0.00          2.54823
              P 7  -- In 14                  0.67        -0.00          2.54851
              P 20 -- In 13                  0.66         0.00          2.54855
              P 13 -- In 9                   0.67        -0.00          2.54858
              P 27 -- In 17                  0.66         0.00          2.54873
              P 31 -- In 22                  0.67        -0.00          2.54885
              P 24 -- In 20                  0.66         0.00          2.54890
              P 29 -- In 31                  0.66         0.00          2.54906
              P 17 -- In 18                  0.68        -0.00          2.54915
              P 23 -- In 23                  0.67         0.00          2.54917
              P 32 -- In 22                  0.67         0.00          2.54932
              P 25 -- In 32                  0.66         0.00          2.54962
              P 23 -- In 29                  0.66         0.00          2.54967
              P 20 -- In 24                  0.65        -0.00          2.54968
              P 24 -- In 7                   0.66         0.00          2.55004
              P 16 -- In 12                  0.68         0.00          2.55008
              P 6  -- In 21                  0.65         0.00          2.55058
              P 32 -- In 28                  0.66         0.00          2.55062
              P 5  -- In 1                   0.68         0.00          2.55112
              P 15 -- In 6                   0.66         0.00          2.55114
              P 15 -- In 16                  0.66        -0.00          2.55122
              P 15 -- In 5                   0.67         0.00          2.55128
              P 10 -- In 27                  0.65         0.00          2.55142
              P 32 -- In 15                  0.67        -0.00          2.55161
              P 10 -- In 10                  0.66        -0.00          2.55177
              P 23 -- In 24                  0.65        -0.00          2.55198
              P 8  -- In 25                  0.65         0.00          2.55245
              P 13 -- In 15                  0.67        -0.00          2.55318
              P 1  -- In 8                   0.66         0.00          2.55322
              P 21 -- In 20                  0.64         0.00          2.55350
              P 10 -- In 12                  0.64         0.00          2.55414
              P 21 -- In 23                  0.68        -0.00          2.55417
              P 30 -- In 15                  0.66        -0.00          2.55418
              P 30 -- In 30                  0.66        -0.00          2.55431
              P 17 -- In 19                  0.57         0.00          2.55437
              P 6  -- In 23                  0.66        -0.00          2.55452
              P 19 -- In 26                  0.62        -0.00          2.55454
              P 5  -- In 6                   0.66        -0.00          2.55465
              P 8  -- In 23                  0.69        -0.00          2.55500
              P 18 -- In 1                   0.64        -0.00          2.55536
              P 4  -- In 8                   0.67         0.00          2.55577
              P 28 -- In 11                  0.65         0.00          2.55578
              P 18 -- In 18                  0.65         0.00          2.55624
              P 9  -- In 11                  0.65         0.00          2.55630
              P 24 -- In 9                   0.66        -0.00          2.55632
              P 9  -- In 10                  0.66         0.00          2.55650
              P 27 -- In 28                  0.64        -0.00          2.55666
              P 16 -- In 6                   0.65        -0.00          2.55668
              P 17 -- In 21                  0.66        -0.00          2.55672
              P 30 -- In 13                  0.66        -0.00          2.55686
              P 30 -- In 32                  0.66         0.00          2.55693
              P 29 -- In 28                  0.65        -0.00          2.55745
              P 20 -- In 3                   0.66        -0.00          2.55747
              P 12 -- In 21                  0.65        -0.00          2.55793
              P 27 -- In 27                  0.66        -0.00          2.55874
              P 3  -- In 3                   0.66         0.00          2.55946
              P 25 -- In 27                  0.66         0.00          2.55992
              P 6  -- In 6                   0.65        -0.00          2.56028
              P 3  -- In 9                   0.64         0.00          2.56032
              P 19 -- In 25                  0.65        -0.00          2.56034
              P 3  -- In 10                  0.65         0.00          2.56110
              P 13 -- In 12                  0.64         0.00          2.56131
              P 28 -- In 18                  0.65         0.00          2.56202
              P 19 -- In 20                  0.65        -0.00          2.56325
              P 32 -- In 1                   0.64         0.00          2.56366
              P 11 -- In 12                  0.66        -0.00          2.56379
              P 11 -- In 1                   0.65         0.00          2.56481
              P 27 -- In 18                  0.65         0.00          2.56507
              P 7  -- In 8                   0.64         0.00          2.56935
              P 31 -- In 21                  0.64         0.00          2.56956
================================================================================

 Hirshfeld supercell size:           2           2           2
Standard grid dimensions: 240 240 240
Fine grid dimensions:     240 240 240


     Hirshfeld Analysis
     ------------------
Species   Ion     Hirshfeld Charge (e)  Spin (hbar/2)
===================================================
  P        1                -0.23        0.02
  P        2                -0.13        0.51
  P        3                -0.23        0.00
  P        4                -0.24        0.03
  P        5                -0.24        0.03
  P        6                -0.23       -0.00
  P        7                -0.24        0.00
  P        8                -0.24        0.00
  P        9                -0.24        0.00
  P       10                -0.24       -0.00
  P       11                -0.23       -0.00
  P       12                -0.24        0.00
  P       13                -0.24        0.00
  P       14                -0.24        0.01
  P       15                -0.24        0.00
  P       16                -0.23        0.03
  P       17                -0.24        0.02
  P       18                -0.24       -0.00
  P       19                -0.23       -0.00
  P       20                -0.24        0.00
  P       21                -0.24        0.01
  P       22                -0.24        0.01
  P       23                -0.24        0.00
  P       24                -0.24        0.00
  P       25                -0.24        0.00
  P       26                -0.24       -0.00
  P       27                -0.23        0.00
  P       28                -0.24        0.00
  P       29                -0.24        0.00
  P       30                -0.24       -0.00
  P       31                -0.24       -0.00
  P       32                -0.24        0.00
  P       33                -0.20        0.11
  In       1                 0.25        0.00
  In       2                 0.25        0.02
  In       3                 0.25        0.00
  In       4                 0.23        0.04
  In       5                 0.24        0.01
  In       6                 0.25        0.00
  In       7                 0.23        0.01
  In       8                 0.25        0.00
  In       9                 0.24        0.00
  In      10                 0.25        0.00
  In      11                 0.23        0.00
  In      12                 0.25        0.00
  In      13                 0.23        0.00
  In      14                 0.23        0.00
  In      15                 0.24        0.00
  In      16                 0.23        0.00
  In      17                 0.24        0.05
  In      18                 0.25        0.00
  In      19                 0.23        0.02
  In      20                 0.25        0.00
  In      21                 0.25        0.00
  In      22                 0.24        0.00
  In      23                 0.25        0.00
  In      24                 0.23        0.01
  In      25                 0.24        0.00
  In      26                 0.23       -0.00
  In      27                 0.25        0.00
  In      28                 0.24        0.00
  In      29                 0.23        0.01
  In      30                 0.24        0.00
  In      31                 0.23        0.01
  In      32                 0.23        0.00
===================================================

 
 A BibTeX formatted list of references used in this run has been written to 
 P_Interstitial_Migration_Dumbbell_Dumbbell+_Singlepoints_4.bib
 
Initialisation time =     30.38 s
Calculation time    =   7914.34 s
Finalisation time   =    152.84 s
Total time          =   8097.56 s
Peak Memory Use     = 9616408 kB
 
Overall parallel efficiency rating: Poor (35%)
 
Data was distributed by:-
G-vector (3-way); efficiency rating: Poor (38%)
k-point (36-way); efficiency rating: Good (79%)
