 +-------------------------------------------------+
 |                                                 |
 |      CCC   AA    SSS  TTTTT  EEEEE  PPPP        |
 |     C     A  A  S       T    E      P   P       |
 |     C     AAAA   SS     T    EEE    PPPP        |
 |     C     A  A     S    T    E      P           |
 |      CCC  A  A  SSS     T    EEEEE  P           |
 |                                                 |
 +-------------------------------------------------+
 |                                                 |
 | Welcome to Academic Release CASTEP version 24.1 |
 | Ab Initio Total Energy Program                  |
 |                                                 |
 | Authors:                                        |
 | M. Segall, M. Probert, C. Pickard, P. Hasnip,   |
 | S. Clark, K. Refson, J. R. Yates,               |
 | A. Bartok-Partay, M. Payne                      |
 |                                                 |
 | Contributors:                                   |
 | P. Lindan, P. Haynes, J. White, V. Milman,      |
 | N. Govind, M. Gibson, P. Tulip, V. Cocula,      |
 | B. Montanari, D. Quigley, M. Glover,            |
 | L. Bernasconi, A. Perlov, M. Plummer,           |
 | E. McNellis, J. Meyer, J. Gale, D. Jochym       |
 | J. Aarons, B. Walker, R. Gillen, D. Jones       |
 | T. Green, I. J. Bush, C. J. Armstrong,          |
 | E. J. Higgins, E. L. Brown, M. S. McFly,        |
 | J. Wilkins, B-C. Shih, P. J. P. Byrne,          |
 | R. J. Maurer, J. C. Womack, J. Dziedzic,        |
 | L. LeBlanc, T. K. Stenczel, J. Kermode,         |
 | S. Sturniolo, B. Shi, B. Durham, M. Evans,      |
 | M. J. Smith, A. Tamerus, Z. Hawkhead,           |
 | V. Ravindran, T. Hollins, S. A. Joyce,          |
 | R. T. Strong, A. M. Reilly, S. J. Donaldson     |
 |                                                 |
 | Copyright (c) 2000 - 2023                       |
 |                                                 |
 |     Distributed under license from Cambridge    |
 |     Enterprise for academic use only.           |
 |                                                 |
 | Please cite                                     |
 |                                                 |
 |     "First principles methods using CASTEP"     |
 |                                                 |
 |         Zeitschrift fuer Kristallographie       |
 |           220(5-6) pp. 567-570 (2005)           |
 |                                                 |
 | S. J. Clark, M. D. Segall, C. J. Pickard,       |
 | P. J. Hasnip, M. J. Probert, K. Refson,         |
 | M. C. Payne                                     |
 |                                                 |
 |       in all publications arising from          |
 |              your use of CASTEP                 |
 |                                                 |
 +-------------------------------------------------+
 |                                                 |
 |              http://www.castep.org              |
 |                                                 |
 +-------------------------------------------------+



 Compiled for  GNU 11.2.0 on 04-04-2024 18:39:17
 from code version 6355fd106 Castep241_branch Thu Mar 7 17:56:19 2024 +0000
 Compiler: GNU Fortran 11.2.0; Optimisation: FAST
 Comms   : MPI VERSION : CRAY MPICH version 8.1.23.14 (ANL base 3.4a2)
 MATHLIBS: default (LAPACK version 3.10.1)
 FFT Lib : fftw3 version commercial-fftw-3.3.10-sse2-avx-avx2-avx2_128
 Fundamental constants values: CODATA 2018

 Run started: Sun, 27 Apr 2025 02:54:20 +0100

 Atomic calculation performed for P: 1s2 2s2 2p6 3s2 3p3

 Converged in 47 iterations to an ae energy of -9309.074 eV

   ============================================================                
   | Pseudopotential Report - Date of generation 27-04-2025   |                
   ------------------------------------------------------------                
   | Element: P Ionic charge:  5.00 Level of theory: RSCAN    |                
   | Atomic Solver: Koelling-Harmon                           |                
   |                                                          |                
   |               Reference Electronic Structure             |                
   |         Orbital         Occupation         Energy        |                
   |            3s              2.000           -0.535        |                
   |            3p              3.000           -0.209        |                
   |                                                          |                
   |                 Pseudopotential Definition               |                
   |        Beta     l      e      Rc     scheme   norm       |                
   |          1      0   -0.535   1.807     qc      0         |                
   |          2      0    0.250   1.807     qc      0         |                
   |          3      1   -0.209   1.807     qc      0         |                
   |          4      1    0.250   1.807     qc      0         |                
   |          5      2    0.000   1.807     qc      0         |                
   |          6      2    0.250   1.807     qc      0         |                
   |         loc     3    0.000   1.807     pn      0         |                
   |                                                          |                
   | Augmentation charge Rinner = 1.263                       |                
   | Partial core correction Rc = 1.263                       |                
   ------------------------------------------------------------                
   | "3|1.8|4|4|5|30:31:32"                                   |                
   ------------------------------------------------------------                
   |      Author: Chris J. Pickard, Cambridge University      |                
   ============================================================                
 Warning: otfg_output_psp cannot write out meta-GGA pseudopotentials presently.

 Atomic calculation performed for In:
 1s2 2s2 2p6 3s2 3p6 3d10 4s2 4p6 4d10 5s2 5p1

 Converged in 84 iterations to an ae energy of -160093.328 eV

   ============================================================                
   | Pseudopotential Report - Date of generation 27-04-2025   |                
   ------------------------------------------------------------                
   | Element: In Ionic charge: 13.00 Level of theory: RSCAN   |                
   | Atomic Solver: Koelling-Harmon                           |                
   |                                                          |                
   |               Reference Electronic Structure             |                
   |         Orbital         Occupation         Energy        |                
   |            4d             10.000           -0.711        |                
   |            5s              2.000           -0.313        |                
   |            5p              1.000           -0.095        |                
   |                                                          |                
   |                 Pseudopotential Definition               |                
   |        Beta     l      e      Rc     scheme   norm       |                
   |          1      0   -0.313   2.501     qc      0         |                
   |          2      0    0.250   2.501     qc      0         |                
   |          3      1   -0.095   2.501     qc      0         |                
   |          4      1    0.250   2.501     qc      0         |                
   |          5      2   -0.711   2.207     qc      0         |                
   |          6      2    0.250   2.207     qc      0         |                
   |         loc     3    0.000   2.501     pn      0         |                
   |                                                          |                
   | Augmentation charge Rinner = 1.504                       |                
   | Partial core correction Rc = 1.504                       |                
   ------------------------------------------------------------                
   | "3|2.5|2.5|1.5|7|8|9|50:51:42U2.2U2.2"                   |                
   ------------------------------------------------------------                
   |      Author: Chris J. Pickard, Cambridge University      |                
   ============================================================                
 Warning: otfg_output_psp cannot write out meta-GGA pseudopotentials presently.

 Pseudo atomic calculation performed for P 3s2 3p3

 Converged in 23 iterations to a total energy of -208.0292 eV

 Pseudo atomic calculation performed for In 4d10 5s2 5p1

 Converged in 42 iterations to a total energy of -1747.4501 eV
 Calculation parallelised over 108 processes.
 Data is distributed by G-vector(3-way) and k-point(36-way)
 Each process may use up to 16 threads.

 ************************************ Title ************************************
 

 ***************************** General Parameters ******************************
  
 output verbosity                               : normal  (1)
 write checkpoint data to                       : P_Interstitial_Migration_Dumbbell_Dumbbell+_Singlepoints_4.check
 type of calculation                            : single point energy
 stress calculation                             : off
 density difference calculation                 : off
 electron localisation func (ELF) calculation   : off
 Hirshfeld analysis                             : on
 polarisation (Berry phase) analysis            : off
 molecular orbital projected DOS                : off
 deltaSCF calculation                           : off
 unlimited duration calculation
 timing information                             : on
 memory usage estimate                          : on
 write extra output files                       : on
 write final potential to formatted file        : off
 write final density to formatted file          : off
 write BibTeX reference list                    : on
 write OTFG pseudopotential files               : on
 write electrostatic potential file             : on
 write bands file                               : on
 checkpoint writing                             : off
  
 output         length unit                     : A
 output           mass unit                     : amu
 output           time unit                     : ps
 output         charge unit                     : e
 output           spin unit                     : hbar/2
 output         energy unit                     : eV
 output          force unit                     : eV/A
 output       velocity unit                     : A/ps
 output       pressure unit                     : GPa
 output     inv_length unit                     : 1/A
 output      frequency unit                     : cm-1
 output force constant unit                     : eV/A**2
 output         volume unit                     : A**3
 output   IR intensity unit                     : (D/A)**2/amu
 output         dipole unit                     : D
 output         efield unit                     : eV/A/e
 output        entropy unit                     : J/mol/K
 output    efield chi2 unit                     : pm/V
  
 wavefunctions paging                           : none
 random number generator seed                   :   25421105
 data distribution                              : optimal for this architecture
 optimization strategy                          : balance speed and memory

 *********************** Exchange-Correlation Parameters ***********************
  
 using functional                               : RSCAN
 relativistic treatment                         : Koelling-Harmon
 DFT+D: Semi-empirical dispersion correction    : off

 ************************* Pseudopotential Parameters **************************
  
 pseudopotential representation                 : reciprocal space
 <beta|phi> representation                      : reciprocal space
 spin-orbit coupling                            : off

 **************************** Basis Set Parameters *****************************
  
 plane wave basis set cut-off                   :   900.0000   eV
 size of standard grid                          :     2.0000
 size of   fine   gmax                          :    30.7390   1/A
 finite basis set correction                    : none

 **************************** Electronic Parameters ****************************
  
 number of  electrons                           :  581.0    
 net charge of system                           :  0.000    
 net spin   of system                           :  1.000    
 number of  up  spins                           :  291.0    
 number of down spins                           :  290.0    
 treating system as spin-polarized
 number of bands                                :        349

 ********************* Electronic Minimization Parameters **********************
  
 Method: Treating system as metallic with density mixing treatment of electrons,
         and number of  SD  steps               :          1
         and number of  CG  steps               :          4
  
 total energy / atom convergence tol.           : 0.1000E-07   eV
 eigen-energy convergence tolerance             : 0.2234E-08   eV
 max force / atom convergence tol.              : ignored
 convergence tolerance window                   :          3   cycles
 max. number of SCF cycles                      :        100
 number of fixed-spin iterations                :         10
 smearing scheme                                : Gaussian
 smearing width                                 : 0.2000       eV
 Fermi energy convergence tolerance             : 0.2721E-13   eV
 periodic dipole correction                     : NONE

 ************************** Density Mixing Parameters **************************
  
 density-mixing scheme                          : Pulay
 max. length of mixing history                  :         20
 charge density mixing amplitude                : 0.5000    
   spin density mixing amplitude                :  2.000    
 cut-off energy for mixing                      :  900.0       eV

 *********************** Population Analysis Parameters ************************
  
 Population analysis with cutoff                :  3.000       A
 Population analysis output                     : summary and pdos components

 *******************************************************************************
  

                           -------------------------------
                                      Unit Cell
                           -------------------------------
        Real Lattice(A)                      Reciprocal Lattice(1/A)
    11.8016820    -0.0000080    -0.0000080        0.532397442   0.000000361   0.000000361
    -0.0000080    11.8016820    -0.0000080        0.000000361   0.532397442   0.000000361
    -0.0000080    -0.0000080    11.8016820        0.000000361   0.000000361   0.532397442

                       Lattice parameters(A)       Cell Angles
                    a =     11.801682          alpha =   90.000078
                    b =     11.801682          beta  =   90.000078
                    c =     11.801682          gamma =   90.000078

                       Current cell volume =          1643.734705       A**3
                                   density =             2.857097   AMU/A**3
                                           =             4.744322     g/cm^3

                           -------------------------------
                                     Cell Contents
                           -------------------------------
                         Total number of ions in cell =   65
                      Total number of species in cell =    2
                        Max number of any one species =   33

            xxxxxxxxxxxxxxxxxxxxxxxxxxxxxxxxxxxxxxxxxxxxxxxxxxxxxxxxxxxx
            x  Element    Atom        Fractional coordinates of atoms  x
            x            Number           u          v          w      x
            x----------------------------------------------------------x
            x  P            1         0.114122   0.124416   0.381983   x 
            x  P            2         0.388890   0.115045   0.216419   x 
            x  P            3         0.125675   0.372266   0.122132   x 
            x  P            4         0.374303   0.382335   0.378665   x 
            x  P            5         0.116841   0.123832   0.861305   x 
            x  P            6         0.373795   0.123866   0.620687   x 
            x  P            7         0.124116   0.373884   0.621562   x 
            x  P            8         0.377054   0.377001   0.869287   x 
            x  P            9         0.122098   0.621931   0.370851   x 
            x  P           10         0.373589   0.625882   0.122160   x 
            x  P           11         0.121926   0.871913   0.124362   x 
            x  P           12         0.373483   0.862932   0.383757   x 
            x  P           13         0.123476   0.624295   0.875017   x 
            x  P           14         0.372310   0.619487   0.625761   x 
            x  P           15         0.120521   0.870573   0.622089   x 
            x  P           16         0.373041   0.866279   0.860704   x 
            x  P           17         0.630439   0.126636   0.378303   x 
            x  P           18         0.875229   0.123674   0.122184   x 
            x  P           19         0.629442   0.380096   0.118506   x 
            x  P           20         0.875019   0.373890   0.372544   x 
            x  P           21         0.625836   0.126428   0.869846   x 
            x  P           22         0.870142   0.121685   0.625504   x 
            x  P           23         0.625721   0.375356   0.622385   x 
            x  P           24         0.874751   0.374545   0.872369   x 
            x  P           25         0.623773   0.625353   0.372403   x 
            x  P           26         0.873028   0.622973   0.121928   x 
            x  P           27         0.621576   0.875765   0.121375   x 
            x  P           28         0.871298   0.873087   0.370476   x 
            x  P           29         0.624968   0.624983   0.872140   x 
            x  P           30         0.873712   0.623776   0.622566   x 
            x  P           31         0.624079   0.874270   0.621300   x 
            x  P           32         0.874582   0.873746   0.875213   x 
            x  P           33         0.326721   0.080569   0.054195   x 
            x  In           1         0.002041   0.000784  -0.003087   x 
            x  In           2         0.231501  -0.018626   0.274555   x 
            x  In           3        -0.000501   0.248116   0.247371   x 
            x  In           4         0.238803   0.257464  -0.020896   x 
            x  In           5        -0.008858  -0.004639   0.501958   x 
            x  In           6         0.246908  -0.002554   0.743159   x 
            x  In           7        -0.005673   0.250562   0.741930   x 
            x  In           8         0.250003   0.248780   0.495428   x 
            x  In           9        -0.000733   0.498500  -0.000972   x 
            x  In          10         0.250141   0.499245   0.246526   x 
            x  In          11        -0.003819   0.746846   0.246555   x 
            x  In          12         0.250213   0.751820  -0.003311   x 
            x  In          13        -0.000961   0.498597   0.497802   x 
            x  In          14         0.245800   0.498466   0.749289   x 
            x  In          15        -0.002549   0.747660   0.749762   x 
            x  In          16         0.245092   0.739804   0.503238   x 
            x  In          17         0.504086  -0.010770  -0.020039   x 
            x  In          18         0.747243   0.001217   0.246777   x 
            x  In          19         0.517999   0.272011   0.263640   x 
            x  In          20         0.751725   0.248053  -0.003016   x 
            x  In          21         0.498949   0.000134   0.495203   x 
            x  In          22         0.748299  -0.004146   0.749531   x 
            x  In          23         0.499507   0.249446   0.744297   x 
            x  In          24         0.753579   0.249896   0.501209   x 
            x  In          25         0.498191   0.502735  -0.003101   x 
            x  In          26         0.751245   0.501475   0.249967   x 
            x  In          27         0.497742   0.750525   0.247807   x 
            x  In          28         0.748493   0.749591  -0.000712   x 
            x  In          29         0.500775   0.503376   0.501216   x 
            x  In          30         0.749384   0.499237   0.748599   x 
            x  In          31         0.501001   0.744441   0.741745   x 
            x  In          32         0.748836   0.749219   0.497610   x 
            xxxxxxxxxxxxxxxxxxxxxxxxxxxxxxxxxxxxxxxxxxxxxxxxxxxxxxxxxxxx


                         No user defined ionic velocities

                           -------------------------------
                                   Details of Species
                           -------------------------------

                               Mass of species in AMU
                                    P   30.9737600
                                    In  114.8180000

                          Electric Quadrupole Moment (Barn)
                                    P    1.0000000 No Isotope Defined
                                    In    0.7700000 Isotope115

                          Files used for pseudopotentials:
                                    P 3|1.8|4|4|5|30:31:32
                                    In 3|2.5|2.5|1.5|7|8|9|50:51:42U2.2U2.2

                           -------------------------------
                              k-Points For BZ Sampling
                           -------------------------------
                       MP grid size for SCF calculation is  4  4  4
                            with an offset of   0.125  0.125  0.125
                       Number of kpoints used =            36

                           -------------------------------
                               Symmetry and Constraints
                           -------------------------------

                      Maximum deviation from symmetry =  0.00000         ANG

                      Number of symmetry operations   =           1
                      Number of ionic constraints     =           3
                      Point group of crystal =     1: C1, 1, 1
                      Space group of crystal =     1: P1, P 1

             Set iprint > 1 for details on symmetry rotations/translations

                         Centre of mass is constrained
             Set iprint > 1 for details of linear ionic constraints

                         Number of cell constraints= 0
                         Cell constraints are:  1 2 3 4 5 6

                         External pressure/stress (GPa)
                          0.00000   0.00000   0.00000
                                    0.00000   0.00000
                                              0.00000
 
+---------------- MEMORY AND SCRATCH DISK ESTIMATES PER PROCESS --------------+
|                                                     Memory          Disk    |
| Baseline code, static data and system overhead      368.0 MB         0.0 MB |
| BLAS internal memory storage                          0.0 MB         0.0 MB |
| Model and support data                             4327.0 MB         0.0 MB |
| Electronic energy minimisation requirements        1337.1 MB         0.0 MB |
| Force calculation requirements                      127.4 MB         0.0 MB |
|                                               ----------------------------- |
| Approx. total storage required per process         6032.2 MB         0.0 MB |
|                                                                             |
| Requirements will fluctuate during execution and may exceed these estimates |
+-----------------------------------------------------------------------------+
Calculating approximate eigenstates for fixed initial Hamiltonian
Cut-off for approx. calculation is   89.988 eV
Improving approx. states at cut-off of  450.000 eV
Resetting cut-off to  900.000 eV
Calculating total energy with cut-off of  900.000 eV.
------------------------------------------------------------------------ <-- SCF
SCF loop      Energy           Fermi           Energy gain       Timer   <-- SCF
                               energy          per atom          (sec)   <-- SCF
------------------------------------------------------------------------ <-- SCF
Initial  -6.32538572E+004  0.00000000E+000                       457.51  <-- SCF
      1  -6.30178297E+004  2.90593787E+000  -3.63119192E+000     907.10  <-- SCF
      2  -6.30180892E+004  2.90531468E+000   3.99188537E-003    1233.13  <-- SCF
      3  -6.30839552E+004  3.24734233E+000   1.01332390E+000    1580.05  <-- SCF
      4  -6.30955444E+004  3.33480490E+000   1.78294091E-001    2074.69  <-- SCF
      5  -6.31018334E+004  3.50897051E+000   9.67540765E-002    2428.01  <-- SCF
      6  -6.30901699E+004  3.73136890E+000  -1.79438379E-001    2775.28  <-- SCF
      7  -6.30888389E+004  3.79022635E+000  -2.04764251E-002    3130.30  <-- SCF
      8  -6.30889506E+004  3.83416078E+000   1.71849040E-003    3508.26  <-- SCF
      9  -6.30898078E+004  3.86206310E+000   1.31875801E-002    3869.08  <-- SCF
     10  -6.30900714E+004  3.84605910E+000   4.05502252E-003    4233.54  <-- SCF
     11  -6.30900761E+004  3.83755190E+000   7.17447363E-005    4600.26  <-- SCF
     12  -6.30900782E+004  3.83124192E+000   3.27631787E-005    4972.49  <-- SCF
     13  -6.30900792E+004  3.83060287E+000   1.55002254E-005    5337.59  <-- SCF
     14  -6.30900794E+004  3.82979204E+000   3.54117375E-006    5708.56  <-- SCF
     15  -6.30900795E+004  3.82911363E+000   9.27763767E-007    6076.07  <-- SCF
     16  -6.30900795E+004  3.82907999E+000   2.88159698E-007    6397.99  <-- SCF
     17  -6.30900795E+004  3.82899452E+000   8.07141700E-008    6689.42  <-- SCF
     18  -6.30900795E+004  3.82907671E+000   2.83937013E-008    6945.35  <-- SCF
     19  -6.30900795E+004  3.82915636E+000   1.02965647E-008    7191.24  <-- SCF
     20  -6.30900795E+004  3.82916760E+000   3.46156927E-009    7434.92  <-- SCF
     21  -6.30900795E+004  3.82916696E+000   6.96387855E-010    7687.88  <-- SCF
------------------------------------------------------------------------ <-- SCF
 
Integrated Spin Density     =    0.997391     hbar/2
Integrated |Spin Density|   =     1.17917     hbar/2
 
Final energy, E             =  -63090.06982180     eV
Final free energy (E-TS)    =  -63090.07950733     eV
(energies not corrected for finite basis set)
 
NB est. 0K energy (E-0.5TS)      =  -63090.07466456     eV
 

 ************************** Forces **************************
 *                                                          *
 *               Cartesian components (eV/A)                *
 * -------------------------------------------------------- *
 *                         x            y            z      *
 *                                                          *
 * P               1      0.01224      0.00046     -0.04066 *
 * P               2      0.00552     -0.01442     -0.04783 *
 * P               3     -0.00615      0.01198      0.01505 *
 * P               4     -0.00579     -0.02966     -0.02108 *
 * P               5     -0.04394      0.00154      0.05602 *
 * P               6     -0.00554     -0.00777      0.02113 *
 * P               7     -0.01836     -0.01646     -0.02371 *
 * P               8     -0.03667      0.11924     -0.03544 *
 * P               9     -0.01998      0.00090      0.00605 *
 * P              10     -0.00385     -0.01037      0.00492 *
 * P              11     -0.02032     -0.00054      0.05081 *
 * P              12     -0.05881     -0.07633      0.02625 *
 * P              13     -0.02820     -0.00375     -0.00227 *
 * P              14     -0.01000      0.01663     -0.00707 *
 * P              15      0.01203      0.01652     -0.02095 *
 * P              16      0.01841     -0.03315      0.04837 *
 * P              17      0.02271      0.01542      0.00299 *
 * P              18     -0.02076     -0.01557      0.00314 *
 * P              19     -0.05520     -0.05569      0.05018 *
 * P              20      0.00734     -0.00719     -0.00245 *
 * P              21      0.08730     -0.02726     -0.00540 *
 * P              22      0.03435     -0.00080     -0.02122 *
 * P              23      0.01133     -0.00275     -0.01205 *
 * P              24      0.01337      0.00112     -0.00148 *
 * P              25      0.00859      0.00840     -0.01285 *
 * P              26     -0.01580      0.00829      0.02045 *
 * P              27     -0.01926      0.05182      0.05510 *
 * P              28      0.00046     -0.00520     -0.00368 *
 * P              29      0.00998      0.03196      0.00875 *
 * P              30     -0.00675     -0.00880     -0.00402 *
 * P              31     -0.01261     -0.00706     -0.00935 *
 * P              32     -0.01935     -0.01758      0.01095 *
 * P              33     -0.18635     -0.16886     -0.05519 *
 * In              1      0.00843     -0.01183      0.01401 *
 * In              2      0.07274     -0.03387     -0.03157 *
 * In              3     -0.04437      0.00348     -0.01435 *
 * In              4      0.19140     -0.00745     -0.02345 *
 * In              5     -0.01344      0.03082      0.00614 *
 * In              6      0.04307      0.02229      0.00481 *
 * In              7      0.01145     -0.01873      0.01060 *
 * In              8     -0.00805      0.03002      0.09328 *
 * In              9     -0.00584     -0.00773     -0.01771 *
 * In             10     -0.01383      0.04900     -0.00165 *
 * In             11      0.02888      0.02140     -0.01967 *
 * In             12     -0.00281      0.01177      0.01632 *
 * In             13     -0.00708      0.02613     -0.00616 *
 * In             14      0.10338     -0.00625      0.00811 *
 * In             15     -0.02149     -0.01854      0.00755 *
 * In             16      0.09179      0.01666     -0.02919 *
 * In             17     -0.02399      0.10609     -0.07526 *
 * In             18      0.02859      0.00263     -0.00005 *
 * In             19      0.06632      0.06351     -0.01622 *
 * In             20     -0.03383      0.02222     -0.01697 *
 * In             21     -0.00247     -0.02895      0.06099 *
 * In             22     -0.00047      0.06529      0.00551 *
 * In             23     -0.03869     -0.01458      0.04182 *
 * In             24     -0.01940     -0.01127      0.00437 *
 * In             25      0.01371     -0.03212     -0.03231 *
 * In             26     -0.01493     -0.01643     -0.04091 *
 * In             27     -0.03568     -0.04264      0.01239 *
 * In             28      0.00451     -0.01743     -0.04626 *
 * In             29     -0.02980     -0.00091      0.01453 *
 * In             30      0.01874      0.02280      0.00886 *
 * In             31     -0.04051      0.00653      0.00685 *
 * In             32      0.02373     -0.00697      0.00208 *
 *                                                          *
 ************************************************************

 Pseudo atomic calculation performed for P 3s2 3p3

 Converged in 23 iterations to a total energy of -208.0292 eV

 Pseudo atomic calculation performed for In 4d10 5s2 5p1

 Converged in 42 iterations to a total energy of -1747.4501 eV
Charge spilling parameter for spin component 1 = 0.17%
Charge spilling parameter for spin component 2 = 0.18%

                   Orbital Populations                  
  ---------------------------------------------------------------
     Ion    Atom   Orbital              Up        Down      Spin
  ---------------------------------------------------------------
      P     1      S                    0.868     0.866     0.003
      P     1      Px                   0.666     0.656     0.010
      P     1      Py                   0.648     0.645     0.003
      P     1      Pz                   0.663     0.657     0.006
      P     2      S                    0.885     0.858     0.027
      P     2      Px                   0.790     0.431     0.360
      P     2      Py                   0.793     0.505     0.287
      P     2      Pz                   0.579     0.558     0.021
      P     3      S                    0.868     0.868    -0.000
      P     3      Px                   0.659     0.658     0.000
      P     3      Py                   0.659     0.658     0.001
      P     3      Pz                   0.650     0.651    -0.000
      P     4      S                    0.868     0.864     0.003
      P     4      Px                   0.648     0.645     0.003
      P     4      Py                   0.667     0.656     0.011
      P     4      Pz                   0.663     0.656     0.007
      P     5      S                    0.868     0.864     0.003
      P     5      Px                   0.665     0.653     0.012
      P     5      Py                   0.651     0.647     0.005
      P     5      Pz                   0.662     0.649     0.013
      P     6      S                    0.867     0.867    -0.000
      P     6      Px                   0.657     0.657     0.000
      P     6      Py                   0.658     0.658     0.000
      P     6      Pz                   0.656     0.656    -0.000
      P     7      S                    0.867     0.867    -0.000
      P     7      Px                   0.656     0.656    -0.000
      P     7      Py                   0.658     0.658     0.000
      P     7      Pz                   0.656     0.656    -0.000
      P     8      S                    0.866     0.867    -0.000
      P     8      Px                   0.649     0.650    -0.001
      P     8      Py                   0.661     0.660     0.001
      P     8      Pz                   0.662     0.661     0.001
      P     9      S                    0.867     0.867     0.000
      P     9      Px                   0.658     0.657     0.000
      P     9      Py                   0.659     0.658     0.000
      P     9      Pz                   0.654     0.654    -0.000
      P    10      S                    0.867     0.867    -0.000
      P    10      Px                   0.658     0.658    -0.000
      P    10      Py                   0.656     0.656    -0.000
      P    10      Pz                   0.658     0.658    -0.000
      P    11      S                    0.871     0.871     0.000
      P    11      Px                   0.653     0.653    -0.000
      P    11      Py                   0.652     0.653    -0.000
      P    11      Pz                   0.641     0.641    -0.000
      P    12      S                    0.867     0.867     0.000
      P    12      Px                   0.643     0.644    -0.001
      P    12      Py                   0.661     0.662    -0.000
      P    12      Pz                   0.658     0.657     0.000
      P    13      S                    0.867     0.867    -0.000
      P    13      Px                   0.658     0.658     0.000
      P    13      Py                   0.655     0.655    -0.000
      P    13      Pz                   0.657     0.657    -0.000
      P    14      S                    0.863     0.862     0.001
      P    14      Px                   0.651     0.650     0.002
      P    14      Py                   0.667     0.662     0.005
      P    14      Pz                   0.666     0.661     0.004
      P    15      S                    0.866     0.867    -0.000
      P    15      Px                   0.656     0.656    -0.000
      P    15      Py                   0.655     0.655     0.000
      P    15      Pz                   0.658     0.659    -0.000
      P    16      S                    0.868     0.865     0.004
      P    16      Px                   0.653     0.646     0.007
      P    16      Py                   0.667     0.648     0.018
      P    16      Pz                   0.661     0.649     0.013
      P    17      S                    0.868     0.865     0.003
      P    17      Px                   0.662     0.658     0.004
      P    17      Py                   0.646     0.646     0.001
      P    17      Pz                   0.661     0.656     0.005
      P    18      S                    0.867     0.867    -0.000
      P    18      Px                   0.656     0.656    -0.000
      P    18      Py                   0.658     0.659    -0.000
      P    18      Pz                   0.658     0.658    -0.000
      P    19      S                    0.868     0.868    -0.000
      P    19      Px                   0.661     0.661    -0.000
      P    19      Py                   0.662     0.662    -0.000
      P    19      Pz                   0.646     0.646    -0.000
      P    20      S                    0.867     0.867     0.000
      P    20      Px                   0.658     0.657     0.000
      P    20      Py                   0.658     0.657     0.001
      P    20      Pz                   0.656     0.656     0.000
      P    21      S                    0.868     0.867     0.001
      P    21      Px                   0.662     0.656     0.006
      P    21      Py                   0.652     0.651     0.001
      P    21      Pz                   0.662     0.659     0.003
      P    22      S                    0.863     0.862     0.001
      P    22      Px                   0.667     0.661     0.006
      P    22      Py                   0.653     0.650     0.002
      P    22      Pz                   0.665     0.660     0.006
      P    23      S                    0.866     0.866    -0.000
      P    23      Px                   0.656     0.656     0.000
      P    23      Py                   0.656     0.656     0.000
      P    23      Pz                   0.658     0.659    -0.000
      P    24      S                    0.867     0.867    -0.000
      P    24      Px                   0.658     0.658    -0.000
      P    24      Py                   0.658     0.658     0.000
      P    24      Pz                   0.655     0.655    -0.000
      P    25      S                    0.867     0.867    -0.000
      P    25      Px                   0.658     0.657     0.000
      P    25      Py                   0.657     0.657     0.000
      P    25      Pz                   0.656     0.656     0.000
      P    26      S                    0.865     0.865    -0.000
      P    26      Px                   0.659     0.659    -0.000
      P    26      Py                   0.658     0.659    -0.000
      P    26      Pz                   0.657     0.657     0.000
      P    27      S                    0.868     0.869    -0.000
      P    27      Px                   0.657     0.658    -0.001
      P    27      Py                   0.657     0.657    -0.001
      P    27      Pz                   0.650     0.651    -0.001
      P    28      S                    0.867     0.867    -0.000
      P    28      Px                   0.658     0.658    -0.000
      P    28      Py                   0.657     0.657     0.000
      P    28      Pz                   0.655     0.655    -0.000
      P    29      S                    0.866     0.866    -0.000
      P    29      Px                   0.658     0.658     0.000
      P    29      Py                   0.658     0.658    -0.000
      P    29      Pz                   0.655     0.655     0.000
      P    30      S                    0.868     0.868    -0.000
      P    30      Px                   0.657     0.657    -0.000
      P    30      Py                   0.657     0.657    -0.000
      P    30      Pz                   0.656     0.656    -0.000
      P    31      S                    0.867     0.867    -0.000
      P    31      Px                   0.658     0.658    -0.000
      P    31      Py                   0.655     0.656    -0.000
      P    31      Pz                   0.656     0.656    -0.000
      P    32      S                    0.867     0.867    -0.000
      P    32      Px                   0.655     0.655    -0.000
      P    32      Py                   0.658     0.658     0.000
      P    32      Pz                   0.657     0.657     0.000
      P    33      S                    0.879     0.878     0.001
      P    33      Px                   0.698     0.626     0.072
      P    33      Py                   0.703     0.689     0.014
      P    33      Pz                   0.515     0.528    -0.013
     In     1      Dzz                  1.000     1.000     0.000
     In     1      Dzy                  0.998     0.998    -0.000
     In     1      Dzx                  0.999     0.999     0.000
     In     1      Dxx-yy               1.000     1.000     0.000
     In     1      Dxy                  0.999     0.999     0.000
     In     1      S                    0.706     0.707    -0.001
     In     1      Px                   0.233     0.233    -0.000
     In     1      Py                   0.238     0.238    -0.000
     In     1      Pz                   0.241     0.242    -0.001
     In     1      S                   -0.260    -0.254    -0.006
     In     2      Dzz                  0.999     0.999     0.000
     In     2      Dzy                  0.999     0.999     0.000
     In     2      Dzx                  0.999     0.998     0.000
     In     2      Dxx-yy               1.000     0.999     0.000
     In     2      Dxy                  0.998     0.998     0.000
     In     2      S                    0.685     0.690    -0.006
     In     2      Px                   0.234     0.245    -0.011
     In     2      Py                   0.239     0.247    -0.008
     In     2      Pz                   0.219     0.222    -0.002
     In     2      S                   -0.256    -0.258     0.002
     In     3      Dzz                  1.000     1.000     0.000
     In     3      Dzy                  0.998     0.998     0.000
     In     3      Dzx                  0.998     0.998     0.000
     In     3      Dxx-yy               1.000     1.000     0.000
     In     3      Dxy                  0.999     0.999     0.000
     In     3      S                    0.711     0.711     0.000
     In     3      Px                   0.239     0.239    -0.000
     In     3      Py                   0.240     0.240    -0.000
     In     3      Pz                   0.242     0.241     0.000
     In     3      S                   -0.266    -0.272     0.006
     In     4      Dzz                  0.999     0.999     0.000
     In     4      Dzy                  0.998     0.998     0.000
     In     4      Dzx                  0.998     0.999    -0.000
     In     4      Dxx-yy               0.999     0.999     0.000
     In     4      Dxy                  0.998     0.998     0.000
     In     4      S                    0.719     0.703     0.016
     In     4      Px                   0.250     0.249     0.001
     In     4      Py                   0.256     0.242     0.014
     In     4      Pz                   0.235     0.229     0.005
     In     4      S                   -0.270    -0.266    -0.004
     In     5      Dzz                  1.000     1.000     0.000
     In     5      Dzy                  0.998     0.998     0.000
     In     5      Dzx                  0.998     0.998    -0.000
     In     5      Dxx-yy               1.000     1.000     0.000
     In     5      Dxy                  0.998     0.998     0.000
     In     5      S                    0.711     0.708     0.004
     In     5      Px                   0.239     0.238     0.001
     In     5      Py                   0.250     0.246     0.004
     In     5      Pz                   0.241     0.239     0.001
     In     5      S                   -0.268    -0.266    -0.002
     In     6      Dzz                  1.000     1.000     0.000
     In     6      Dzy                  0.999     0.999     0.000
     In     6      Dzx                  0.999     0.999     0.000
     In     6      Dxx-yy               1.000     1.000     0.000
     In     6      Dxy                  0.998     0.998     0.000
     In     6      S                    0.707     0.708    -0.001
     In     6      Px                   0.241     0.242    -0.000
     In     6      Py                   0.242     0.242    -0.001
     In     6      Pz                   0.232     0.232    -0.001
     In     6      S                   -0.260    -0.259    -0.001
     In     7      Dzz                  0.999     0.999     0.000
     In     7      Dzy                  0.998     0.998     0.000
     In     7      Dzx                  0.998     0.998    -0.000
     In     7      Dxx-yy               0.999     0.999     0.000
     In     7      Dxy                  0.998     0.998     0.000
     In     7      S                    0.712     0.712     0.001
     In     7      Px                   0.242     0.241     0.001
     In     7      Py                   0.252     0.248     0.004
     In     7      Pz                   0.239     0.239     0.000
     In     7      S                   -0.271    -0.270    -0.000
     In     8      Dzz                  1.000     1.000     0.000
     In     8      Dzy                  0.999     0.999     0.000
     In     8      Dzx                  0.999     0.999     0.000
     In     8      Dxx-yy               1.000     1.000     0.000
     In     8      Dxy                  0.998     0.998     0.000
     In     8      S                    0.709     0.710    -0.001
     In     8      Px                   0.241     0.242    -0.001
     In     8      Py                   0.239     0.240    -0.001
     In     8      Pz                   0.232     0.234    -0.002
     In     8      S                   -0.263    -0.265     0.001
     In     9      Dzz                  1.000     1.000    -0.000
     In     9      Dzy                  0.998     0.998     0.000
     In     9      Dzx                  0.998     0.998     0.000
     In     9      Dxx-yy               1.000     1.000    -0.000
     In     9      Dxy                  0.998     0.998     0.000
     In     9      S                    0.707     0.707     0.000
     In     9      Px                   0.240     0.240    -0.000
     In     9      Py                   0.240     0.240    -0.000
     In     9      Pz                   0.241     0.241     0.000
     In     9      S                   -0.264    -0.265     0.001
     In    10      Dzz                  1.000     1.000     0.000
     In    10      Dzy                  0.998     0.998     0.000
     In    10      Dzx                  0.998     0.998    -0.000
     In    10      Dxx-yy               1.000     1.000     0.000
     In    10      Dxy                  0.999     0.999     0.000
     In    10      S                    0.711     0.711     0.000
     In    10      Px                   0.240     0.240     0.000
     In    10      Py                   0.238     0.238    -0.000
     In    10      Pz                   0.241     0.241     0.001
     In    10      S                   -0.267    -0.271     0.004
     In    11      Dzz                  1.000     1.000     0.000
     In    11      Dzy                  0.998     0.998    -0.000
     In    11      Dzx                  0.998     0.998    -0.000
     In    11      Dxx-yy               1.000     1.000     0.000
     In    11      Dxy                  0.998     0.998     0.000
     In    11      S                    0.717     0.717    -0.000
     In    11      Px                   0.242     0.242     0.000
     In    11      Py                   0.242     0.242    -0.000
     In    11      Pz                   0.248     0.248     0.000
     In    11      S                   -0.263    -0.262    -0.001
     In    12      Dzz                  1.000     1.000     0.000
     In    12      Dzy                  0.999     0.999     0.000
     In    12      Dzx                  0.998     0.998     0.000
     In    12      Dxx-yy               1.000     1.000    -0.000
     In    12      Dxy                  0.999     0.999     0.000
     In    12      S                    0.707     0.707    -0.001
     In    12      Px                   0.238     0.239    -0.000
     In    12      Py                   0.233     0.233    -0.000
     In    12      Pz                   0.242     0.242    -0.001
     In    12      S                   -0.257    -0.256    -0.001
     In    13      Dzz                  1.000     1.000    -0.000
     In    13      Dzy                  0.998     0.998     0.000
     In    13      Dzx                  0.998     0.998     0.000
     In    13      Dxx-yy               1.000     1.000    -0.000
     In    13      Dxy                  0.998     0.998    -0.000
     In    13      S                    0.706     0.706    -0.000
     In    13      Px                   0.242     0.242     0.000
     In    13      Py                   0.240     0.241    -0.000
     In    13      Pz                   0.243     0.243     0.000
     In    13      S                   -0.265    -0.266     0.001
     In    14      Dzz                  1.000     1.000     0.000
     In    14      Dzy                  0.998     0.998    -0.000
     In    14      Dzx                  0.998     0.998     0.000
     In    14      Dxx-yy               1.000     1.000     0.000
     In    14      Dxy                  0.998     0.998     0.000
     In    14      S                    0.708     0.708    -0.000
     In    14      Px                   0.248     0.247     0.000
     In    14      Py                   0.239     0.239    -0.000
     In    14      Pz                   0.240     0.240    -0.000
     In    14      S                   -0.264    -0.266     0.002
     In    15      Dzz                  1.000     1.000    -0.000
     In    15      Dzy                  0.998     0.998     0.000
     In    15      Dzx                  0.998     0.998     0.000
     In    15      Dxx-yy               1.000     1.000     0.000
     In    15      Dxy                  0.999     0.999     0.000
     In    15      S                    0.706     0.706    -0.000
     In    15      Px                   0.241     0.241    -0.000
     In    15      Py                   0.241     0.241    -0.000
     In    15      Pz                   0.242     0.242    -0.000
     In    15      S                   -0.265    -0.266     0.000
     In    16      Dzz                  0.999     0.999     0.000
     In    16      Dzy                  0.998     0.998    -0.000
     In    16      Dzx                  0.998     0.998    -0.000
     In    16      Dxx-yy               1.000     1.000    -0.000
     In    16      Dxy                  0.998     0.998     0.000
     In    16      S                    0.712     0.710     0.002
     In    16      Px                   0.251     0.250     0.001
     In    16      Py                   0.239     0.238     0.001
     In    16      Pz                   0.241     0.240     0.001
     In    16      S                   -0.270    -0.267    -0.003
     In    17      Dzz                  0.999     0.999     0.000
     In    17      Dzy                  0.999     0.999    -0.000
     In    17      Dzx                  0.998     0.998     0.000
     In    17      Dxx-yy               0.999     0.999     0.000
     In    17      Dxy                  0.998     0.998     0.000
     In    17      S                    0.712     0.693     0.020
     In    17      Px                   0.257     0.239     0.018
     In    17      Py                   0.251     0.244     0.007
     In    17      Pz                   0.225     0.231    -0.007
     In    17      S                   -0.264    -0.261    -0.003
     In    18      Dzz                  1.000     1.000    -0.000
     In    18      Dzy                  0.998     0.999    -0.000
     In    18      Dzx                  0.999     0.999     0.000
     In    18      Dxx-yy               1.000     1.000     0.000
     In    18      Dxy                  0.999     0.999     0.000
     In    18      S                    0.710     0.709     0.001
     In    18      Px                   0.237     0.238    -0.001
     In    18      Py                   0.240     0.240    -0.000
     In    18      Pz                   0.240     0.240    -0.000
     In    18      S                   -0.263    -0.265     0.002
     In    19      Dzz                  0.999     0.999     0.000
     In    19      Dzy                  0.998     0.998     0.000
     In    19      Dzx                  0.998     0.998     0.000
     In    19      Dxx-yy               0.999     0.999     0.000
     In    19      Dxy                  0.998     0.998     0.000
     In    19      S                    0.712     0.720    -0.008
     In    19      Px                   0.243     0.254    -0.011
     In    19      Py                   0.240     0.252    -0.013
     In    19      Pz                   0.242     0.246    -0.004
     In    19      S                   -0.268    -0.273     0.005
     In    20      Dzz                  1.000     1.000     0.000
     In    20      Dzy                  0.998     0.998     0.000
     In    20      Dzx                  0.998     0.998     0.000
     In    20      Dxx-yy               1.000     1.000    -0.000
     In    20      Dxy                  0.998     0.998     0.000
     In    20      S                    0.714     0.714    -0.001
     In    20      Px                   0.240     0.240     0.000
     In    20      Py                   0.240     0.240    -0.000
     In    20      Pz                   0.240     0.240    -0.000
     In    20      S                   -0.265    -0.265     0.000
     In    21      Dzz                  1.000     1.000     0.000
     In    21      Dzy                  0.999     0.999     0.000
     In    21      Dzx                  0.999     0.999     0.000
     In    21      Dxx-yy               1.000     1.000     0.000
     In    21      Dxy                  0.998     0.998     0.000
     In    21      S                    0.708     0.707     0.001
     In    21      Px                   0.239     0.240    -0.001
     In    21      Py                   0.242     0.242    -0.000
     In    21      Pz                   0.230     0.232    -0.002
     In    21      S                   -0.253    -0.266     0.012
     In    22      Dzz                  1.000     1.000     0.000
     In    22      Dzy                  0.998     0.998     0.000
     In    22      Dzx                  0.998     0.998     0.000
     In    22      Dxx-yy               1.000     1.000     0.000
     In    22      Dxy                  0.998     0.998     0.000
     In    22      S                    0.709     0.708     0.000
     In    22      Px                   0.239     0.239    -0.000
     In    22      Py                   0.247     0.245     0.002
     In    22      Pz                   0.240     0.240     0.000
     In    22      S                   -0.266    -0.265    -0.001
     In    23      Dzz                  1.000     1.000    -0.000
     In    23      Dzy                  0.998     0.998     0.000
     In    23      Dzx                  0.998     0.998     0.000
     In    23      Dxx-yy               1.000     1.000     0.000
     In    23      Dxy                  0.998     0.998    -0.000
     In    23      S                    0.710     0.710    -0.000
     In    23      Px                   0.240     0.240    -0.000
     In    23      Py                   0.239     0.240    -0.000
     In    23      Pz                   0.237     0.237    -0.000
     In    23      S                   -0.275    -0.273    -0.002
     In    24      Dzz                  0.999     0.999     0.000
     In    24      Dzy                  0.998     0.998     0.000
     In    24      Dzx                  0.998     0.998    -0.000
     In    24      Dxx-yy               1.000     1.000    -0.000
     In    24      Dxy                  0.998     0.998     0.000
     In    24      S                    0.714     0.708     0.005
     In    24      Px                   0.239     0.237     0.003
     In    24      Py                   0.252     0.248     0.005
     In    24      Pz                   0.242     0.240     0.002
     In    24      S                   -0.268    -0.262    -0.005
     In    25      Dzz                  1.000     1.000     0.000
     In    25      Dzy                  0.998     0.998     0.000
     In    25      Dzx                  0.998     0.998     0.000
     In    25      Dxx-yy               1.000     1.000     0.000
     In    25      Dxy                  0.998     0.998     0.000
     In    25      S                    0.714     0.713     0.000
     In    25      Px                   0.241     0.241     0.000
     In    25      Py                   0.239     0.239     0.000
     In    25      Pz                   0.240     0.241    -0.000
     In    25      S                   -0.266    -0.266    -0.001
     In    26      Dzz                  1.000     1.000    -0.000
     In    26      Dzy                  0.998     0.998     0.000
     In    26      Dzx                  0.998     0.998    -0.000
     In    26      Dxx-yy               1.000     1.000     0.000
     In    26      Dxy                  0.998     0.998     0.000
     In    26      S                    0.705     0.706    -0.000
     In    26      Px                   0.240     0.240    -0.000
     In    26      Py                   0.240     0.240    -0.000
     In    26      Pz                   0.246     0.246    -0.000
     In    26      S                   -0.261    -0.260    -0.001
     In    27      Dzz                  1.000     1.000    -0.000
     In    27      Dzy                  0.998     0.998    -0.000
     In    27      Dzx                  0.998     0.998     0.000
     In    27      Dxx-yy               1.000     1.000     0.000
     In    27      Dxy                  0.999     0.999    -0.000
     In    27      S                    0.710     0.709     0.001
     In    27      Px                   0.240     0.240    -0.000
     In    27      Py                   0.237     0.237    -0.001
     In    27      Pz                   0.242     0.242    -0.000
     In    27      S                   -0.263    -0.269     0.006
     In    28      Dzz                  1.000     1.000     0.000
     In    28      Dzy                  0.998     0.998    -0.000
     In    28      Dzx                  0.998     0.998     0.000
     In    28      Dxx-yy               1.000     1.000    -0.000
     In    28      Dxy                  0.998     0.998     0.000
     In    28      S                    0.710     0.708     0.001
     In    28      Px                   0.241     0.241     0.000
     In    28      Py                   0.241     0.241     0.000
     In    28      Pz                   0.241     0.241    -0.000
     In    28      S                   -0.265    -0.265    -0.000
     In    29      Dzz                  1.000     1.000     0.000
     In    29      Dzy                  0.998     0.998    -0.000
     In    29      Dzx                  0.998     0.998     0.000
     In    29      Dxx-yy               1.000     1.000     0.000
     In    29      Dxy                  0.998     0.998     0.000
     In    29      S                    0.712     0.708     0.005
     In    29      Px                   0.252     0.247     0.005
     In    29      Py                   0.238     0.237     0.001
     In    29      Pz                   0.242     0.240     0.002
     In    29      S                   -0.266    -0.264    -0.003
     In    30      Dzz                  1.000     1.000     0.000
     In    30      Dzy                  0.998     0.998     0.000
     In    30      Dzx                  0.998     0.998     0.000
     In    30      Dxx-yy               1.000     1.000     0.000
     In    30      Dxy                  0.998     0.998     0.000
     In    30      S                    0.707     0.707    -0.000
     In    30      Px                   0.241     0.241    -0.000
     In    30      Py                   0.241     0.241    -0.000
     In    30      Pz                   0.243     0.243    -0.000
     In    30      S                   -0.265    -0.265     0.000
     In    31      Dzz                  0.999     0.999     0.000
     In    31      Dzy                  0.998     0.998     0.000
     In    31      Dzx                  0.998     0.998     0.000
     In    31      Dxx-yy               0.999     0.999     0.000
     In    31      Dxy                  0.998     0.998     0.000
     In    31      S                    0.713     0.713     0.000
     In    31      Px                   0.253     0.249     0.004
     In    31      Py                   0.241     0.241    -0.000
     In    31      Pz                   0.239     0.239     0.000
     In    31      S                   -0.273    -0.271    -0.002
     In    32      Dzz                  1.000     1.000     0.000
     In    32      Dzy                  0.998     0.998     0.000
     In    32      Dzx                  0.998     0.998     0.000
     In    32      Dxx-yy               1.000     1.000    -0.000
     In    32      Dxy                  0.998     0.998    -0.000
     In    32      S                    0.705     0.705    -0.000
     In    32      Px                   0.240     0.240    -0.000
     In    32      Py                   0.242     0.242    -0.000
     In    32      Pz                   0.243     0.243     0.000
     In    32      S                   -0.266    -0.264    -0.002
  ---------------------------------------------------------------
                           Total:     290.998   290.001     0.997
  ---------------------------------------------------------------

     Atomic Populations (Mulliken)
     -----------------------------
Species          Ion Spin      s       p       d       f      Total   Charge(e)   Spin(hbar/2)
==============================================================================================
  P               1   up:     0.868   1.978   0.000   0.000   2.846    -0.670        0.022
                  1   dn:     0.866   1.958   0.000   0.000   2.824
  P               2   up:     0.885   2.162   0.000   0.000   3.047    -0.399        0.695
                  2   dn:     0.858   1.494   0.000   0.000   2.352
  P               3   up:     0.868   1.968   0.000   0.000   2.836    -0.672        0.001
                  3   dn:     0.868   1.967   0.000   0.000   2.835
  P               4   up:     0.868   1.978   0.000   0.000   2.846    -0.667        0.025
                  4   dn:     0.864   1.957   0.000   0.000   2.821
  P               5   up:     0.868   1.978   0.000   0.000   2.846    -0.659        0.032
                  5   dn:     0.864   1.949   0.000   0.000   2.813
  P               6   up:     0.867   1.971   0.000   0.000   2.838    -0.676       -0.000
                  6   dn:     0.867   1.971   0.000   0.000   2.838
  P               7   up:     0.867   1.970   0.000   0.000   2.837    -0.673       -0.000
                  7   dn:     0.867   1.970   0.000   0.000   2.837
  P               8   up:     0.866   1.972   0.000   0.000   2.839    -0.676        0.001
                  8   dn:     0.867   1.971   0.000   0.000   2.838
  P               9   up:     0.867   1.971   0.000   0.000   2.837    -0.674        0.000
                  9   dn:     0.867   1.970   0.000   0.000   2.837
  P              10   up:     0.867   1.972   0.000   0.000   2.839    -0.678       -0.000
                 10   dn:     0.867   1.973   0.000   0.000   2.839
  P              11   up:     0.871   1.946   0.000   0.000   2.817    -0.634       -0.000
                 11   dn:     0.871   1.946   0.000   0.000   2.817
  P              12   up:     0.867   1.962   0.000   0.000   2.830    -0.660       -0.001
                 12   dn:     0.867   1.963   0.000   0.000   2.830
  P              13   up:     0.867   1.970   0.000   0.000   2.837    -0.674       -0.000
                 13   dn:     0.867   1.970   0.000   0.000   2.837
  P              14   up:     0.863   1.983   0.000   0.000   2.846    -0.681        0.012
                 14   dn:     0.862   1.973   0.000   0.000   2.835
  P              15   up:     0.866   1.970   0.000   0.000   2.837    -0.674       -0.000
                 15   dn:     0.867   1.971   0.000   0.000   2.837
  P              16   up:     0.868   1.981   0.000   0.000   2.849    -0.656        0.042
                 16   dn:     0.865   1.943   0.000   0.000   2.807
  P              17   up:     0.868   1.969   0.000   0.000   2.836    -0.661        0.012
                 17   dn:     0.865   1.959   0.000   0.000   2.825
  P              18   up:     0.867   1.972   0.000   0.000   2.839    -0.678       -0.000
                 18   dn:     0.867   1.972   0.000   0.000   2.839
  P              19   up:     0.868   1.969   0.000   0.000   2.837    -0.674       -0.000
                 19   dn:     0.868   1.969   0.000   0.000   2.837
  P              20   up:     0.867   1.971   0.000   0.000   2.838    -0.674        0.001
                 20   dn:     0.867   1.970   0.000   0.000   2.837
  P              21   up:     0.868   1.976   0.000   0.000   2.843    -0.676        0.011
                 21   dn:     0.867   1.966   0.000   0.000   2.832
  P              22   up:     0.863   1.985   0.000   0.000   2.848    -0.681        0.015
                 22   dn:     0.862   1.971   0.000   0.000   2.833
  P              23   up:     0.866   1.971   0.000   0.000   2.838    -0.675        0.000
                 23   dn:     0.866   1.971   0.000   0.000   2.837
  P              24   up:     0.867   1.971   0.000   0.000   2.837    -0.675       -0.000
                 24   dn:     0.867   1.971   0.000   0.000   2.837
  P              25   up:     0.867   1.971   0.000   0.000   2.837    -0.674        0.001
                 25   dn:     0.867   1.970   0.000   0.000   2.837
  P              26   up:     0.865   1.974   0.000   0.000   2.839    -0.678       -0.000
                 26   dn:     0.865   1.974   0.000   0.000   2.839
  P              27   up:     0.868   1.963   0.000   0.000   2.832    -0.666       -0.003
                 27   dn:     0.869   1.966   0.000   0.000   2.835
  P              28   up:     0.867   1.970   0.000   0.000   2.837    -0.674        0.000
                 28   dn:     0.867   1.970   0.000   0.000   2.837
  P              29   up:     0.866   1.971   0.000   0.000   2.838    -0.675        0.000
                 29   dn:     0.866   1.971   0.000   0.000   2.837
  P              30   up:     0.868   1.969   0.000   0.000   2.837    -0.674       -0.000
                 30   dn:     0.868   1.969   0.000   0.000   2.837
  P              31   up:     0.867   1.969   0.000   0.000   2.836    -0.673       -0.001
                 31   dn:     0.867   1.970   0.000   0.000   2.837
  P              32   up:     0.867   1.970   0.000   0.000   2.837    -0.674        0.000
                 32   dn:     0.867   1.970   0.000   0.000   2.837
  P              33   up:     0.879   1.916   0.000   0.000   2.795    -0.515        0.075
                 33   dn:     0.878   1.842   0.000   0.000   2.720
  In              1   up:     0.447   0.713   4.995   0.000   6.154     0.684       -0.008
                  1   dn:     0.453   0.714   4.995   0.000   6.162
  In              2   up:     0.429   0.693   4.994   0.000   6.116     0.744       -0.024
                  2   dn:     0.432   0.714   4.994   0.000   6.140
  In              3   up:     0.445   0.720   4.995   0.000   6.159     0.687        0.006
                  3   dn:     0.439   0.720   4.995   0.000   6.154
  In              4   up:     0.449   0.740   4.993   0.000   6.183     0.668        0.033
                  4   dn:     0.437   0.720   4.993   0.000   6.150
  In              5   up:     0.443   0.730   4.994   0.000   6.167     0.674        0.007
                  5   dn:     0.442   0.724   4.994   0.000   6.159
  In              6   up:     0.447   0.715   4.995   0.000   6.156     0.685       -0.003
                  6   dn:     0.448   0.716   4.995   0.000   6.159
  In              7   up:     0.442   0.733   4.994   0.000   6.169     0.668        0.005
                  7   dn:     0.441   0.728   4.994   0.000   6.164
  In              8   up:     0.445   0.712   4.995   0.000   6.152     0.692       -0.003
                  8   dn:     0.445   0.716   4.995   0.000   6.155
  In              9   up:     0.443   0.722   4.995   0.000   6.159     0.682        0.001
                  9   dn:     0.442   0.722   4.995   0.000   6.159
  In             10   up:     0.445   0.719   4.995   0.000   6.159     0.687        0.005
                 10   dn:     0.440   0.719   4.995   0.000   6.154
  In             11   up:     0.454   0.733   4.994   0.000   6.181     0.638       -0.001
                 11   dn:     0.455   0.733   4.994   0.000   6.182
  In             12   up:     0.449   0.713   4.995   0.000   6.157     0.683       -0.003
                 12   dn:     0.451   0.714   4.995   0.000   6.160
  In             13   up:     0.441   0.725   4.994   0.000   6.161     0.680        0.001
                 13   dn:     0.440   0.725   4.994   0.000   6.160
  In             14   up:     0.444   0.726   4.994   0.000   6.164     0.672        0.001
                 14   dn:     0.442   0.726   4.994   0.000   6.163
  In             15   up:     0.440   0.724   4.995   0.000   6.159     0.682        0.000
                 15   dn:     0.440   0.724   4.995   0.000   6.159
  In             16   up:     0.442   0.731   4.994   0.000   6.168     0.667        0.002
                 16   dn:     0.443   0.728   4.994   0.000   6.165
  In             17   up:     0.448   0.732   4.994   0.000   6.174     0.687        0.036
                 17   dn:     0.431   0.714   4.993   0.000   6.138
  In             18   up:     0.446   0.717   4.995   0.000   6.158     0.685        0.001
                 18   dn:     0.444   0.718   4.995   0.000   6.157
  In             19   up:     0.444   0.725   4.993   0.000   6.162     0.646       -0.030
                 19   dn:     0.447   0.753   4.992   0.000   6.192
  In             20   up:     0.448   0.720   4.995   0.000   6.163     0.673       -0.001
                 20   dn:     0.449   0.720   4.995   0.000   6.164
  In             21   up:     0.454   0.711   4.995   0.000   6.161     0.689        0.010
                 21   dn:     0.442   0.714   4.995   0.000   6.151
  In             22   up:     0.443   0.726   4.994   0.000   6.163     0.675        0.001
                 22   dn:     0.443   0.725   4.994   0.000   6.162
  In             23   up:     0.435   0.716   4.995   0.000   6.146     0.705       -0.003
                 23   dn:     0.438   0.717   4.995   0.000   6.149
  In             24   up:     0.446   0.734   4.994   0.000   6.174     0.662        0.010
                 24   dn:     0.446   0.724   4.994   0.000   6.164
  In             25   up:     0.447   0.721   4.995   0.000   6.163     0.674       -0.000
                 25   dn:     0.448   0.721   4.995   0.000   6.163
  In             26   up:     0.444   0.725   4.994   0.000   6.163     0.671       -0.002
                 26   dn:     0.446   0.725   4.994   0.000   6.165
  In             27   up:     0.446   0.719   4.995   0.000   6.160     0.686        0.006
                 27   dn:     0.440   0.719   4.995   0.000   6.154
  In             28   up:     0.444   0.723   4.995   0.000   6.162     0.678        0.002
                 28   dn:     0.443   0.723   4.995   0.000   6.160
  In             29   up:     0.446   0.731   4.994   0.000   6.171     0.667        0.009
                 29   dn:     0.444   0.723   4.994   0.000   6.162
  In             30   up:     0.442   0.724   4.995   0.000   6.160     0.679       -0.000
                 30   dn:     0.442   0.724   4.995   0.000   6.161
  In             31   up:     0.440   0.733   4.994   0.000   6.167     0.668        0.002
                 31   dn:     0.442   0.729   4.994   0.000   6.165
  In             32   up:     0.439   0.725   4.995   0.000   6.159     0.681       -0.002
                 32   dn:     0.441   0.725   4.995   0.000   6.161
==============================================================================================

                 Bond                   Population        Spin       Length (A)
================================================================================
              P 2  -- P 33                   0.52        -0.09          2.09027
              P 2  -- In 19                  0.73        -0.02          2.46248
              P 33 -- In 4                   0.72         0.04          2.49404
              P 19 -- In 19                  0.68         0.00          2.50813
              P 33 -- In 17                  0.70         0.05          2.51218
              P 5  -- In 7                   0.67         0.00          2.51242
              P 16 -- In 31                  0.66         0.00          2.51377
              P 8  -- In 4                   0.65        -0.00          2.51634
              P 17 -- In 24                  0.66        -0.00          2.51635
              P 22 -- In 24                  0.67        -0.00          2.51668
              P 14 -- In 29                  0.68        -0.00          2.51728
              P 22 -- In 7                   0.67        -0.00          2.51977
              P 14 -- In 31                  0.66        -0.00          2.52090
              P 4  -- In 29                  0.64        -0.00          2.52194
              P 14 -- In 16                  0.67         0.00          2.52216
              P 21 -- In 17                  0.66        -0.01          2.52489
              P 1  -- In 2                   0.65         0.00          2.52510
              P 22 -- In 5                   0.67        -0.00          2.52739
              P 14 -- In 14                  0.67        -0.00          2.52870
              P 12 -- In 16                  0.64         0.00          2.52900
              P 26 -- In 26                  0.68        -0.00          2.53082
              P 2  -- In 2                   0.62        -0.02          2.53170
              P 26 -- In 11                  0.64        -0.00          2.53236
              P 4  -- In 19                  0.61         0.00          2.53257
              P 22 -- In 22                  0.67        -0.00          2.53287
              P 12 -- In 2                   0.62         0.01          2.53428
              P 1  -- In 5                   0.63        -0.00          2.53594
              P 8  -- In 14                  0.63         0.00          2.54164
              P 10 -- In 25                  0.66         0.00          2.54164
              P 11 -- In 11                  0.59         0.00          2.54174
              P 18 -- In 20                  0.66         0.00          2.54211
              P 3  -- In 4                   0.66        -0.00          2.54310
              P 9  -- In 13                  0.67         0.00          2.54411
              P 31 -- In 32                  0.68        -0.00          2.54493
              P 28 -- In 32                  0.67         0.00          2.54499
              P 31 -- In 31                  0.65         0.00          2.54520
              P 16 -- In 17                  0.60        -0.02          2.54522
              P 7  -- In 13                  0.67         0.00          2.54529
              P 21 -- In 22                  0.63         0.00          2.54551
              P 26 -- In 9                   0.67         0.00          2.54584
              P 7  -- In 7                   0.65        -0.00          2.54604
              P 4  -- In 10                  0.67        -0.00          2.54613
              P 11 -- In 2                   0.68         0.00          2.54617
              P 9  -- In 16                  0.66        -0.00          2.54620
              P 29 -- In 30                  0.67        -0.00          2.54637
              P 15 -- In 15                  0.66         0.00          2.54637
              P 12 -- In 27                  0.68        -0.00          2.54648
              P 1  -- In 3                   0.67        -0.01          2.54656
              P 23 -- In 30                  0.66         0.00          2.54679
              P 26 -- In 28                  0.67         0.00          2.54713
              P 29 -- In 25                  0.66         0.00          2.54713
              P 24 -- In 30                  0.67        -0.00          2.54719
              P 25 -- In 26                  0.66         0.00          2.54724
              P 25 -- In 29                  0.66        -0.00          2.54762
              P 18 -- In 3                   0.65        -0.00          2.54765
              P 28 -- In 5                   0.66        -0.00          2.54765
              P 13 -- In 14                  0.67        -0.00          2.54773
              P 5  -- In 4                   0.58        -0.02          2.54788
              P 6  -- In 8                   0.66         0.00          2.54812
              P 20 -- In 13                  0.66         0.00          2.54825
              P 20 -- In 26                  0.66         0.00          2.54827
              P 13 -- In 9                   0.67        -0.00          2.54848
              P 29 -- In 31                  0.66         0.00          2.54876
              P 7  -- In 14                  0.67        -0.00          2.54877
              P 23 -- In 23                  0.67         0.00          2.54889
              P 32 -- In 22                  0.67         0.00          2.54911
              P 31 -- In 22                  0.67        -0.00          2.54918
              P 25 -- In 32                  0.66         0.00          2.54928
              P 24 -- In 20                  0.66         0.00          2.54941
              P 17 -- In 18                  0.68        -0.00          2.54961
              P 27 -- In 17                  0.66         0.00          2.54971
              P 20 -- In 24                  0.65        -0.00          2.54973
              P 16 -- In 12                  0.68         0.00          2.54981
              P 23 -- In 29                  0.66         0.00          2.54989
              P 24 -- In 7                   0.66         0.00          2.54994
              P 32 -- In 28                  0.66         0.00          2.55057
              P 5  -- In 1                   0.68         0.00          2.55063
              P 6  -- In 21                  0.65         0.00          2.55089
              P 15 -- In 6                   0.66         0.00          2.55114
              P 32 -- In 15                  0.67        -0.00          2.55125
              P 10 -- In 27                  0.65         0.00          2.55137
              P 15 -- In 5                   0.67         0.00          2.55154
              P 10 -- In 10                  0.66        -0.00          2.55155
              P 15 -- In 16                  0.66        -0.00          2.55157
              P 8  -- In 25                  0.65         0.00          2.55221
              P 23 -- In 24                  0.65        -0.00          2.55232
              P 13 -- In 15                  0.67        -0.00          2.55283
              P 1  -- In 8                   0.66         0.00          2.55309
              P 21 -- In 20                  0.65         0.00          2.55322
              P 10 -- In 12                  0.65         0.00          2.55377
              P 30 -- In 15                  0.66        -0.00          2.55411
              P 5  -- In 6                   0.66        -0.00          2.55445
              P 19 -- In 26                  0.62        -0.00          2.55447
              P 30 -- In 30                  0.66        -0.00          2.55451
              P 6  -- In 23                  0.66        -0.00          2.55455
              P 21 -- In 23                  0.68        -0.00          2.55459
              P 18 -- In 1                   0.64        -0.00          2.55517
              P 8  -- In 23                  0.69        -0.00          2.55548
              P 28 -- In 11                  0.65         0.00          2.55553
              P 18 -- In 18                  0.65         0.00          2.55582
              P 9  -- In 10                  0.66         0.00          2.55592
              P 9  -- In 11                  0.65         0.00          2.55605
              P 24 -- In 9                   0.66        -0.00          2.55613
              P 4  -- In 8                   0.67         0.00          2.55639
              P 17 -- In 19                  0.57         0.00          2.55648
              P 16 -- In 6                   0.65        -0.00          2.55667
              P 27 -- In 28                  0.64        -0.00          2.55672
              P 30 -- In 13                  0.66        -0.00          2.55698
              P 30 -- In 32                  0.66         0.00          2.55701
              P 29 -- In 28                  0.65        -0.00          2.55724
              P 17 -- In 21                  0.66        -0.00          2.55740
              P 20 -- In 3                   0.66        -0.00          2.55807
              P 12 -- In 21                  0.64        -0.00          2.55816
              P 27 -- In 27                  0.66        -0.00          2.55868
              P 3  -- In 3                   0.66         0.00          2.55904
              P 19 -- In 25                  0.65        -0.00          2.56005
              P 3  -- In 9                   0.64         0.00          2.56040
              P 25 -- In 27                  0.66         0.00          2.56061
              P 6  -- In 6                   0.65        -0.00          2.56077
              P 3  -- In 10                  0.65         0.00          2.56097
              P 28 -- In 18                  0.65         0.00          2.56149
              P 13 -- In 12                  0.64         0.00          2.56205
              P 19 -- In 20                  0.65        -0.00          2.56279
              P 11 -- In 12                  0.66        -0.00          2.56344
              P 32 -- In 1                   0.64         0.00          2.56384
              P 11 -- In 1                   0.65         0.00          2.56462
              P 27 -- In 18                  0.65         0.00          2.56550
              P 31 -- In 21                  0.64         0.00          2.56940
              P 7  -- In 8                   0.64         0.00          2.56965
================================================================================

 Hirshfeld supercell size:           2           2           2
Standard grid dimensions: 240 240 240
Fine grid dimensions:     240 240 240


     Hirshfeld Analysis
     ------------------
Species   Ion     Hirshfeld Charge (e)  Spin (hbar/2)
===================================================
  P        1                -0.23        0.02
  P        2                -0.13        0.51
  P        3                -0.23        0.00
  P        4                -0.24        0.03
  P        5                -0.24        0.03
  P        6                -0.23       -0.00
  P        7                -0.24        0.00
  P        8                -0.24        0.00
  P        9                -0.24        0.00
  P       10                -0.24       -0.00
  P       11                -0.23       -0.00
  P       12                -0.24        0.00
  P       13                -0.24        0.00
  P       14                -0.24        0.01
  P       15                -0.24        0.00
  P       16                -0.23        0.03
  P       17                -0.24        0.02
  P       18                -0.24       -0.00
  P       19                -0.23       -0.00
  P       20                -0.24        0.00
  P       21                -0.24        0.01
  P       22                -0.24        0.01
  P       23                -0.24        0.00
  P       24                -0.24        0.00
  P       25                -0.24        0.00
  P       26                -0.24       -0.00
  P       27                -0.23        0.00
  P       28                -0.24        0.00
  P       29                -0.24        0.00
  P       30                -0.24       -0.00
  P       31                -0.24       -0.00
  P       32                -0.24        0.00
  P       33                -0.20        0.11
  In       1                 0.25        0.00
  In       2                 0.25        0.02
  In       3                 0.25        0.00
  In       4                 0.23        0.04
  In       5                 0.24        0.01
  In       6                 0.25        0.00
  In       7                 0.23        0.01
  In       8                 0.25        0.00
  In       9                 0.24        0.00
  In      10                 0.24        0.00
  In      11                 0.23        0.00
  In      12                 0.25        0.00
  In      13                 0.23        0.00
  In      14                 0.23        0.00
  In      15                 0.24        0.00
  In      16                 0.23        0.00
  In      17                 0.24        0.05
  In      18                 0.25        0.00
  In      19                 0.23        0.02
  In      20                 0.25        0.00
  In      21                 0.25        0.00
  In      22                 0.24        0.00
  In      23                 0.25        0.00
  In      24                 0.23        0.01
  In      25                 0.24        0.00
  In      26                 0.23       -0.00
  In      27                 0.25        0.00
  In      28                 0.24        0.00
  In      29                 0.23        0.01
  In      30                 0.24        0.00
  In      31                 0.23        0.01
  In      32                 0.23        0.00
===================================================

 
 A BibTeX formatted list of references used in this run has been written to 
 P_Interstitial_Migration_Dumbbell_Dumbbell+_Singlepoints_4.bib
 
Initialisation time =     30.12 s
Calculation time    =   7936.94 s
Finalisation time   =    155.97 s
Total time          =   8123.03 s
Peak Memory Use     = 9641912 kB
 
Overall parallel efficiency rating: Terrible (34%)
 
Data was distributed by:-
G-vector (3-way); efficiency rating: Poor (37%)
k-point (36-way); efficiency rating: Very good (81%)
