 +-------------------------------------------------+
 |                                                 |
 |      CCC   AA    SSS  TTTTT  EEEEE  PPPP        |
 |     C     A  A  S       T    E      P   P       |
 |     C     AAAA   SS     T    EEE    PPPP        |
 |     C     A  A     S    T    E      P           |
 |      CCC  A  A  SSS     T    EEEEE  P           |
 |                                                 |
 +-------------------------------------------------+
 |                                                 |
 | Welcome to Academic Release CASTEP version 24.1 |
 | Ab Initio Total Energy Program                  |
 |                                                 |
 | Authors:                                        |
 | M. Segall, M. Probert, C. Pickard, P. Hasnip,   |
 | S. Clark, K. Refson, J. R. Yates,               |
 | A. Bartok-Partay, M. Payne                      |
 |                                                 |
 | Contributors:                                   |
 | P. Lindan, P. Haynes, J. White, V. Milman,      |
 | N. Govind, M. Gibson, P. Tulip, V. Cocula,      |
 | B. Montanari, D. Quigley, M. Glover,            |
 | L. Bernasconi, A. Perlov, M. Plummer,           |
 | E. McNellis, J. Meyer, J. Gale, D. Jochym       |
 | J. Aarons, B. Walker, R. Gillen, D. Jones       |
 | T. Green, I. J. Bush, C. J. Armstrong,          |
 | E. J. Higgins, E. L. Brown, M. S. McFly,        |
 | J. Wilkins, B-C. Shih, P. J. P. Byrne,          |
 | R. J. Maurer, J. C. Womack, J. Dziedzic,        |
 | L. LeBlanc, T. K. Stenczel, J. Kermode,         |
 | S. Sturniolo, B. Shi, B. Durham, M. Evans,      |
 | M. J. Smith, A. Tamerus, Z. Hawkhead,           |
 | V. Ravindran, T. Hollins, S. A. Joyce,          |
 | R. T. Strong, A. M. Reilly, S. J. Donaldson     |
 |                                                 |
 | Copyright (c) 2000 - 2023                       |
 |                                                 |
 |     Distributed under license from Cambridge    |
 |     Enterprise for academic use only.           |
 |                                                 |
 | Please cite                                     |
 |                                                 |
 |     "First principles methods using CASTEP"     |
 |                                                 |
 |         Zeitschrift fuer Kristallographie       |
 |           220(5-6) pp. 567-570 (2005)           |
 |                                                 |
 | S. J. Clark, M. D. Segall, C. J. Pickard,       |
 | P. J. Hasnip, M. J. Probert, K. Refson,         |
 | M. C. Payne                                     |
 |                                                 |
 |       in all publications arising from          |
 |              your use of CASTEP                 |
 |                                                 |
 +-------------------------------------------------+
 |                                                 |
 |              http://www.castep.org              |
 |                                                 |
 +-------------------------------------------------+



 Compiled for  GNU 11.2.0 on 04-04-2024 18:39:17
 from code version 6355fd106 Castep241_branch Thu Mar 7 17:56:19 2024 +0000
 Compiler: GNU Fortran 11.2.0; Optimisation: FAST
 Comms   : MPI VERSION : CRAY MPICH version 8.1.23.14 (ANL base 3.4a2)
 MATHLIBS: default (LAPACK version 3.10.1)
 FFT Lib : fftw3 version commercial-fftw-3.3.10-sse2-avx-avx2-avx2_128
 Fundamental constants values: CODATA 2018

 Run started: Sun, 27 Apr 2025 02:56:44 +0100

 Atomic calculation performed for P: 1s2 2s2 2p6 3s2 3p3

 Converged in 47 iterations to an ae energy of -9309.074 eV

   ============================================================                
   | Pseudopotential Report - Date of generation 27-04-2025   |                
   ------------------------------------------------------------                
   | Element: P Ionic charge:  5.00 Level of theory: RSCAN    |                
   | Atomic Solver: Koelling-Harmon                           |                
   |                                                          |                
   |               Reference Electronic Structure             |                
   |         Orbital         Occupation         Energy        |                
   |            3s              2.000           -0.535        |                
   |            3p              3.000           -0.209        |                
   |                                                          |                
   |                 Pseudopotential Definition               |                
   |        Beta     l      e      Rc     scheme   norm       |                
   |          1      0   -0.535   1.807     qc      0         |                
   |          2      0    0.250   1.807     qc      0         |                
   |          3      1   -0.209   1.807     qc      0         |                
   |          4      1    0.250   1.807     qc      0         |                
   |          5      2    0.000   1.807     qc      0         |                
   |          6      2    0.250   1.807     qc      0         |                
   |         loc     3    0.000   1.807     pn      0         |                
   |                                                          |                
   | Augmentation charge Rinner = 1.263                       |                
   | Partial core correction Rc = 1.263                       |                
   ------------------------------------------------------------                
   | "3|1.8|4|4|5|30:31:32"                                   |                
   ------------------------------------------------------------                
   |      Author: Chris J. Pickard, Cambridge University      |                
   ============================================================                
 Warning: otfg_output_psp cannot write out meta-GGA pseudopotentials presently.

 Atomic calculation performed for In:
 1s2 2s2 2p6 3s2 3p6 3d10 4s2 4p6 4d10 5s2 5p1

 Converged in 84 iterations to an ae energy of -160093.328 eV

   ============================================================                
   | Pseudopotential Report - Date of generation 27-04-2025   |                
   ------------------------------------------------------------                
   | Element: In Ionic charge: 13.00 Level of theory: RSCAN   |                
   | Atomic Solver: Koelling-Harmon                           |                
   |                                                          |                
   |               Reference Electronic Structure             |                
   |         Orbital         Occupation         Energy        |                
   |            4d             10.000           -0.711        |                
   |            5s              2.000           -0.313        |                
   |            5p              1.000           -0.095        |                
   |                                                          |                
   |                 Pseudopotential Definition               |                
   |        Beta     l      e      Rc     scheme   norm       |                
   |          1      0   -0.313   2.501     qc      0         |                
   |          2      0    0.250   2.501     qc      0         |                
   |          3      1   -0.095   2.501     qc      0         |                
   |          4      1    0.250   2.501     qc      0         |                
   |          5      2   -0.711   2.207     qc      0         |                
   |          6      2    0.250   2.207     qc      0         |                
   |         loc     3    0.000   2.501     pn      0         |                
   |                                                          |                
   | Augmentation charge Rinner = 1.504                       |                
   | Partial core correction Rc = 1.504                       |                
   ------------------------------------------------------------                
   | "3|2.5|2.5|1.5|7|8|9|50:51:42U2.2U2.2"                   |                
   ------------------------------------------------------------                
   |      Author: Chris J. Pickard, Cambridge University      |                
   ============================================================                
 Warning: otfg_output_psp cannot write out meta-GGA pseudopotentials presently.

 Pseudo atomic calculation performed for P 3s2 3p3

 Converged in 23 iterations to a total energy of -208.0292 eV

 Pseudo atomic calculation performed for In 4d10 5s2 5p1

 Converged in 42 iterations to a total energy of -1747.4501 eV
 Calculation parallelised over 108 processes.
 Data is distributed by G-vector(3-way) and k-point(36-way)
 Each process may use up to 16 threads.

 ************************************ Title ************************************
 

 ***************************** General Parameters ******************************
  
 output verbosity                               : normal  (1)
 write checkpoint data to                       : In_Vacancy_Migration_3->60_Singlepoints_1.check
 type of calculation                            : single point energy
 stress calculation                             : off
 density difference calculation                 : off
 electron localisation func (ELF) calculation   : off
 Hirshfeld analysis                             : on
 polarisation (Berry phase) analysis            : off
 molecular orbital projected DOS                : off
 deltaSCF calculation                           : off
 unlimited duration calculation
 timing information                             : on
 memory usage estimate                          : on
 write extra output files                       : on
 write final potential to formatted file        : off
 write final density to formatted file          : off
 write BibTeX reference list                    : on
 write OTFG pseudopotential files               : on
 write electrostatic potential file             : on
 write bands file                               : on
 checkpoint writing                             : off
  
 output         length unit                     : A
 output           mass unit                     : amu
 output           time unit                     : ps
 output         charge unit                     : e
 output           spin unit                     : hbar/2
 output         energy unit                     : eV
 output          force unit                     : eV/A
 output       velocity unit                     : A/ps
 output       pressure unit                     : GPa
 output     inv_length unit                     : 1/A
 output      frequency unit                     : cm-1
 output force constant unit                     : eV/A**2
 output         volume unit                     : A**3
 output   IR intensity unit                     : (D/A)**2/amu
 output         dipole unit                     : D
 output         efield unit                     : eV/A/e
 output        entropy unit                     : J/mol/K
 output    efield chi2 unit                     : pm/V
  
 wavefunctions paging                           : none
 random number generator seed                   :   25644691
 data distribution                              : optimal for this architecture
 optimization strategy                          : balance speed and memory

 *********************** Exchange-Correlation Parameters ***********************
  
 using functional                               : RSCAN
 relativistic treatment                         : Koelling-Harmon
 DFT+D: Semi-empirical dispersion correction    : off

 ************************* Pseudopotential Parameters **************************
  
 pseudopotential representation                 : reciprocal space
 <beta|phi> representation                      : reciprocal space
 spin-orbit coupling                            : off

 **************************** Basis Set Parameters *****************************
  
 plane wave basis set cut-off                   :   900.0000   eV
 size of standard grid                          :     2.0000
 size of   fine   gmax                          :    30.7390   1/A
 finite basis set correction                    : none

 **************************** Electronic Parameters ****************************
  
 number of  electrons                           :  563.0    
 net charge of system                           :  0.000    
 net spin   of system                           :  1.000    
 number of  up  spins                           :  282.0    
 number of down spins                           :  281.0    
 treating system as spin-polarized
 number of bands                                :        338

 ********************* Electronic Minimization Parameters **********************
  
 Method: Treating system as metallic with density mixing treatment of electrons,
         and number of  SD  steps               :          1
         and number of  CG  steps               :          4
  
 total energy / atom convergence tol.           : 0.1000E-07   eV
 eigen-energy convergence tolerance             : 0.2234E-08   eV
 max force / atom convergence tol.              : ignored
 convergence tolerance window                   :          3   cycles
 max. number of SCF cycles                      :        100
 number of fixed-spin iterations                :         10
 smearing scheme                                : Gaussian
 smearing width                                 : 0.2000       eV
 Fermi energy convergence tolerance             : 0.2721E-13   eV
 periodic dipole correction                     : NONE

 ************************** Density Mixing Parameters **************************
  
 density-mixing scheme                          : Pulay
 max. length of mixing history                  :         20
 charge density mixing amplitude                : 0.5000    
   spin density mixing amplitude                :  2.000    
 cut-off energy for mixing                      :  900.0       eV

 *********************** Population Analysis Parameters ************************
  
 Population analysis with cutoff                :  3.000       A
 Population analysis output                     : summary and pdos components

 *******************************************************************************
  

                           -------------------------------
                                      Unit Cell
                           -------------------------------
        Real Lattice(A)                      Reciprocal Lattice(1/A)
    11.8016820    -0.0000080    -0.0000080        0.532397442   0.000000361   0.000000361
    -0.0000080    11.8016820    -0.0000080        0.000000361   0.532397442   0.000000361
    -0.0000080    -0.0000080    11.8016820        0.000000361   0.000000361   0.532397442

                       Lattice parameters(A)       Cell Angles
                    a =     11.801682          alpha =   90.000078
                    b =     11.801682          beta  =   90.000078
                    c =     11.801682          gamma =   90.000078

                       Current cell volume =          1643.734705       A**3
                                   density =             2.768402   AMU/A**3
                                           =             4.597040     g/cm^3

                           -------------------------------
                                     Cell Contents
                           -------------------------------
                         Total number of ions in cell =   63
                      Total number of species in cell =    2
                        Max number of any one species =   32

            xxxxxxxxxxxxxxxxxxxxxxxxxxxxxxxxxxxxxxxxxxxxxxxxxxxxxxxxxxxx
            x  Element    Atom        Fractional coordinates of atoms  x
            x            Number           u          v          w      x
            x----------------------------------------------------------x
            x  P            1         0.131077   0.131077   0.378223   x 
            x  P            2         0.378223   0.131077   0.131077   x 
            x  P            3         0.131077   0.378223   0.131077   x 
            x  P            4         0.398037   0.398037   0.398037   x 
            x  P            5         0.126207   0.126207   0.876729   x 
            x  P            6         0.375807   0.125914   0.624859   x 
            x  P            7         0.125914   0.375807   0.624859   x 
            x  P            8         0.374767   0.374767   0.873573   x 
            x  P            9         0.125914   0.624859   0.375807   x 
            x  P           10         0.375807   0.624859   0.125914   x 
            x  P           11         0.126207   0.876730   0.126207   x 
            x  P           12         0.374767   0.873573   0.374767   x 
            x  P           13         0.126117   0.625555   0.875113   x 
            x  P           14         0.382921   0.615607   0.615607   x 
            x  P           15         0.126117   0.875113   0.625555   x 
            x  P           16         0.376871   0.875761   0.875761   x 
            x  P           17         0.624859   0.125914   0.375807   x 
            x  P           18         0.876730   0.126207   0.126207   x 
            x  P           19         0.624859   0.375807   0.125914   x 
            x  P           20         0.873573   0.374767   0.374767   x 
            x  P           21         0.625555   0.126117   0.875113   x 
            x  P           22         0.875113   0.126117   0.625555   x 
            x  P           23         0.615607   0.382921   0.615607   x 
            x  P           24         0.875761   0.376871   0.875761   x 
            x  P           25         0.615607   0.615607   0.382921   x 
            x  P           26         0.875113   0.625555   0.126117   x 
            x  P           27         0.625555   0.875113   0.126117   x 
            x  P           28         0.875761   0.875761   0.376871   x 
            x  P           29         0.624826   0.624826   0.873364   x 
            x  P           30         0.873364   0.624826   0.624826   x 
            x  P           31         0.624826   0.873364   0.624826   x 
            x  P           32         0.875164   0.875164   0.875164   x 
            x  In           1         0.000339   0.000339   0.000339   x 
            x  In           2         0.251727   0.002617   0.251727   x 
            x  In           3         0.002617   0.251727   0.251727   x 
            x  In           4         0.251727   0.251727   0.002617   x 
            x  In           5         0.003082   0.003082   0.500131   x 
            x  In           6         0.251142   0.000919   0.750538   x 
            x  In           7         0.000919   0.251142   0.750538   x 
            x  In           8         0.262346   0.262346   0.498271   x 
            x  In           9         0.003082   0.500131   0.003082   x 
            x  In          10         0.262346   0.498271   0.262346   x 
            x  In          11         0.000919   0.750538   0.251142   x 
            x  In          12         0.251142   0.750538   0.000919   x 
            x  In          13        -0.001086   0.499874   0.499874   x 
            x  In          14         0.253575   0.503276   0.746005   x 
            x  In          15        -0.000418   0.749373   0.749373   x 
            x  In          16         0.253575   0.746005   0.503276   x 
            x  In          17         0.500131   0.003082   0.003082   x 
            x  In          18         0.750538   0.000919   0.251142   x 
            x  In          19         0.498271   0.262346   0.262346   x 
            x  In          20         0.750538   0.251142   0.000919   x 
            x  In          21         0.499874  -0.001086   0.499874   x 
            x  In          22         0.749373  -0.000418   0.749373   x 
            x  In          23         0.503276   0.253575   0.746005   x 
            x  In          24         0.746005   0.253575   0.503276   x 
            x  In          25         0.499874   0.499874  -0.001086   x 
            x  In          26         0.746005   0.503276   0.253575   x 
            x  In          27         0.503276   0.746005   0.253575   x 
            x  In          28         0.749373   0.749373  -0.000418   x 
            x  In          29         0.745195   0.496406   0.745195   x 
            x  In          30         0.496406   0.745195   0.745195   x 
            x  In          31         0.745195   0.745195   0.496406   x 
            xxxxxxxxxxxxxxxxxxxxxxxxxxxxxxxxxxxxxxxxxxxxxxxxxxxxxxxxxxxx


                         No user defined ionic velocities

                           -------------------------------
                                   Details of Species
                           -------------------------------

                               Mass of species in AMU
                                    P   30.9737600
                                    In  114.8180000

                          Electric Quadrupole Moment (Barn)
                                    P    1.0000000 No Isotope Defined
                                    In    0.7700000 Isotope115

                          Files used for pseudopotentials:
                                    P 3|1.8|4|4|5|30:31:32
                                    In 3|2.5|2.5|1.5|7|8|9|50:51:42U2.2U2.2

                           -------------------------------
                              k-Points For BZ Sampling
                           -------------------------------
                       MP grid size for SCF calculation is  4  4  4
                            with an offset of   0.125  0.125  0.125
                       Number of kpoints used =            36

                           -------------------------------
                               Symmetry and Constraints
                           -------------------------------

                      Maximum deviation from symmetry =  0.00000         ANG

                      Number of symmetry operations   =           1
                      Number of ionic constraints     =           3
                      Point group of crystal =     1: C1, 1, 1
                      Space group of crystal =   160: R3m, R 3 -2"

             Set iprint > 1 for details on symmetry rotations/translations

                         Centre of mass is constrained
             Set iprint > 1 for details of linear ionic constraints

                         Number of cell constraints= 0
                         Cell constraints are:  1 2 3 4 5 6

                         External pressure/stress (GPa)
                          0.00000   0.00000   0.00000
                                    0.00000   0.00000
                                              0.00000
 
+---------------- MEMORY AND SCRATCH DISK ESTIMATES PER PROCESS --------------+
|                                                     Memory          Disk    |
| Baseline code, static data and system overhead      368.0 MB         0.0 MB |
| BLAS internal memory storage                          0.0 MB         0.0 MB |
| Model and support data                             4296.9 MB         0.0 MB |
| Electronic energy minimisation requirements        1299.4 MB         0.0 MB |
| Force calculation requirements                      127.4 MB         0.0 MB |
|                                               ----------------------------- |
| Approx. total storage required per process         5964.3 MB         0.0 MB |
|                                                                             |
| Requirements will fluctuate during execution and may exceed these estimates |
+-----------------------------------------------------------------------------+
Calculating approximate eigenstates for fixed initial Hamiltonian
Cut-off for approx. calculation is   89.988 eV
Improving approx. states at cut-off of  450.000 eV
Resetting cut-off to  900.000 eV
Calculating total energy with cut-off of  900.000 eV.
------------------------------------------------------------------------ <-- SCF
SCF loop      Energy           Fermi           Energy gain       Timer   <-- SCF
                               energy          per atom          (sec)   <-- SCF
------------------------------------------------------------------------ <-- SCF
Initial  -6.12898458E+004  0.00000000E+000                       437.62  <-- SCF
      1  -6.10541566E+004  1.91603547E+000  -3.74109836E+000     874.12  <-- SCF
      2  -6.10544996E+004  1.91597379E+000   5.44456473E-003    1176.14  <-- SCF
      3  -6.11181851E+004  2.24424199E+000   1.01088060E+000    1518.12  <-- SCF
      4  -6.11293982E+004  2.31826081E+000   1.77985948E-001    2006.10  <-- SCF
      5  -6.11359143E+004  2.42886526E+000   1.03431114E-001    2354.46  <-- SCF
      6  -6.11242156E+004  2.54685491E+000  -1.85693728E-001    2704.40  <-- SCF
      7  -6.11228293E+004  2.58531829E+000  -2.20056761E-002    3042.08  <-- SCF
      8  -6.11230876E+004  2.63026255E+000   4.10109348E-003    3396.99  <-- SCF
      9  -6.11238174E+004  2.65124130E+000   1.15839340E-002    3740.35  <-- SCF
     10  -6.11241900E+004  2.64779940E+000   5.91402112E-003    4085.82  <-- SCF
     11  -6.11242108E+004  2.64304828E+000   3.29383293E-004    4443.29  <-- SCF
     12  -6.11242170E+004  2.64008184E+000   9.82689477E-005    4801.85  <-- SCF
     13  -6.11242202E+004  2.63779121E+000   5.13359820E-005    5152.05  <-- SCF
     14  -6.11242206E+004  2.63773433E+000   6.46294710E-006    5531.42  <-- SCF
     15  -6.11242209E+004  2.63765614E+000   5.40530262E-006    5896.04  <-- SCF
     16  -6.11242212E+004  2.63763868E+000   4.18184165E-006    6252.94  <-- SCF
     17  -6.11242214E+004  2.63787785E+000   3.61036792E-006    6605.50  <-- SCF
     18  -6.11242215E+004  2.63793597E+000   5.31811719E-007    6921.47  <-- SCF
     19  -6.11242215E+004  2.63800270E+000   1.11489745E-007    7216.51  <-- SCF
     20  -6.11242215E+004  2.63805158E+000   6.43516934E-008    7486.58  <-- SCF
     21  -6.11242215E+004  2.63807845E+000   1.23996437E-008    7729.19  <-- SCF
     22  -6.11242215E+004  2.63807842E+000   6.28987928E-009    7974.36  <-- SCF
     23  -6.11242215E+004  2.63807939E+000   2.79011133E-009    8215.14  <-- SCF
------------------------------------------------------------------------ <-- SCF
 
Integrated Spin Density     =     1.41876     hbar/2
Integrated |Spin Density|   =     1.65607     hbar/2
 
Final energy, E             =  -61123.99944340     eV
Final free energy (E-TS)    =  -61124.22147722     eV
(energies not corrected for finite basis set)
 
NB est. 0K energy (E-0.5TS)      =  -61124.11046031     eV
 

 ************************** Forces **************************
 *                                                          *
 *               Cartesian components (eV/A)                *
 * -------------------------------------------------------- *
 *                         x            y            z      *
 *                                                          *
 * P               1     -0.05027     -0.05027     -0.01198 *
 * P               2     -0.01198     -0.05027     -0.05027 *
 * P               3     -0.05027     -0.01198     -0.05027 *
 * P               4     -0.16318     -0.16318     -0.16318 *
 * P               5      0.00247      0.00247      0.00154 *
 * P               6      0.02184      0.00649      0.00892 *
 * P               7      0.00649      0.02184      0.00892 *
 * P               8      0.01758      0.01757      0.00406 *
 * P               9      0.00649      0.00892      0.02184 *
 * P              10      0.02184      0.00892      0.00649 *
 * P              11      0.00247      0.00153      0.00247 *
 * P              12      0.01758      0.00405      0.01757 *
 * P              13      0.02198      0.03745     -0.01521 *
 * P              14     -0.00705      0.06151      0.06151 *
 * P              15      0.02198     -0.01521      0.03745 *
 * P              16     -0.02878     -0.01529     -0.01529 *
 * P              17      0.00892      0.00649      0.02184 *
 * P              18      0.00153      0.00247      0.00247 *
 * P              19      0.00892      0.02184      0.00649 *
 * P              20      0.00405      0.01758      0.01758 *
 * P              21      0.03745      0.02198     -0.01521 *
 * P              22     -0.01521      0.02198      0.03745 *
 * P              23      0.06151     -0.00706      0.06151 *
 * P              24     -0.01529     -0.02877     -0.01529 *
 * P              25      0.06151      0.06151     -0.00706 *
 * P              26     -0.01521      0.03745      0.02198 *
 * P              27      0.03745     -0.01521      0.02199 *
 * P              28     -0.01529     -0.01529     -0.02877 *
 * P              29      0.00066      0.00066      0.01401 *
 * P              30      0.01401      0.00066      0.00066 *
 * P              31      0.00066      0.01401      0.00066 *
 * P              32      0.00585      0.00584      0.00585 *
 * In              1      0.01055      0.01055      0.01054 *
 * In              2      0.01027     -0.00042      0.01027 *
 * In              3     -0.00042      0.01027      0.01027 *
 * In              4      0.01027      0.01027     -0.00042 *
 * In              5      0.00343      0.00343     -0.01778 *
 * In              6      0.00594      0.01828      0.00283 *
 * In              7      0.01828      0.00594      0.00283 *
 * In              8     -0.10268     -0.10268      0.04714 *
 * In              9      0.00343     -0.01778      0.00343 *
 * In             10     -0.10268      0.04714     -0.10268 *
 * In             11      0.01828      0.00283      0.00594 *
 * In             12      0.00594      0.00283      0.01828 *
 * In             13      0.03613      0.00113      0.00113 *
 * In             14     -0.00060     -0.06519      0.01770 *
 * In             15     -0.00506     -0.00674     -0.00673 *
 * In             16     -0.00060      0.01770     -0.06519 *
 * In             17     -0.01778      0.00343      0.00343 *
 * In             18      0.00283      0.01828      0.00594 *
 * In             19      0.04714     -0.10268     -0.10268 *
 * In             20      0.00283      0.00594      0.01828 *
 * In             21      0.00113      0.03613      0.00113 *
 * In             22     -0.00674     -0.00506     -0.00674 *
 * In             23     -0.06519     -0.00059      0.01770 *
 * In             24      0.01770     -0.00059     -0.06519 *
 * In             25      0.00113      0.00113      0.03613 *
 * In             26      0.01770     -0.06519     -0.00059 *
 * In             27     -0.06519      0.01770     -0.00059 *
 * In             28     -0.00673     -0.00674     -0.00506 *
 * In             29      0.03640      0.07717      0.03640 *
 * In             30      0.07717      0.03640      0.03640 *
 * In             31      0.03640      0.03640      0.07717 *
 *                                                          *
 ************************************************************

 Pseudo atomic calculation performed for P 3s2 3p3

 Converged in 23 iterations to a total energy of -208.0292 eV

 Pseudo atomic calculation performed for In 4d10 5s2 5p1

 Converged in 42 iterations to a total energy of -1747.4501 eV
Charge spilling parameter for spin component 1 = 0.16%
Charge spilling parameter for spin component 2 = 0.17%

                   Orbital Populations                  
  ---------------------------------------------------------------
     Ion    Atom   Orbital              Up        Down      Spin
  ---------------------------------------------------------------
      P     1      S                    0.874     0.873     0.001
      P     1      Px                   0.653     0.644     0.009
      P     1      Py                   0.653     0.644     0.009
      P     1      Pz                   0.657     0.654     0.003
      P     2      S                    0.874     0.873     0.001
      P     2      Px                   0.657     0.654     0.003
      P     2      Py                   0.653     0.644     0.009
      P     2      Pz                   0.653     0.644     0.009
      P     3      S                    0.874     0.873     0.001
      P     3      Px                   0.653     0.644     0.009
      P     3      Py                   0.657     0.654     0.003
      P     3      Pz                   0.653     0.644     0.009
      P     4      S                    0.920     0.904     0.016
      P     4      Px                   0.637     0.586     0.051
      P     4      Py                   0.637     0.586     0.050
      P     4      Pz                   0.637     0.586     0.050
      P     5      S                    0.871     0.871     0.000
      P     5      Px                   0.655     0.652     0.003
      P     5      Py                   0.655     0.652     0.003
      P     5      Pz                   0.655     0.652     0.003
      P     6      S                    0.870     0.870    -0.000
      P     6      Px                   0.656     0.658    -0.002
      P     6      Py                   0.652     0.652     0.000
      P     6      Pz                   0.653     0.654    -0.001
      P     7      S                    0.870     0.870    -0.000
      P     7      Px                   0.652     0.652     0.000
      P     7      Py                   0.656     0.658    -0.002
      P     7      Pz                   0.653     0.654    -0.001
      P     8      S                    0.870     0.870    -0.000
      P     8      Px                   0.653     0.655    -0.001
      P     8      Py                   0.653     0.655    -0.001
      P     8      Pz                   0.654     0.655    -0.001
      P     9      S                    0.870     0.870    -0.000
      P     9      Px                   0.652     0.652     0.000
      P     9      Py                   0.653     0.654    -0.001
      P     9      Pz                   0.656     0.658    -0.002
      P    10      S                    0.870     0.870    -0.000
      P    10      Px                   0.656     0.658    -0.002
      P    10      Py                   0.653     0.654    -0.001
      P    10      Pz                   0.652     0.652     0.000
      P    11      S                    0.871     0.871     0.000
      P    11      Px                   0.655     0.652     0.003
      P    11      Py                   0.655     0.652     0.003
      P    11      Pz                   0.655     0.652     0.003
      P    12      S                    0.870     0.870    -0.000
      P    12      Px                   0.653     0.655    -0.001
      P    12      Py                   0.654     0.655    -0.001
      P    12      Pz                   0.653     0.655    -0.001
      P    13      S                    0.873     0.872     0.001
      P    13      Px                   0.657     0.642     0.015
      P    13      Py                   0.659     0.653     0.005
      P    13      Pz                   0.656     0.641     0.015
      P    14      S                    0.913     0.894     0.019
      P    14      Px                   0.671     0.570     0.100
      P    14      Py                   0.665     0.566     0.099
      P    14      Pz                   0.665     0.566     0.099
      P    15      S                    0.873     0.872     0.001
      P    15      Px                   0.657     0.642     0.015
      P    15      Py                   0.656     0.641     0.015
      P    15      Pz                   0.659     0.653     0.005
      P    16      S                    0.874     0.873     0.001
      P    16      Px                   0.660     0.654     0.006
      P    16      Py                   0.654     0.641     0.013
      P    16      Pz                   0.654     0.641     0.013
      P    17      S                    0.870     0.870    -0.000
      P    17      Px                   0.653     0.654    -0.001
      P    17      Py                   0.652     0.652     0.000
      P    17      Pz                   0.656     0.658    -0.002
      P    18      S                    0.871     0.871     0.000
      P    18      Px                   0.655     0.652     0.003
      P    18      Py                   0.655     0.652     0.003
      P    18      Pz                   0.655     0.652     0.003
      P    19      S                    0.870     0.870    -0.000
      P    19      Px                   0.653     0.654    -0.001
      P    19      Py                   0.656     0.658    -0.002
      P    19      Pz                   0.652     0.652     0.000
      P    20      S                    0.870     0.870    -0.000
      P    20      Px                   0.654     0.655    -0.001
      P    20      Py                   0.653     0.655    -0.001
      P    20      Pz                   0.653     0.655    -0.001
      P    21      S                    0.873     0.872     0.001
      P    21      Px                   0.659     0.653     0.005
      P    21      Py                   0.657     0.642     0.015
      P    21      Pz                   0.656     0.641     0.015
      P    22      S                    0.873     0.872     0.001
      P    22      Px                   0.656     0.641     0.015
      P    22      Py                   0.657     0.642     0.015
      P    22      Pz                   0.659     0.653     0.005
      P    23      S                    0.913     0.894     0.019
      P    23      Px                   0.665     0.566     0.099
      P    23      Py                   0.671     0.570     0.100
      P    23      Pz                   0.665     0.566     0.099
      P    24      S                    0.874     0.873     0.001
      P    24      Px                   0.654     0.641     0.013
      P    24      Py                   0.660     0.654     0.006
      P    24      Pz                   0.654     0.641     0.013
      P    25      S                    0.913     0.894     0.019
      P    25      Px                   0.665     0.566     0.099
      P    25      Py                   0.665     0.566     0.099
      P    25      Pz                   0.671     0.570     0.100
      P    26      S                    0.873     0.872     0.001
      P    26      Px                   0.656     0.641     0.015
      P    26      Py                   0.659     0.653     0.005
      P    26      Pz                   0.657     0.642     0.015
      P    27      S                    0.873     0.872     0.001
      P    27      Px                   0.659     0.653     0.005
      P    27      Py                   0.656     0.641     0.015
      P    27      Pz                   0.657     0.642     0.015
      P    28      S                    0.874     0.873     0.001
      P    28      Px                   0.654     0.641     0.013
      P    28      Py                   0.654     0.641     0.013
      P    28      Pz                   0.660     0.654     0.006
      P    29      S                    0.870     0.870    -0.000
      P    29      Px                   0.653     0.655    -0.002
      P    29      Py                   0.653     0.655    -0.002
      P    29      Pz                   0.654     0.655    -0.001
      P    30      S                    0.870     0.870    -0.000
      P    30      Px                   0.654     0.655    -0.001
      P    30      Py                   0.653     0.655    -0.002
      P    30      Pz                   0.653     0.655    -0.002
      P    31      S                    0.870     0.870    -0.000
      P    31      Px                   0.653     0.655    -0.002
      P    31      Py                   0.654     0.655    -0.001
      P    31      Pz                   0.653     0.655    -0.002
      P    32      S                    0.871     0.870     0.000
      P    32      Px                   0.655     0.652     0.004
      P    32      Py                   0.655     0.652     0.004
      P    32      Pz                   0.655     0.652     0.004
     In     1      Dzz                  1.000     1.000     0.000
     In     1      Dzy                  0.998     0.998     0.000
     In     1      Dzx                  0.998     0.998     0.000
     In     1      Dxx-yy               1.000     1.000     0.000
     In     1      Dxy                  0.998     0.998     0.000
     In     1      S                    0.703     0.703     0.000
     In     1      Px                   0.240     0.240    -0.000
     In     1      Py                   0.240     0.240    -0.000
     In     1      Pz                   0.240     0.240    -0.000
     In     1      S                   -0.232    -0.232    -0.000
     In     2      Dzz                  1.000     1.000     0.000
     In     2      Dzy                  0.998     0.998     0.000
     In     2      Dzx                  0.999     0.999     0.000
     In     2      Dxx-yy               1.000     1.000     0.000
     In     2      Dxy                  0.998     0.998     0.000
     In     2      S                    0.707     0.708    -0.001
     In     2      Px                   0.239     0.240    -0.001
     In     2      Py                   0.241     0.242    -0.000
     In     2      Pz                   0.239     0.240    -0.001
     In     2      S                   -0.266    -0.267     0.001
     In     3      Dzz                  1.000     1.000     0.000
     In     3      Dzy                  0.999     0.999     0.000
     In     3      Dzx                  0.998     0.998     0.000
     In     3      Dxx-yy               1.000     1.000     0.000
     In     3      Dxy                  0.998     0.998     0.000
     In     3      S                    0.707     0.708    -0.001
     In     3      Px                   0.241     0.242    -0.000
     In     3      Py                   0.239     0.240    -0.001
     In     3      Pz                   0.239     0.240    -0.001
     In     3      S                   -0.266    -0.267     0.001
     In     4      Dzz                  1.000     1.000     0.000
     In     4      Dzy                  0.998     0.998     0.000
     In     4      Dzx                  0.998     0.998     0.000
     In     4      Dxx-yy               1.000     1.000    -0.000
     In     4      Dxy                  0.999     0.999     0.000
     In     4      S                    0.707     0.708    -0.001
     In     4      Px                   0.239     0.240    -0.001
     In     4      Py                   0.239     0.240    -0.001
     In     4      Pz                   0.241     0.242    -0.000
     In     4      S                   -0.266    -0.267     0.001
     In     5      Dzz                  1.000     1.000     0.000
     In     5      Dzy                  0.999     0.998     0.000
     In     5      Dzx                  0.999     0.998     0.000
     In     5      Dxx-yy               1.000     1.000    -0.000
     In     5      Dxy                  0.999     0.999    -0.000
     In     5      S                    0.710     0.711    -0.001
     In     5      Px                   0.239     0.237     0.001
     In     5      Py                   0.239     0.237     0.001
     In     5      Pz                   0.241     0.239     0.002
     In     5      S                   -0.251    -0.248    -0.003
     In     6      Dzz                  1.000     1.000    -0.000
     In     6      Dzy                  0.998     0.998     0.000
     In     6      Dzx                  0.998     0.998     0.000
     In     6      Dxx-yy               1.000     1.000     0.000
     In     6      Dxy                  0.998     0.998     0.000
     In     6      S                    0.708     0.708    -0.001
     In     6      Px                   0.239     0.240    -0.001
     In     6      Py                   0.239     0.239    -0.000
     In     6      Pz                   0.240     0.241    -0.001
     In     6      S                   -0.266    -0.268     0.002
     In     7      Dzz                  1.000     1.000    -0.000
     In     7      Dzy                  0.998     0.998     0.000
     In     7      Dzx                  0.998     0.998     0.000
     In     7      Dxx-yy               1.000     1.000     0.000
     In     7      Dxy                  0.998     0.998     0.000
     In     7      S                    0.708     0.708    -0.001
     In     7      Px                   0.239     0.239    -0.000
     In     7      Py                   0.239     0.240    -0.001
     In     7      Pz                   0.240     0.241    -0.001
     In     7      S                   -0.266    -0.268     0.002
     In     8      Dzz                  1.000     1.000     0.000
     In     8      Dzy                  0.999     0.999     0.000
     In     8      Dzx                  0.999     0.999     0.000
     In     8      Dxx-yy               1.000     1.000     0.000
     In     8      Dxy                  0.998     0.998     0.000
     In     8      S                    0.703     0.704    -0.001
     In     8      Px                   0.240     0.239     0.001
     In     8      Py                   0.240     0.239     0.001
     In     8      Pz                   0.243     0.241     0.003
     In     8      S                   -0.231    -0.229    -0.002
     In     9      Dzz                  1.000     1.000     0.000
     In     9      Dzy                  0.999     0.998     0.000
     In     9      Dzx                  0.999     0.999    -0.000
     In     9      Dxx-yy               1.000     1.000     0.000
     In     9      Dxy                  0.999     0.998     0.000
     In     9      S                    0.710     0.711    -0.001
     In     9      Px                   0.239     0.237     0.001
     In     9      Py                   0.241     0.239     0.002
     In     9      Pz                   0.239     0.237     0.001
     In     9      S                   -0.251    -0.248    -0.003
     In    10      Dzz                  1.000     1.000     0.000
     In    10      Dzy                  0.999     0.999     0.000
     In    10      Dzx                  0.998     0.998     0.000
     In    10      Dxx-yy               1.000     1.000     0.000
     In    10      Dxy                  0.999     0.999     0.000
     In    10      S                    0.703     0.704    -0.001
     In    10      Px                   0.240     0.239     0.001
     In    10      Py                   0.243     0.241     0.003
     In    10      Pz                   0.240     0.239     0.001
     In    10      S                   -0.231    -0.229    -0.002
     In    11      Dzz                  1.000     1.000     0.000
     In    11      Dzy                  0.998     0.998     0.000
     In    11      Dzx                  0.998     0.998     0.000
     In    11      Dxx-yy               1.000     1.000     0.000
     In    11      Dxy                  0.998     0.998     0.000
     In    11      S                    0.708     0.708    -0.001
     In    11      Px                   0.239     0.239    -0.000
     In    11      Py                   0.240     0.241    -0.001
     In    11      Pz                   0.239     0.240    -0.001
     In    11      S                   -0.266    -0.268     0.002
     In    12      Dzz                  1.000     1.000     0.000
     In    12      Dzy                  0.998     0.998     0.000
     In    12      Dzx                  0.998     0.998     0.000
     In    12      Dxx-yy               1.000     1.000    -0.000
     In    12      Dxy                  0.998     0.998     0.000
     In    12      S                    0.708     0.708    -0.001
     In    12      Px                   0.239     0.240    -0.001
     In    12      Py                   0.240     0.241    -0.001
     In    12      Pz                   0.239     0.239    -0.000
     In    12      S                   -0.266    -0.268     0.002
     In    13      Dzz                  1.000     1.000    -0.000
     In    13      Dzy                  0.998     0.999    -0.000
     In    13      Dzx                  0.998     0.998    -0.000
     In    13      Dxx-yy               1.000     1.000    -0.000
     In    13      Dxy                  0.998     0.998    -0.000
     In    13      S                    0.710     0.709     0.001
     In    13      Px                   0.238     0.238     0.000
     In    13      Py                   0.241     0.241     0.000
     In    13      Pz                   0.241     0.241     0.000
     In    13      S                   -0.276    -0.274    -0.003
     In    14      Dzz                  1.000     1.000     0.000
     In    14      Dzy                  0.999     0.998     0.000
     In    14      Dzx                  0.998     0.998     0.000
     In    14      Dxx-yy               1.000     1.000     0.000
     In    14      Dxy                  0.999     0.998     0.000
     In    14      S                    0.704     0.708    -0.004
     In    14      Px                   0.239     0.240    -0.001
     In    14      Py                   0.247     0.247    -0.001
     In    14      Pz                   0.238     0.239    -0.001
     In    14      S                   -0.238    -0.236    -0.002
     In    15      Dzz                  1.000     1.000     0.000
     In    15      Dzy                  0.998     0.998     0.000
     In    15      Dzx                  0.998     0.998     0.000
     In    15      Dxx-yy               1.000     1.000     0.000
     In    15      Dxy                  0.998     0.998     0.000
     In    15      S                    0.708     0.709    -0.001
     In    15      Px                   0.238     0.239    -0.001
     In    15      Py                   0.239     0.240    -0.001
     In    15      Pz                   0.239     0.240    -0.001
     In    15      S                   -0.266    -0.268     0.002
     In    16      Dzz                  1.000     1.000     0.000
     In    16      Dzy                  0.999     0.998     0.000
     In    16      Dzx                  0.999     0.998     0.000
     In    16      Dxx-yy               1.000     1.000     0.000
     In    16      Dxy                  0.998     0.998     0.000
     In    16      S                    0.704     0.708    -0.004
     In    16      Px                   0.239     0.240    -0.001
     In    16      Py                   0.238     0.239    -0.001
     In    16      Pz                   0.247     0.247    -0.001
     In    16      S                   -0.238    -0.236    -0.002
     In    17      Dzz                  1.000     1.000     0.000
     In    17      Dzy                  0.999     0.999    -0.000
     In    17      Dzx                  0.999     0.998     0.000
     In    17      Dxx-yy               1.000     1.000     0.000
     In    17      Dxy                  0.999     0.998     0.000
     In    17      S                    0.710     0.711    -0.001
     In    17      Px                   0.241     0.239     0.002
     In    17      Py                   0.239     0.237     0.001
     In    17      Pz                   0.239     0.237     0.001
     In    17      S                   -0.251    -0.248    -0.003
     In    18      Dzz                  1.000     1.000     0.000
     In    18      Dzy                  0.998     0.998     0.000
     In    18      Dzx                  0.998     0.998     0.000
     In    18      Dxx-yy               1.000     1.000     0.000
     In    18      Dxy                  0.998     0.998     0.000
     In    18      S                    0.708     0.708    -0.001
     In    18      Px                   0.240     0.241    -0.001
     In    18      Py                   0.239     0.239    -0.000
     In    18      Pz                   0.239     0.240    -0.001
     In    18      S                   -0.266    -0.268     0.002
     In    19      Dzz                  1.000     1.000     0.000
     In    19      Dzy                  0.998     0.998     0.000
     In    19      Dzx                  0.999     0.999     0.000
     In    19      Dxx-yy               1.000     1.000     0.000
     In    19      Dxy                  0.999     0.999     0.000
     In    19      S                    0.703     0.704    -0.001
     In    19      Px                   0.243     0.241     0.003
     In    19      Py                   0.240     0.239     0.001
     In    19      Pz                   0.240     0.239     0.001
     In    19      S                   -0.231    -0.229    -0.002
     In    20      Dzz                  1.000     1.000     0.000
     In    20      Dzy                  0.998     0.998     0.000
     In    20      Dzx                  0.998     0.998     0.000
     In    20      Dxx-yy               1.000     1.000    -0.000
     In    20      Dxy                  0.998     0.998     0.000
     In    20      S                    0.708     0.708    -0.001
     In    20      Px                   0.240     0.241    -0.001
     In    20      Py                   0.239     0.240    -0.001
     In    20      Pz                   0.239     0.239    -0.000
     In    20      S                   -0.266    -0.268     0.002
     In    21      Dzz                  1.000     1.000    -0.000
     In    21      Dzy                  0.998     0.998    -0.000
     In    21      Dzx                  0.998     0.999    -0.000
     In    21      Dxx-yy               1.000     1.000     0.000
     In    21      Dxy                  0.998     0.998    -0.000
     In    21      S                    0.710     0.709     0.001
     In    21      Px                   0.241     0.241     0.000
     In    21      Py                   0.238     0.238     0.000
     In    21      Pz                   0.241     0.241     0.000
     In    21      S                   -0.276    -0.274    -0.003
     In    22      Dzz                  1.000     1.000     0.000
     In    22      Dzy                  0.998     0.998     0.000
     In    22      Dzx                  0.998     0.998     0.000
     In    22      Dxx-yy               1.000     1.000     0.000
     In    22      Dxy                  0.998     0.998     0.000
     In    22      S                    0.708     0.709    -0.001
     In    22      Px                   0.239     0.240    -0.001
     In    22      Py                   0.238     0.239    -0.001
     In    22      Pz                   0.239     0.240    -0.001
     In    22      S                   -0.266    -0.268     0.002
     In    23      Dzz                  1.000     1.000     0.000
     In    23      Dzy                  0.998     0.998     0.000
     In    23      Dzx                  0.999     0.998     0.000
     In    23      Dxx-yy               1.000     1.000     0.000
     In    23      Dxy                  0.999     0.998     0.000
     In    23      S                    0.704     0.708    -0.004
     In    23      Px                   0.247     0.247    -0.001
     In    23      Py                   0.239     0.240    -0.001
     In    23      Pz                   0.238     0.239    -0.001
     In    23      S                   -0.238    -0.236    -0.002
     In    24      Dzz                  1.000     1.000     0.000
     In    24      Dzy                  0.999     0.998     0.000
     In    24      Dzx                  0.999     0.998     0.000
     In    24      Dxx-yy               1.000     1.000     0.000
     In    24      Dxy                  0.998     0.998     0.000
     In    24      S                    0.704     0.708    -0.004
     In    24      Px                   0.238     0.239    -0.001
     In    24      Py                   0.239     0.240    -0.001
     In    24      Pz                   0.247     0.247    -0.001
     In    24      S                   -0.238    -0.236    -0.002
     In    25      Dzz                  1.000     1.000     0.000
     In    25      Dzy                  0.998     0.998    -0.000
     In    25      Dzx                  0.998     0.998    -0.000
     In    25      Dxx-yy               1.000     1.000    -0.000
     In    25      Dxy                  0.998     0.999    -0.000
     In    25      S                    0.710     0.709     0.001
     In    25      Px                   0.241     0.241     0.000
     In    25      Py                   0.241     0.241     0.000
     In    25      Pz                   0.238     0.238     0.000
     In    25      S                   -0.276    -0.274    -0.003
     In    26      Dzz                  1.000     1.000     0.000
     In    26      Dzy                  0.999     0.998     0.000
     In    26      Dzx                  0.998     0.998     0.000
     In    26      Dxx-yy               1.000     1.000     0.000
     In    26      Dxy                  0.999     0.998     0.000
     In    26      S                    0.704     0.708    -0.004
     In    26      Px                   0.238     0.239    -0.001
     In    26      Py                   0.247     0.247    -0.001
     In    26      Pz                   0.239     0.240    -0.001
     In    26      S                   -0.238    -0.236    -0.002
     In    27      Dzz                  1.000     1.000     0.000
     In    27      Dzy                  0.998     0.998     0.000
     In    27      Dzx                  0.999     0.998     0.000
     In    27      Dxx-yy               1.000     1.000     0.000
     In    27      Dxy                  0.999     0.998     0.000
     In    27      S                    0.704     0.708    -0.004
     In    27      Px                   0.247     0.247    -0.001
     In    27      Py                   0.238     0.239    -0.001
     In    27      Pz                   0.239     0.240    -0.001
     In    27      S                   -0.238    -0.236    -0.002
     In    28      Dzz                  1.000     1.000     0.000
     In    28      Dzy                  0.998     0.998     0.000
     In    28      Dzx                  0.998     0.998     0.000
     In    28      Dxx-yy               1.000     1.000     0.000
     In    28      Dxy                  0.998     0.998     0.000
     In    28      S                    0.708     0.709    -0.001
     In    28      Px                   0.239     0.240    -0.001
     In    28      Py                   0.239     0.240    -0.001
     In    28      Pz                   0.238     0.239    -0.001
     In    28      S                   -0.266    -0.268     0.002
     In    29      Dzz                  1.000     1.000     0.000
     In    29      Dzy                  0.999     0.998     0.000
     In    29      Dzx                  0.998     0.998     0.000
     In    29      Dxx-yy               1.000     1.000     0.000
     In    29      Dxy                  0.999     0.998     0.000
     In    29      S                    0.705     0.709    -0.004
     In    29      Px                   0.238     0.239    -0.002
     In    29      Py                   0.246     0.246     0.000
     In    29      Pz                   0.238     0.239    -0.002
     In    29      S                   -0.238    -0.238    -0.001
     In    30      Dzz                  1.000     1.000     0.000
     In    30      Dzy                  0.998     0.998     0.000
     In    30      Dzx                  0.999     0.998     0.000
     In    30      Dxx-yy               1.000     1.000     0.000
     In    30      Dxy                  0.999     0.998     0.000
     In    30      S                    0.705     0.709    -0.004
     In    30      Px                   0.246     0.246     0.000
     In    30      Py                   0.238     0.239    -0.002
     In    30      Pz                   0.238     0.239    -0.002
     In    30      S                   -0.238    -0.238    -0.001
     In    31      Dzz                  1.000     1.000     0.000
     In    31      Dzy                  0.999     0.998     0.000
     In    31      Dzx                  0.999     0.998     0.000
     In    31      Dxx-yy               1.000     1.000     0.000
     In    31      Dxy                  0.998     0.998     0.000
     In    31      S                    0.705     0.709    -0.004
     In    31      Px                   0.238     0.239    -0.002
     In    31      Py                   0.238     0.239    -0.002
     In    31      Pz                   0.246     0.246     0.000
     In    31      S                   -0.238    -0.238    -0.001
  ---------------------------------------------------------------
                           Total:     282.209   280.790     1.419
  ---------------------------------------------------------------

     Atomic Populations (Mulliken)
     -----------------------------
Species          Ion Spin      s       p       d       f      Total   Charge(e)   Spin(hbar/2)
==============================================================================================
  P               1   up:     0.874   1.963   0.000   0.000   2.837    -0.651        0.022
                  1   dn:     0.873   1.941   0.000   0.000   2.815
  P               2   up:     0.874   1.963   0.000   0.000   2.837    -0.651        0.022
                  2   dn:     0.873   1.941   0.000   0.000   2.815
  P               3   up:     0.874   1.963   0.000   0.000   2.837    -0.651        0.022
                  3   dn:     0.873   1.941   0.000   0.000   2.815
  P               4   up:     0.920   1.910   0.000   0.000   2.830    -0.492        0.167
                  4   dn:     0.904   1.758   0.000   0.000   2.662
  P               5   up:     0.871   1.965   0.000   0.000   2.836    -0.662        0.010
                  5   dn:     0.871   1.955   0.000   0.000   2.826
  P               6   up:     0.870   1.961   0.000   0.000   2.831    -0.664       -0.003
                  6   dn:     0.870   1.964   0.000   0.000   2.834
  P               7   up:     0.870   1.961   0.000   0.000   2.831    -0.664       -0.003
                  7   dn:     0.870   1.964   0.000   0.000   2.834
  P               8   up:     0.870   1.960   0.000   0.000   2.830    -0.664       -0.004
                  8   dn:     0.870   1.964   0.000   0.000   2.834
  P               9   up:     0.870   1.961   0.000   0.000   2.831    -0.664       -0.003
                  9   dn:     0.870   1.964   0.000   0.000   2.834
  P              10   up:     0.870   1.961   0.000   0.000   2.831    -0.664       -0.003
                 10   dn:     0.870   1.964   0.000   0.000   2.834
  P              11   up:     0.871   1.965   0.000   0.000   2.836    -0.662        0.010
                 11   dn:     0.871   1.956   0.000   0.000   2.826
  P              12   up:     0.870   1.960   0.000   0.000   2.830    -0.664       -0.004
                 12   dn:     0.870   1.964   0.000   0.000   2.834
  P              13   up:     0.873   1.972   0.000   0.000   2.846    -0.655        0.037
                 13   dn:     0.872   1.937   0.000   0.000   2.809
  P              14   up:     0.913   2.001   0.000   0.000   2.914    -0.510        0.317
                 14   dn:     0.894   1.703   0.000   0.000   2.597
  P              15   up:     0.873   1.972   0.000   0.000   2.846    -0.654        0.037
                 15   dn:     0.872   1.937   0.000   0.000   2.809
  P              16   up:     0.874   1.969   0.000   0.000   2.843    -0.653        0.033
                 16   dn:     0.873   1.937   0.000   0.000   2.810
  P              17   up:     0.870   1.961   0.000   0.000   2.831    -0.664       -0.003
                 17   dn:     0.870   1.964   0.000   0.000   2.834
  P              18   up:     0.871   1.965   0.000   0.000   2.836    -0.662        0.010
                 18   dn:     0.871   1.956   0.000   0.000   2.826
  P              19   up:     0.870   1.961   0.000   0.000   2.831    -0.664       -0.003
                 19   dn:     0.870   1.964   0.000   0.000   2.834
  P              20   up:     0.870   1.960   0.000   0.000   2.830    -0.664       -0.004
                 20   dn:     0.870   1.964   0.000   0.000   2.834
  P              21   up:     0.873   1.972   0.000   0.000   2.846    -0.655        0.037
                 21   dn:     0.872   1.937   0.000   0.000   2.809
  P              22   up:     0.873   1.972   0.000   0.000   2.846    -0.654        0.037
                 22   dn:     0.872   1.937   0.000   0.000   2.809
  P              23   up:     0.913   2.001   0.000   0.000   2.914    -0.510        0.317
                 23   dn:     0.894   1.703   0.000   0.000   2.597
  P              24   up:     0.874   1.969   0.000   0.000   2.843    -0.653        0.033
                 24   dn:     0.873   1.936   0.000   0.000   2.810
  P              25   up:     0.913   2.001   0.000   0.000   2.914    -0.510        0.317
                 25   dn:     0.894   1.703   0.000   0.000   2.597
  P              26   up:     0.873   1.972   0.000   0.000   2.846    -0.655        0.037
                 26   dn:     0.872   1.937   0.000   0.000   2.809
  P              27   up:     0.873   1.972   0.000   0.000   2.846    -0.655        0.037
                 27   dn:     0.872   1.937   0.000   0.000   2.809
  P              28   up:     0.874   1.969   0.000   0.000   2.843    -0.653        0.033
                 28   dn:     0.873   1.937   0.000   0.000   2.810
  P              29   up:     0.870   1.960   0.000   0.000   2.830    -0.665       -0.005
                 29   dn:     0.870   1.965   0.000   0.000   2.835
  P              30   up:     0.870   1.960   0.000   0.000   2.830    -0.665       -0.005
                 30   dn:     0.870   1.965   0.000   0.000   2.835
  P              31   up:     0.870   1.960   0.000   0.000   2.830    -0.665       -0.005
                 31   dn:     0.870   1.965   0.000   0.000   2.835
  P              32   up:     0.871   1.966   0.000   0.000   2.837    -0.663        0.011
                 32   dn:     0.870   1.956   0.000   0.000   2.826
  In              1   up:     0.471   0.719   4.995   0.000   6.184     0.631       -0.001
                  1   dn:     0.470   0.720   4.995   0.000   6.185
  In              2   up:     0.441   0.719   4.995   0.000   6.155     0.689       -0.001
                  2   dn:     0.441   0.721   4.995   0.000   6.156
  In              3   up:     0.441   0.719   4.995   0.000   6.155     0.689       -0.001
                  3   dn:     0.441   0.721   4.995   0.000   6.156
  In              4   up:     0.441   0.719   4.995   0.000   6.155     0.689       -0.001
                  4   dn:     0.441   0.721   4.995   0.000   6.156
  In              5   up:     0.459   0.718   4.995   0.000   6.172     0.657        0.001
                  5   dn:     0.463   0.714   4.995   0.000   6.171
  In              6   up:     0.442   0.718   4.995   0.000   6.154     0.691       -0.001
                  6   dn:     0.440   0.720   4.995   0.000   6.155
  In              7   up:     0.442   0.718   4.995   0.000   6.154     0.691       -0.001
                  7   dn:     0.440   0.720   4.995   0.000   6.155
  In              8   up:     0.472   0.723   4.995   0.000   6.190     0.621        0.001
                  8   dn:     0.475   0.719   4.995   0.000   6.189
  In              9   up:     0.459   0.718   4.995   0.000   6.172     0.657        0.001
                  9   dn:     0.463   0.714   4.995   0.000   6.171
  In             10   up:     0.472   0.723   4.995   0.000   6.190     0.621        0.001
                 10   dn:     0.475   0.719   4.995   0.000   6.189
  In             11   up:     0.442   0.718   4.995   0.000   6.154     0.691       -0.001
                 11   dn:     0.440   0.720   4.995   0.000   6.155
  In             12   up:     0.442   0.718   4.995   0.000   6.154     0.691       -0.001
                 12   dn:     0.440   0.720   4.995   0.000   6.155
  In             13   up:     0.433   0.720   4.995   0.000   6.148     0.702       -0.002
                 13   dn:     0.435   0.720   4.995   0.000   6.150
  In             14   up:     0.466   0.723   4.995   0.000   6.184     0.624       -0.009
                 14   dn:     0.472   0.727   4.994   0.000   6.192
  In             15   up:     0.443   0.717   4.995   0.000   6.154     0.690       -0.002
                 15   dn:     0.442   0.719   4.995   0.000   6.156
  In             16   up:     0.466   0.723   4.995   0.000   6.184     0.624       -0.009
                 16   dn:     0.472   0.727   4.994   0.000   6.192
  In             17   up:     0.459   0.718   4.995   0.000   6.172     0.657        0.001
                 17   dn:     0.463   0.714   4.995   0.000   6.171
  In             18   up:     0.442   0.718   4.995   0.000   6.154     0.691       -0.001
                 18   dn:     0.440   0.720   4.995   0.000   6.155
  In             19   up:     0.472   0.723   4.995   0.000   6.190     0.621        0.001
                 19   dn:     0.475   0.719   4.995   0.000   6.189
  In             20   up:     0.442   0.718   4.995   0.000   6.154     0.691       -0.001
                 20   dn:     0.440   0.720   4.995   0.000   6.155
  In             21   up:     0.433   0.720   4.995   0.000   6.148     0.702       -0.002
                 21   dn:     0.435   0.720   4.995   0.000   6.150
  In             22   up:     0.443   0.717   4.995   0.000   6.154     0.690       -0.002
                 22   dn:     0.442   0.719   4.995   0.000   6.156
  In             23   up:     0.466   0.723   4.995   0.000   6.184     0.624       -0.009
                 23   dn:     0.472   0.727   4.994   0.000   6.192
  In             24   up:     0.466   0.723   4.995   0.000   6.184     0.624       -0.009
                 24   dn:     0.472   0.727   4.994   0.000   6.192
  In             25   up:     0.433   0.720   4.995   0.000   6.148     0.702       -0.002
                 25   dn:     0.435   0.720   4.995   0.000   6.150
  In             26   up:     0.466   0.723   4.995   0.000   6.184     0.624       -0.009
                 26   dn:     0.472   0.727   4.994   0.000   6.192
  In             27   up:     0.466   0.723   4.995   0.000   6.184     0.624       -0.009
                 27   dn:     0.472   0.727   4.994   0.000   6.192
  In             28   up:     0.443   0.717   4.995   0.000   6.154     0.690       -0.002
                 28   dn:     0.442   0.719   4.995   0.000   6.156
  In             29   up:     0.466   0.721   4.995   0.000   6.182     0.628       -0.008
                 29   dn:     0.471   0.725   4.994   0.000   6.190
  In             30   up:     0.466   0.721   4.995   0.000   6.182     0.628       -0.008
                 30   dn:     0.471   0.725   4.994   0.000   6.190
  In             31   up:     0.466   0.721   4.995   0.000   6.182     0.628       -0.008
                 31   dn:     0.471   0.725   4.994   0.000   6.190
==============================================================================================

                 Bond                   Population        Spin       Length (A)
================================================================================
              P 14 -- In 14                  0.74        -0.00          2.54085
              P 14 -- In 16                  0.74        -0.00          2.54085
              P 25 -- In 27                  0.74        -0.00          2.54085
              P 25 -- In 26                  0.74        -0.00          2.54085
              P 23 -- In 24                  0.74        -0.00          2.54085
              P 23 -- In 23                  0.74        -0.00          2.54085
              P 25 -- In 31                  0.75        -0.00          2.54394
              P 14 -- In 30                  0.75        -0.00          2.54394
              P 23 -- In 29                  0.75        -0.00          2.54394
              P 4  -- In 19                  0.73         0.00          2.55503
              P 4  -- In 8                   0.73         0.00          2.55503
              P 4  -- In 10                  0.73         0.00          2.55503
              P 20 -- In 3                   0.67         0.00          2.55663
              P 12 -- In 2                   0.67         0.00          2.55663
              P 8  -- In 4                   0.67         0.00          2.55663
              P 30 -- In 15                  0.67         0.00          2.55732
              P 29 -- In 28                  0.67         0.00          2.55732
              P 31 -- In 22                  0.67         0.00          2.55732
              P 9  -- In 11                  0.67         0.00          2.55747
              P 17 -- In 18                  0.67         0.00          2.55747
              P 10 -- In 12                  0.67         0.00          2.55747
              P 7  -- In 7                   0.67         0.00          2.55747
              P 6  -- In 6                   0.67         0.00          2.55747
              P 19 -- In 20                  0.67         0.00          2.55747
              P 18 -- In 1                   0.64        -0.00          2.55759
              P 11 -- In 1                   0.64        -0.00          2.55759
              P 5  -- In 1                   0.64        -0.00          2.55759
              P 31 -- In 21                  0.65        -0.00          2.55824
              P 29 -- In 25                  0.65        -0.00          2.55824
              P 30 -- In 13                  0.65        -0.00          2.55824
              P 32 -- In 1                   0.64        -0.00          2.55870
              P 12 -- In 21                  0.65        -0.00          2.55891
              P 8  -- In 25                  0.65        -0.00          2.55892
              P 20 -- In 13                  0.65        -0.00          2.55892
              P 3  -- In 4                   0.65        -0.00          2.56017
              P 3  -- In 3                   0.65        -0.00          2.56017
              P 2  -- In 4                   0.65        -0.00          2.56017
              P 2  -- In 2                   0.65        -0.00          2.56017
              P 1  -- In 3                   0.65        -0.00          2.56017
              P 1  -- In 2                   0.65        -0.00          2.56017
              P 26 -- In 11                  0.66        -0.00          2.56069
              P 22 -- In 7                   0.66        -0.00          2.56069
              P 15 -- In 6                   0.65        -0.00          2.56069
              P 13 -- In 12                  0.65        -0.00          2.56069
              P 21 -- In 20                  0.66        -0.00          2.56069
              P 27 -- In 18                  0.66        -0.00          2.56069
              P 32 -- In 22                  0.65         0.00          2.56199
              P 32 -- In 15                  0.65         0.00          2.56199
              P 32 -- In 28                  0.65         0.00          2.56199
              P 7  -- In 13                  0.65        -0.00          2.56243
              P 9  -- In 13                  0.65        -0.00          2.56243
              P 19 -- In 25                  0.65        -0.00          2.56243
              P 6  -- In 21                  0.65        -0.00          2.56243
              P 17 -- In 21                  0.65        -0.00          2.56243
              P 10 -- In 25                  0.65        -0.00          2.56243
              P 27 -- In 28                  0.65        -0.00          2.56269
              P 15 -- In 15                  0.65        -0.00          2.56269
              P 22 -- In 22                  0.65        -0.00          2.56269
              P 21 -- In 22                  0.65        -0.00          2.56269
              P 26 -- In 28                  0.65        -0.00          2.56269
              P 13 -- In 15                  0.65        -0.00          2.56269
              P 24 -- In 20                  0.65        -0.00          2.56270
              P 28 -- In 18                  0.65        -0.00          2.56270
              P 28 -- In 11                  0.65        -0.00          2.56270
              P 24 -- In 7                   0.65        -0.00          2.56270
              P 16 -- In 12                  0.65        -0.00          2.56270
              P 16 -- In 6                   0.65        -0.00          2.56270
              P 19 -- In 26                  0.64         0.00          2.56458
              P 6  -- In 23                  0.64         0.00          2.56458
              P 17 -- In 24                  0.64         0.00          2.56458
              P 10 -- In 27                  0.64         0.00          2.56458
              P 7  -- In 14                  0.64         0.00          2.56458
              P 9  -- In 16                  0.64         0.00          2.56458
              P 5  -- In 7                   0.65         0.00          2.56480
              P 5  -- In 6                   0.65         0.00          2.56480
              P 18 -- In 20                  0.65         0.00          2.56480
              P 18 -- In 18                  0.65         0.00          2.56480
              P 11 -- In 12                  0.65         0.00          2.56480
              P 11 -- In 11                  0.65         0.00          2.56480
              P 27 -- In 17                  0.62         0.00          2.56520
              P 22 -- In 5                   0.62         0.00          2.56520
              P 15 -- In 5                   0.62         0.00          2.56520
              P 13 -- In 9                   0.62         0.00          2.56520
              P 26 -- In 9                   0.62         0.00          2.56520
              P 21 -- In 17                  0.62         0.00          2.56520
              P 18 -- In 3                   0.64        -0.00          2.56827
              P 11 -- In 2                   0.64        -0.00          2.56827
              P 5  -- In 4                   0.64        -0.00          2.56827
              P 30 -- In 31                  0.64         0.00          2.56962
              P 29 -- In 30                  0.64         0.00          2.56962
              P 31 -- In 30                  0.64         0.00          2.56962
              P 31 -- In 31                  0.64         0.00          2.56962
              P 30 -- In 29                  0.64         0.00          2.56962
              P 29 -- In 29                  0.64         0.00          2.56962
              P 8  -- In 14                  0.64         0.00          2.57146
              P 8  -- In 23                  0.64         0.00          2.57146
              P 12 -- In 16                  0.64         0.00          2.57146
              P 20 -- In 26                  0.64         0.00          2.57146
              P 20 -- In 24                  0.64         0.00          2.57146
              P 12 -- In 27                  0.64         0.00          2.57146
              P 17 -- In 19                  0.64        -0.00          2.57243
              P 10 -- In 10                  0.64        -0.00          2.57243
              P 9  -- In 10                  0.64        -0.00          2.57243
              P 19 -- In 19                  0.64        -0.00          2.57243
              P 7  -- In 8                   0.64        -0.00          2.57243
              P 6  -- In 8                   0.64        -0.00          2.57243
              P 16 -- In 17                  0.62         0.00          2.57520
              P 24 -- In 9                   0.62         0.00          2.57520
              P 28 -- In 5                   0.62         0.00          2.57520
              P 3  -- In 9                   0.63         0.00          2.57556
              P 2  -- In 17                  0.63         0.00          2.57556
              P 1  -- In 5                   0.63         0.00          2.57556
              P 22 -- In 24                  0.61        -0.00          2.58203
              P 21 -- In 23                  0.61        -0.00          2.58203
              P 26 -- In 26                  0.61        -0.00          2.58203
              P 15 -- In 16                  0.61        -0.00          2.58203
              P 13 -- In 14                  0.61        -0.00          2.58203
              P 27 -- In 27                  0.61        -0.00          2.58203
              P 16 -- In 30                  0.60        -0.00          2.59593
              P 24 -- In 29                  0.60        -0.00          2.59593
              P 28 -- In 31                  0.60        -0.00          2.59593
              P 3  -- In 10                  0.60        -0.00          2.60907
              P 2  -- In 19                  0.60        -0.00          2.60907
              P 1  -- In 8                   0.60        -0.00          2.60907
================================================================================

 Hirshfeld supercell size:           2           2           2
Standard grid dimensions: 240 240 240
Fine grid dimensions:     240 240 240


     Hirshfeld Analysis
     ------------------
Species   Ion     Hirshfeld Charge (e)  Spin (hbar/2)
===================================================
  P        1                -0.23        0.02
  P        2                -0.23        0.02
  P        3                -0.23        0.02
  P        4                -0.18        0.14
  P        5                -0.23        0.01
  P        6                -0.24       -0.00
  P        7                -0.24       -0.00
  P        8                -0.24       -0.00
  P        9                -0.24       -0.00
  P       10                -0.24       -0.00
  P       11                -0.23        0.01
  P       12                -0.24       -0.00
  P       13                -0.23        0.03
  P       14                -0.18        0.25
  P       15                -0.23        0.03
  P       16                -0.23        0.02
  P       17                -0.24       -0.00
  P       18                -0.23        0.01
  P       19                -0.24       -0.00
  P       20                -0.24       -0.00
  P       21                -0.23        0.03
  P       22                -0.23        0.03
  P       23                -0.18        0.25
  P       24                -0.23        0.02
  P       25                -0.18        0.25
  P       26                -0.23        0.03
  P       27                -0.23        0.03
  P       28                -0.23        0.02
  P       29                -0.24       -0.00
  P       30                -0.24       -0.00
  P       31                -0.24       -0.00
  P       32                -0.23        0.01
  In       1                 0.24        0.00
  In       2                 0.23        0.00
  In       3                 0.23        0.00
  In       4                 0.23        0.00
  In       5                 0.24        0.01
  In       6                 0.24        0.00
  In       7                 0.24        0.00
  In       8                 0.23        0.01
  In       9                 0.24        0.01
  In      10                 0.23        0.01
  In      11                 0.24        0.00
  In      12                 0.24        0.00
  In      13                 0.23       -0.00
  In      14                 0.23        0.02
  In      15                 0.24        0.00
  In      16                 0.23        0.02
  In      17                 0.24        0.01
  In      18                 0.24        0.00
  In      19                 0.23        0.01
  In      20                 0.24        0.00
  In      21                 0.23       -0.00
  In      22                 0.24        0.00
  In      23                 0.23        0.02
  In      24                 0.23        0.02
  In      25                 0.23       -0.00
  In      26                 0.23        0.02
  In      27                 0.23        0.02
  In      28                 0.24        0.00
  In      29                 0.23        0.02
  In      30                 0.23        0.02
  In      31                 0.23        0.02
===================================================

 
 A BibTeX formatted list of references used in this run has been written to 
 In_Vacancy_Migration_3->60_Singlepoints_1.bib
 
Initialisation time =     30.50 s
Calculation time    =   8442.74 s
Finalisation time   =    170.33 s
Total time          =   8643.57 s
Peak Memory Use     = 9588212 kB
 
Overall parallel efficiency rating: Poor (35%)
 
Data was distributed by:-
G-vector (3-way); efficiency rating: Poor (38%)
k-point (36-way); efficiency rating: Very good (82%)
