 +-------------------------------------------------+
 |                                                 |
 |      CCC   AA    SSS  TTTTT  EEEEE  PPPP        |
 |     C     A  A  S       T    E      P   P       |
 |     C     AAAA   SS     T    EEE    PPPP        |
 |     C     A  A     S    T    E      P           |
 |      CCC  A  A  SSS     T    EEEEE  P           |
 |                                                 |
 +-------------------------------------------------+
 |                                                 |
 | Welcome to Academic Release CASTEP version 24.1 |
 | Ab Initio Total Energy Program                  |
 |                                                 |
 | Authors:                                        |
 | M. Segall, M. Probert, C. Pickard, P. Hasnip,   |
 | S. Clark, K. Refson, J. R. Yates,               |
 | A. Bartok-Partay, M. Payne                      |
 |                                                 |
 | Contributors:                                   |
 | P. Lindan, P. Haynes, J. White, V. Milman,      |
 | N. Govind, M. Gibson, P. Tulip, V. Cocula,      |
 | B. Montanari, D. Quigley, M. Glover,            |
 | L. Bernasconi, A. Perlov, M. Plummer,           |
 | E. McNellis, J. Meyer, J. Gale, D. Jochym       |
 | J. Aarons, B. Walker, R. Gillen, D. Jones       |
 | T. Green, I. J. Bush, C. J. Armstrong,          |
 | E. J. Higgins, E. L. Brown, M. S. McFly,        |
 | J. Wilkins, B-C. Shih, P. J. P. Byrne,          |
 | R. J. Maurer, J. C. Womack, J. Dziedzic,        |
 | L. LeBlanc, T. K. Stenczel, J. Kermode,         |
 | S. Sturniolo, B. Shi, B. Durham, M. Evans,      |
 | M. J. Smith, A. Tamerus, Z. Hawkhead,           |
 | V. Ravindran, T. Hollins, S. A. Joyce,          |
 | R. T. Strong, A. M. Reilly, S. J. Donaldson     |
 |                                                 |
 | Copyright (c) 2000 - 2023                       |
 |                                                 |
 |     Distributed under license from Cambridge    |
 |     Enterprise for academic use only.           |
 |                                                 |
 | Please cite                                     |
 |                                                 |
 |     "First principles methods using CASTEP"     |
 |                                                 |
 |         Zeitschrift fuer Kristallographie       |
 |           220(5-6) pp. 567-570 (2005)           |
 |                                                 |
 | S. J. Clark, M. D. Segall, C. J. Pickard,       |
 | P. J. Hasnip, M. J. Probert, K. Refson,         |
 | M. C. Payne                                     |
 |                                                 |
 |       in all publications arising from          |
 |              your use of CASTEP                 |
 |                                                 |
 +-------------------------------------------------+
 |                                                 |
 |              http://www.castep.org              |
 |                                                 |
 +-------------------------------------------------+



 Compiled for  GNU 11.2.0 on 04-04-2024 18:39:17
 from code version 6355fd106 Castep241_branch Thu Mar 7 17:56:19 2024 +0000
 Compiler: GNU Fortran 11.2.0; Optimisation: FAST
 Comms   : MPI VERSION : CRAY MPICH version 8.1.23.14 (ANL base 3.4a2)
 MATHLIBS: default (LAPACK version 3.10.1)
 FFT Lib : fftw3 version commercial-fftw-3.3.10-sse2-avx-avx2-avx2_128
 Fundamental constants values: CODATA 2018

 Run started: Tue, 29 Apr 2025 17:52:04 +0100

 Atomic calculation performed for P: 1s2 2s2 2p6 3s2 3p3

 Converged in 47 iterations to an ae energy of -9309.074 eV

   ============================================================                
   | Pseudopotential Report - Date of generation 29-04-2025   |                
   ------------------------------------------------------------                
   | Element: P Ionic charge:  5.00 Level of theory: RSCAN    |                
   | Atomic Solver: Koelling-Harmon                           |                
   |                                                          |                
   |               Reference Electronic Structure             |                
   |         Orbital         Occupation         Energy        |                
   |            3s              2.000           -0.535        |                
   |            3p              3.000           -0.209        |                
   |                                                          |                
   |                 Pseudopotential Definition               |                
   |        Beta     l      e      Rc     scheme   norm       |                
   |          1      0   -0.535   1.807     qc      0         |                
   |          2      0    0.250   1.807     qc      0         |                
   |          3      1   -0.209   1.807     qc      0         |                
   |          4      1    0.250   1.807     qc      0         |                
   |          5      2    0.000   1.807     qc      0         |                
   |          6      2    0.250   1.807     qc      0         |                
   |         loc     3    0.000   1.807     pn      0         |                
   |                                                          |                
   | Augmentation charge Rinner = 1.263                       |                
   | Partial core correction Rc = 1.263                       |                
   ------------------------------------------------------------                
   | "3|1.8|4|4|5|30:31:32"                                   |                
   ------------------------------------------------------------                
   |      Author: Chris J. Pickard, Cambridge University      |                
   ============================================================                
 Warning: otfg_output_psp cannot write out meta-GGA pseudopotentials presently.

 Atomic calculation performed for In:
 1s2 2s2 2p6 3s2 3p6 3d10 4s2 4p6 4d10 5s2 5p1

 Converged in 84 iterations to an ae energy of -160093.328 eV

   ============================================================                
   | Pseudopotential Report - Date of generation 29-04-2025   |                
   ------------------------------------------------------------                
   | Element: In Ionic charge: 13.00 Level of theory: RSCAN   |                
   | Atomic Solver: Koelling-Harmon                           |                
   |                                                          |                
   |               Reference Electronic Structure             |                
   |         Orbital         Occupation         Energy        |                
   |            4d             10.000           -0.711        |                
   |            5s              2.000           -0.313        |                
   |            5p              1.000           -0.095        |                
   |                                                          |                
   |                 Pseudopotential Definition               |                
   |        Beta     l      e      Rc     scheme   norm       |                
   |          1      0   -0.313   2.501     qc      0         |                
   |          2      0    0.250   2.501     qc      0         |                
   |          3      1   -0.095   2.501     qc      0         |                
   |          4      1    0.250   2.501     qc      0         |                
   |          5      2   -0.711   2.207     qc      0         |                
   |          6      2    0.250   2.207     qc      0         |                
   |         loc     3    0.000   2.501     pn      0         |                
   |                                                          |                
   | Augmentation charge Rinner = 1.504                       |                
   | Partial core correction Rc = 1.504                       |                
   ------------------------------------------------------------                
   | "3|2.5|2.5|1.5|7|8|9|50:51:42U2.2U2.2"                   |                
   ------------------------------------------------------------                
   |      Author: Chris J. Pickard, Cambridge University      |                
   ============================================================                
 Warning: otfg_output_psp cannot write out meta-GGA pseudopotentials presently.

 Pseudo atomic calculation performed for P 3s2 3p3

 Converged in 23 iterations to a total energy of -208.0292 eV

 Pseudo atomic calculation performed for In 4d10 5s2 5p1

 Converged in 42 iterations to a total energy of -1747.4501 eV
 Calculation parallelised over 120 processes.
 Data is distributed by G-vector(6-way) and k-point(20-way)
 Each process may use up to 16 threads.

 ************************************ Title ************************************
 

 ***************************** General Parameters ******************************
  
 output verbosity                               : normal  (1)
 write checkpoint data to                       : 90deg_Singlepoints_7.check
 type of calculation                            : single point energy
 stress calculation                             : off
 density difference calculation                 : off
 electron localisation func (ELF) calculation   : off
 Hirshfeld analysis                             : on
 polarisation (Berry phase) analysis            : off
 molecular orbital projected DOS                : off
 deltaSCF calculation                           : off
 unlimited duration calculation
 timing information                             : on
 memory usage estimate                          : on
 write extra output files                       : on
 write final potential to formatted file        : off
 write final density to formatted file          : off
 write BibTeX reference list                    : on
 write OTFG pseudopotential files               : on
 write electrostatic potential file             : on
 write bands file                               : on
 checkpoint writing                             : off
  
 output         length unit                     : A
 output           mass unit                     : amu
 output           time unit                     : ps
 output         charge unit                     : e
 output           spin unit                     : hbar/2
 output         energy unit                     : eV
 output          force unit                     : eV/A
 output       velocity unit                     : A/ps
 output       pressure unit                     : GPa
 output     inv_length unit                     : 1/A
 output      frequency unit                     : cm-1
 output force constant unit                     : eV/A**2
 output         volume unit                     : A**3
 output   IR intensity unit                     : (D/A)**2/amu
 output         dipole unit                     : D
 output         efield unit                     : eV/A/e
 output        entropy unit                     : J/mol/K
 output    efield chi2 unit                     : pm/V
  
 wavefunctions paging                           : none
 random number generator seed                   :  175204311
 data distribution                              : optimal for this architecture
 optimization strategy                          : balance speed and memory

 *********************** Exchange-Correlation Parameters ***********************
  
 using functional                               : RSCAN
 relativistic treatment                         : Koelling-Harmon
 DFT+D: Semi-empirical dispersion correction    : off

 ************************* Pseudopotential Parameters **************************
  
 pseudopotential representation                 : reciprocal space
 <beta|phi> representation                      : reciprocal space
 spin-orbit coupling                            : off

 **************************** Basis Set Parameters *****************************
  
 plane wave basis set cut-off                   :   900.0000   eV
 size of standard grid                          :     2.0000
 size of   fine   gmax                          :    30.7390   1/A
 finite basis set correction                    : none

 **************************** Electronic Parameters ****************************
  
 number of  electrons                           :  864.0    
 net charge of system                           :  0.000    
 treating system as non-spin-polarized
 number of bands                                :        518

 ********************* Electronic Minimization Parameters **********************
  
 Method: Treating system as metallic with density mixing treatment of electrons,
         and number of  SD  steps               :          1
         and number of  CG  steps               :          4
  
 total energy / atom convergence tol.           : 0.1000E-07   eV
 eigen-energy convergence tolerance             : 0.2222E-08   eV
 max force / atom convergence tol.              : ignored
 convergence tolerance window                   :          3   cycles
 max. number of SCF cycles                      :        100
 number of fixed-spin iterations                :         10
 smearing scheme                                : Gaussian
 smearing width                                 : 0.2000       eV
 Fermi energy convergence tolerance             : 0.2721E-13   eV
 periodic dipole correction                     : NONE

 ************************** Density Mixing Parameters **************************
  
 density-mixing scheme                          : Pulay
 max. length of mixing history                  :         20
 charge density mixing amplitude                : 0.5000    
 cut-off energy for mixing                      :  900.0       eV

 *********************** Population Analysis Parameters ************************
  
 Population analysis with cutoff                :  3.000       A
 Population analysis output                     : summary and pdos components

 *******************************************************************************
  

                           -------------------------------
                                      Unit Cell
                           -------------------------------
        Real Lattice(A)                      Reciprocal Lattice(1/A)
    14.4540490    20.4411120     0.0000000        0.217350353   0.153689910   0.000000000
    14.4540490   -20.4411120     0.0000000        0.217350353  -0.153689910   0.000000000
     0.0000000     0.0000000     4.1725250        0.000000000   0.000000000   1.505847252

                       Lattice parameters(A)       Cell Angles
                    a =     25.035147          alpha =   90.000000
                    b =     25.035147          beta  =   90.000000
                    c =      4.172525          gamma =  109.471220

                       Current cell volume =          2465.602056       A**3
                                   density =             2.838254   AMU/A**3
                                           =             4.713031     g/cm^3

                           -------------------------------
                                     Cell Contents
                           -------------------------------
                         Total number of ions in cell =   96
                      Total number of species in cell =    2
                        Max number of any one species =   48

            xxxxxxxxxxxxxxxxxxxxxxxxxxxxxxxxxxxxxxxxxxxxxxxxxxxxxxxxxxxx
            x  Element    Atom        Fractional coordinates of atoms  x
            x            Number           u          v          w      x
            x----------------------------------------------------------x
            x  P            1         0.273922   0.308437   0.142257   x 
            x  P            2         0.201628   0.234851   0.332567   x 
            x  P            3         0.380845   0.240658   0.534120   x 
            x  P            4         0.508590   0.364461   0.038953   x 
            x  P            5         0.412086   0.104809   0.017509   x 
            x  P            6         0.539442   0.227794   0.521123   x 
            x  P            7         0.573893   0.093779   0.015234   x 
            x  P            8         0.449304   0.970734   0.513122   x 
            x  P            9         0.610607   0.959876   0.515551   x 
            x  P           10         0.735699   0.083382   0.009682   x 
            x  P           11         0.640539   0.824728   0.017717   x 
            x  P           12         0.775660   0.950117   0.517062   x 
            x  P           13         0.531443   0.553053   0.053743   x 
            x  P           14         0.404461   0.427728   0.572217   x 
            x  P           15         0.633619   0.487958   0.535849   x 
            x  P           16         0.757606   0.610945   0.028642   x 
            x  P           17         0.665002   0.351625   0.018917   x 
            x  P           18         0.790176   0.476821   0.509280   x 
            x  P           19         0.822201   0.343306  -0.003214   x 
            x  P           20         0.698743   0.217031   0.511028   x 
            x  P           21         0.858509   0.211547   0.480231   x 
            x  P           22         0.980031   0.337549  -0.028616   x 
            x  P           23         0.899008   0.082949  -0.037353   x 
            x  P           24         0.020462   0.209461   0.455855   x 
            x  P           25         0.781365   0.798405   0.112340   x 
            x  P           26         0.656430   0.676651   0.554544   x 
            x  P           27         0.883312   0.730588   0.516717   x 
            x  P           28         0.006719   0.853773  -0.030665   x 
            x  P           29         0.916298   0.600340  -0.001207   x 
            x  P           30         0.042728   0.724149   0.469642   x 
            x  P           31         0.074084   0.594514  -0.024939   x 
            x  P           32         0.947729   0.468797   0.486612   x 
            x  P           33         0.104876   0.464497   0.464737   x 
            x  P           34         0.230774   0.587393   0.002566   x 
            x  P           35         0.136962   0.336411  -0.066232   x 
            x  P           36         0.261595   0.455331   0.532812   x 
            x  P           37         0.079537   0.100652  -0.096674   x 
            x  P           38         0.954595   0.970967   0.361924   x 
            x  P           39         0.127594   0.981966   0.459895   x 
            x  P           40         0.252202   0.110271  -0.045961   x 
            x  P           41         0.165077   0.851553  -0.025486   x 
            x  P           42         0.288928   0.977621   0.483311   x 
            x  P           43         0.324329   0.844989  -0.001815   x 
            x  P           44         0.199759   0.719972   0.489089   x 
            x  P           45         0.356616   0.710482   0.510603   x 
            x  P           46         0.482140   0.835841   0.017836   x 
            x  P           47         0.386768   0.574964   0.029017   x 
            x  P           48         0.512370   0.699451   0.529877   x 
            x  In           1         0.238619   0.393686   0.035386   x 
            x  In           2         0.120945   0.276003   0.427328   x 
            x  In           3         0.338681   0.320850   0.619530   x 
            x  In           4         0.466675   0.446133   0.068474   x 
            x  In           5         0.356169   0.176030   0.024261   x 
            x  In           6         0.486433   0.300165   0.535580   x 
            x  In           7         0.517240   0.163764   0.020061   x 
            x  In           8         0.392751   0.040570   0.514784   x 
            x  In           9         0.554323   0.030005   0.515119   x 
            x  In          10         0.678703   0.152928   0.011460   x 
            x  In          11         0.586517   0.896016   0.016387   x 
            x  In          12         0.716274   0.018838   0.512278   x 
            x  In          13         0.490184   0.635136   0.032748   x 
            x  In          14         0.365819   0.511418   0.531333   x 
            x  In          15         0.592458   0.569966   0.552896   x 
            x  In          16         0.717391   0.693462   0.055332   x 
            x  In          17         0.612898   0.424226   0.034730   x 
            x  In          18         0.737388   0.548096   0.527241   x 
            x  In          19         0.768136   0.413551   0.008636   x 
            x  In          20         0.643796   0.287639   0.518261   x 
            x  In          21         0.801889   0.279886   0.496484   x 
            x  In          22         0.924919   0.406141  -0.013536   x 
            x  In          23         0.838670   0.148300  -0.020445   x 
            x  In          24         0.961482   0.275004   0.470421   x 
            x  In          25         0.746236   0.883752   0.025298   x 
            x  In          26         0.616481   0.759669   0.519982   x 
            x  In          27         0.844417   0.812267   0.615510   x 
            x  In          28         0.935187   0.905366  -0.147264   x 
            x  In          29         0.861613   0.669240   0.014922   x 
            x  In          30         0.986924   0.791242   0.474318   x 
            x  In          31         0.019262   0.662638  -0.029336   x 
            x  In          32         0.893436   0.537986   0.499000   x 
            x  In          33         0.050283   0.532818   0.474564   x 
            x  In          34         0.177210   0.657452  -0.010540   x 
            x  In          35         0.081389   0.403159  -0.038626   x 
            x  In          36         0.208074   0.525237   0.503102   x 
            x  In          37         1.003038   0.147425  -0.044424   x 
            x  In          38         0.880372   0.019016   0.463110   x 
            x  In          39         0.057848   0.036963   0.405535   x 
            x  In          40         0.184372   0.166794  -0.138756   x 
            x  In          41         0.108470   0.919588  -0.036791   x 
            x  In          42         0.231798   0.045954   0.456077   x 
            x  In          43         0.268512   0.914264  -0.016146   x 
            x  In          44         0.145071   0.789072   0.475275   x 
            x  In          45         0.303301   0.781646   0.498386   x 
            x  In          46         0.427961   0.907055   0.012449   x 
            x  In          47         0.334497   0.647142   0.011230   x 
            x  In          48         0.460129   0.771949   0.518357   x 
            xxxxxxxxxxxxxxxxxxxxxxxxxxxxxxxxxxxxxxxxxxxxxxxxxxxxxxxxxxxx


                         No user defined ionic velocities

                           -------------------------------
                                   Details of Species
                           -------------------------------

                               Mass of species in AMU
                                    P   30.9737600
                                    In  114.8180000

                          Electric Quadrupole Moment (Barn)
                                    P    1.0000000 No Isotope Defined
                                    In    0.7700000 Isotope115

                          Files used for pseudopotentials:
                                    P 3|1.8|4|4|5|30:31:32
                                    In 3|2.5|2.5|1.5|7|8|9|50:51:42U2.2U2.2

                           -------------------------------
                              k-Points For BZ Sampling
                           -------------------------------
                       MP grid size for SCF calculation is  2  2  8
                            with an offset of   0.250  0.250  0.062
                       Number of kpoints used =            20

                           -------------------------------
                               Symmetry and Constraints
                           -------------------------------

                      Maximum deviation from symmetry =  0.00000         ANG

                      Number of symmetry operations   =           1
                      Number of ionic constraints     =           3
                      Point group of crystal =     1: C1, 1, 1
                      Space group of crystal =     1: P1, P 1

             Set iprint > 1 for details on symmetry rotations/translations

                         Centre of mass is constrained
             Set iprint > 1 for details of linear ionic constraints

                         Number of cell constraints= 0
                         Cell constraints are:  1 2 3 4 5 6

                         External pressure/stress (GPa)
                          0.00000   0.00000   0.00000
                                    0.00000   0.00000
                                              0.00000
 
+---------------- MEMORY AND SCRATCH DISK ESTIMATES PER PROCESS --------------+
|                                                     Memory          Disk    |
| Baseline code, static data and system overhead      368.0 MB         0.0 MB |
| BLAS internal memory storage                          0.0 MB         0.0 MB |
| Model and support data                             3663.9 MB         0.0 MB |
| Electronic energy minimisation requirements         956.3 MB         0.0 MB |
| Force calculation requirements                       70.0 MB         0.0 MB |
|                                               ----------------------------- |
| Approx. total storage required per process         4988.2 MB         0.0 MB |
|                                                                             |
| Requirements will fluctuate during execution and may exceed these estimates |
+-----------------------------------------------------------------------------+
Calculating approximate eigenstates for fixed initial Hamiltonian
Cut-off for approx. calculation is   89.988 eV
Improving approx. states at cut-off of  450.000 eV
Resetting cut-off to  900.000 eV
Calculating total energy with cut-off of  900.000 eV.
------------------------------------------------------------------------ <-- SCF
SCF loop      Energy           Fermi           Energy gain       Timer   <-- SCF
                               energy          per atom          (sec)   <-- SCF
------------------------------------------------------------------------ <-- SCF
Initial  -9.45684229E+004  0.00000000E+000                       363.75  <-- SCF
      1  -9.42032873E+004  2.89626120E+000  -3.80349614E+000     699.34  <-- SCF
      2  -9.42037443E+004  2.89552978E+000   4.76111865E-003     929.36  <-- SCF
      3  -9.43038403E+004  3.13556318E+000   1.04266656E+000    1190.47  <-- SCF
      4  -9.43216543E+004  3.20177519E+000   1.85561900E-001    1581.81  <-- SCF
      5  -9.43125948E+004  3.51514836E+000  -9.43688264E-002    1840.35  <-- SCF
      6  -9.43124390E+004  3.57757143E+000  -1.62379344E-003    2099.20  <-- SCF
      7  -9.43122302E+004  3.61346269E+000  -2.17499730E-003    2375.83  <-- SCF
      8  -9.43143431E+004  3.62588597E+000   2.20097292E-002    2634.15  <-- SCF
      9  -9.43144445E+004  3.59728476E+000   1.05589540E-003    2912.22  <-- SCF
     10  -9.43144468E+004  3.60361937E+000   2.43490467E-005    3192.31  <-- SCF
     11  -9.43144636E+004  3.59913380E+000   1.74624898E-004    3457.50  <-- SCF
     12  -9.43144706E+004  3.60051368E+000   7.38175558E-005    3728.54  <-- SCF
     13  -9.43144720E+004  3.60165639E+000   1.37162106E-005    4005.39  <-- SCF
     14  -9.43144719E+004  3.60099411E+000  -2.48632673E-007    4275.78  <-- SCF
     15  -9.43144719E+004  3.60091133E+000  -1.57058298E-007    4519.87  <-- SCF
     16  -9.43144719E+004  3.60091024E+000   7.34351888E-008    4750.29  <-- SCF
     17  -9.43144719E+004  3.60098065E+000  -3.47993837E-008    4992.08  <-- SCF
     18  -9.43144719E+004  3.60101104E+000   2.42894733E-008    5192.16  <-- SCF
     19  -9.43144719E+004  3.60102790E+000   4.40319048E-009    5383.07  <-- SCF
     20  -9.43144719E+004  3.60102039E+000   1.33358925E-009    5570.48  <-- SCF
------------------------------------------------------------------------ <-- SCF
 
Final energy, E             =  -94314.45103786     eV
Final free energy (E-TS)    =  -94314.47193356     eV
(energies not corrected for finite basis set)
 
NB est. 0K energy (E-0.5TS)      =  -94314.46148571     eV
 

 ************************** Forces **************************
 *                                                          *
 *               Cartesian components (eV/A)                *
 * -------------------------------------------------------- *
 *                         x            y            z      *
 *                                                          *
 * P               1      0.01679      0.01504      0.09892 *
 * P               2      0.05178      0.04887     -0.10240 *
 * P               3      0.03278     -0.04664      0.01505 *
 * P               4     -0.10347     -0.01868     -0.00831 *
 * P               5      0.02017     -0.05118      0.02058 *
 * P               6     -0.04984     -0.04253      0.01123 *
 * P               7     -0.01717     -0.04997      0.00714 *
 * P               8      0.03146     -0.04451      0.00397 *
 * P               9      0.00687     -0.07450     -0.00684 *
 * P              10     -0.00608     -0.03989      0.00324 *
 * P              11     -0.02539     -0.07952      0.01471 *
 * P              12      0.02710     -0.05222      0.01057 *
 * P              13     -0.13545      0.01677      0.02283 *
 * P              14     -0.02905      0.02783      0.08167 *
 * P              15     -0.08801      0.02097     -0.00801 *
 * P              16     -0.02159      0.00599     -0.02924 *
 * P              17     -0.07065     -0.00048      0.00689 *
 * P              18     -0.07852      0.02564      0.00461 *
 * P              19     -0.04063      0.02251      0.00741 *
 * P              20     -0.03848      0.01419      0.00598 *
 * P              21     -0.00637     -0.00611      0.01232 *
 * P              22      0.00502      0.05821      0.02223 *
 * P              23      0.04862     -0.04844     -0.01229 *
 * P              24      0.00801      0.02509      0.00366 *
 * P              25     -0.09047      0.07550     -0.04761 *
 * P              26     -0.11643      0.01581      0.02411 *
 * P              27     -0.00658      0.00145      0.00501 *
 * P              28      0.07545     -0.03234      0.00776 *
 * P              29     -0.06287      0.07076      0.01148 *
 * P              30      0.04324      0.06050      0.00913 *
 * P              31      0.01068      0.07083     -0.00250 *
 * P              32     -0.02823      0.06881      0.01393 *
 * P              33      0.01867      0.06955     -0.01296 *
 * P              34      0.00827      0.05216     -0.00894 *
 * P              35      0.01075      0.02985      0.01962 *
 * P              36      0.00335      0.09182     -0.05124 *
 * P              37      0.10240      0.03204     -0.08636 *
 * P              38      0.13177      0.09084      0.01753 *
 * P              39      0.08738     -0.00229     -0.00532 *
 * P              40      0.09187     -0.02785     -0.00648 *
 * P              41      0.13564      0.07710      0.01068 *
 * P              42      0.09201     -0.02810     -0.00531 *
 * P              43      0.04126      0.01240     -0.00696 *
 * P              44      0.03843      0.06665     -0.00400 *
 * P              45     -0.00161      0.02495     -0.00325 *
 * P              46      0.00561     -0.02442      0.00717 *
 * P              47     -0.06625      0.04280      0.00625 *
 * P              48     -0.05442     -0.01703      0.00910 *
 * In              1     -0.04115     -0.07513      0.00503 *
 * In              2     -0.04299     -0.03628      0.00352 *
 * In              3     -0.02382      0.03472     -0.03649 *
 * In              4      0.06137      0.06167     -0.05047 *
 * In              5     -0.07047      0.05657     -0.02337 *
 * In              6      0.09523      0.02249      0.00937 *
 * In              7      0.04908      0.04503     -0.00931 *
 * In              8     -0.05538      0.01318     -0.01901 *
 * In              9     -0.00049      0.02935     -0.00541 *
 * In             10      0.02543     -0.00818     -0.00428 *
 * In             11     -0.01380      0.10113     -0.01410 *
 * In             12      0.02220      0.10984     -0.01251 *
 * In             13      0.05543      0.00021     -0.01768 *
 * In             14     -0.00562     -0.10407      0.00979 *
 * In             15      0.11153     -0.00626     -0.00194 *
 * In             16      0.06303     -0.07058      0.04421 *
 * In             17      0.09567     -0.01024     -0.00780 *
 * In             18      0.10211     -0.04711      0.00676 *
 * In             19      0.06655     -0.01439     -0.00170 *
 * In             20      0.05967     -0.01004     -0.00241 *
 * In             21      0.06327     -0.01795     -0.01092 *
 * In             22      0.03715     -0.04370     -0.00945 *
 * In             23      0.02342      0.07916     -0.00998 *
 * In             24      0.01794     -0.09466     -0.00767 *
 * In             25     -0.00375      0.10068      0.00022 *
 * In             26      0.05525      0.06731      0.01354 *
 * In             27      0.04321     -0.12317      0.00198 *
 * In             28     -0.02408      0.01337      0.01960 *
 * In             29      0.08633      0.01645      0.00989 *
 * In             30     -0.01880     -0.08405      0.00188 *
 * In             31     -0.00246     -0.08262      0.01335 *
 * In             32      0.07907     -0.05063     -0.01244 *
 * In             33      0.00706     -0.05051      0.00103 *
 * In             34     -0.03423     -0.07259      0.00515 *
 * In             35      0.00520     -0.10332      0.03057 *
 * In             36     -0.00855     -0.10303      0.00563 *
 * In             37     -0.02942     -0.02545     -0.06137 *
 * In             38     -0.01764      0.01181     -0.03952 *
 * In             39     -0.08115      0.02257     -0.00797 *
 * In             40     -0.07498      0.02454      0.06134 *
 * In             41     -0.20854      0.02411     -0.01840 *
 * In             42     -0.17921     -0.02382      0.02575 *
 * In             43     -0.13116      0.00076      0.01118 *
 * In             44     -0.08375     -0.06979      0.00860 *
 * In             45     -0.04710     -0.03870      0.00802 *
 * In             46     -0.05763      0.02549     -0.00199 *
 * In             47      0.01570     -0.04976      0.00474 *
 * In             48      0.00744      0.00736     -0.00169 *
 *                                                          *
 ************************************************************

 Pseudo atomic calculation performed for P 3s2 3p3

 Converged in 23 iterations to a total energy of -208.0292 eV

 Pseudo atomic calculation performed for In 4d10 5s2 5p1

 Converged in 42 iterations to a total energy of -1747.4501 eV
Charge spilling parameter for spin component 1 = 0.17%

            Orbital Populations       
     Ion    Atom   Orbital             Charge
  -------------------------------------------
      P     1      S                    1.732
      P     1      Px                   1.044
      P     1      Py                   1.368
      P     1      Pz                   1.334
      P     2      S                    1.742
      P     2      Px                   1.036
      P     2      Py                   1.367
      P     2      Pz                   1.329
      P     3      S                    1.745
      P     3      Px                   1.319
      P     3      Py                   1.294
      P     3      Pz                   1.309
      P     4      S                    1.740
      P     4      Px                   1.318
      P     4      Py                   1.315
      P     4      Pz                   1.300
      P     5      S                    1.744
      P     5      Px                   1.318
      P     5      Py                   1.293
      P     5      Pz                   1.310
      P     6      S                    1.740
      P     6      Px                   1.318
      P     6      Py                   1.302
      P     6      Pz                   1.311
      P     7      S                    1.741
      P     7      Px                   1.319
      P     7      Py                   1.299
      P     7      Pz                   1.310
      P     8      S                    1.741
      P     8      Px                   1.320
      P     8      Py                   1.299
      P     8      Pz                   1.308
      P     9      S                    1.743
      P     9      Px                   1.314
      P     9      Py                   1.301
      P     9      Pz                   1.310
      P    10      S                    1.743
      P    10      Px                   1.312
      P    10      Py                   1.300
      P    10      Pz                   1.314
      P    11      S                    1.743
      P    11      Px                   1.310
      P    11      Py                   1.307
      P    11      Pz                   1.301
      P    12      S                    1.755
      P    12      Px                   1.294
      P    12      Py                   1.296
      P    12      Pz                   1.308
      P    13      S                    1.739
      P    13      Px                   1.284
      P    13      Py                   1.317
      P    13      Pz                   1.331
      P    14      S                    1.744
      P    14      Px                   1.271
      P    14      Py                   1.323
      P    14      Pz                   1.330
      P    15      S                    1.738
      P    15      Px                   1.321
      P    15      Py                   1.318
      P    15      Pz                   1.299
      P    16      S                    1.735
      P    16      Px                   1.320
      P    16      Py                   1.323
      P    16      Pz                   1.299
      P    17      S                    1.737
      P    17      Px                   1.316
      P    17      Py                   1.311
      P    17      Pz                   1.306
      P    18      S                    1.734
      P    18      Px                   1.316
      P    18      Py                   1.319
      P    18      Pz                   1.305
      P    19      S                    1.734
      P    19      Px                   1.313
      P    19      Py                   1.318
      P    19      Pz                   1.309
      P    20      S                    1.739
      P    20      Px                   1.316
      P    20      Py                   1.305
      P    20      Pz                   1.311
      P    21      S                    1.736
      P    21      Px                   1.312
      P    21      Py                   1.313
      P    21      Pz                   1.313
      P    22      S                    1.730
      P    22      Px                   1.311
      P    22      Py                   1.325
      P    22      Pz                   1.310
      P    23      S                    1.742
      P    23      Px                   1.289
      P    23      Py                   1.305
      P    23      Pz                   1.323
      P    24      S                    1.732
      P    24      Px                   1.289
      P    24      Py                   1.315
      P    24      Pz                   1.333
      P    25      S                    1.741
      P    25      Px                   1.281
      P    25      Py                   1.303
      P    25      Pz                   1.321
      P    26      S                    1.739
      P    26      Px                   1.287
      P    26      Py                   1.311
      P    26      Pz                   1.333
      P    27      S                    1.730
      P    27      Px                   1.304
      P    27      Py                   1.346
      P    27      Pz                   1.296
      P    28      S                    1.734
      P    28      Px                   1.293
      P    28      Py                   1.336
      P    28      Pz                   1.298
      P    29      S                    1.731
      P    29      Px                   1.310
      P    29      Py                   1.332
      P    29      Pz                   1.303
      P    30      S                    1.728
      P    30      Px                   1.310
      P    30      Py                   1.334
      P    30      Pz                   1.306
      P    31      S                    1.728
      P    31      Px                   1.310
      P    31      Py                   1.335
      P    31      Pz                   1.305
      P    32      S                    1.731
      P    32      Px                   1.309
      P    32      Py                   1.329
      P    32      Pz                   1.306
      P    33      S                    1.727
      P    33      Px                   1.313
      P    33      Py                   1.333
      P    33      Pz                   1.305
      P    34      S                    1.731
      P    34      Px                   1.315
      P    34      Py                   1.324
      P    34      Pz                   1.303
      P    35      S                    1.721
      P    35      Px                   1.328
      P    35      Py                   1.325
      P    35      Pz                   1.304
      P    36      S                    1.730
      P    36      Px                   1.328
      P    36      Py                   1.322
      P    36      Pz                   1.285
      P    37      S                    1.749
      P    37      Px                   1.263
      P    37      Py                   1.321
      P    37      Pz                   1.327
      P    38      S                    1.749
      P    38      Px                   1.260
      P    38      Py                   1.301
      P    38      Pz                   1.323
      P    39      S                    1.737
      P    39      Px                   1.305
      P    39      Py                   1.316
      P    39      Pz                   1.312
      P    40      S                    1.746
      P    40      Px                   1.313
      P    40      Py                   1.292
      P    40      Pz                   1.313
      P    41      S                    1.734
      P    41      Px                   1.308
      P    41      Py                   1.326
      P    41      Pz                   1.305
      P    42      S                    1.739
      P    42      Px                   1.317
      P    42      Py                   1.301
      P    42      Pz                   1.312
      P    43      S                    1.737
      P    43      Px                   1.315
      P    43      Py                   1.313
      P    43      Pz                   1.306
      P    44      S                    1.732
      P    44      Px                   1.313
      P    44      Py                   1.325
      P    44      Pz                   1.304
      P    45      S                    1.736
      P    45      Px                   1.316
      P    45      Py                   1.316
      P    45      Pz                   1.303
      P    46      S                    1.739
      P    46      Px                   1.315
      P    46      Py                   1.310
      P    46      Pz                   1.304
      P    47      S                    1.734
      P    47      Px                   1.324
      P    47      Py                   1.315
      P    47      Pz                   1.297
      P    48      S                    1.737
      P    48      Px                   1.320
      P    48      Py                   1.312
      P    48      Pz                   1.299
     In     1      Dzz                  1.997
     In     1      Dzy                  1.998
     In     1      Dzx                  1.997
     In     1      Dxx-yy               1.998
     In     1      Dxy                  1.998
     In     1      S                    1.411
     In     1      Px                   0.498
     In     1      Py                   0.455
     In     1      Pz                   0.488
     In     1      S                   -0.497
     In     2      Dzz                  1.997
     In     2      Dzy                  1.998
     In     2      Dzx                  1.998
     In     2      Dxx-yy               1.997
     In     2      Dxy                  1.998
     In     2      S                    1.406
     In     2      Px                   0.498
     In     2      Py                   0.463
     In     2      Pz                   0.491
     In     2      S                   -0.511
     In     3      Dzz                  1.998
     In     3      Dzy                  1.998
     In     3      Dzx                  1.998
     In     3      Dxx-yy               1.998
     In     3      Dxy                  1.999
     In     3      S                    1.424
     In     3      Px                   0.465
     In     3      Py                   0.480
     In     3      Pz                   0.454
     In     3      S                   -0.485
     In     4      Dzz                  1.998
     In     4      Dzy                  1.998
     In     4      Dzx                  1.998
     In     4      Dxx-yy               1.998
     In     4      Dxy                  1.999
     In     4      S                    1.422
     In     4      Px                   0.474
     In     4      Py                   0.468
     In     4      Pz                   0.481
     In     4      S                   -0.513
     In     5      Dzz                  1.998
     In     5      Dzy                  1.999
     In     5      Dzx                  1.998
     In     5      Dxx-yy               1.998
     In     5      Dxy                  1.999
     In     5      S                    1.431
     In     5      Px                   0.481
     In     5      Py                   0.472
     In     5      Pz                   0.461
     In     5      S                   -0.504
     In     6      Dzz                  1.998
     In     6      Dzy                  1.999
     In     6      Dzx                  1.998
     In     6      Dxx-yy               1.998
     In     6      Dxy                  1.998
     In     6      S                    1.422
     In     6      Px                   0.479
     In     6      Py                   0.476
     In     6      Pz                   0.474
     In     6      S                   -0.499
     In     7      Dzz                  1.998
     In     7      Dzy                  1.999
     In     7      Dzx                  1.998
     In     7      Dxx-yy               1.998
     In     7      Dxy                  1.998
     In     7      S                    1.417
     In     7      Px                   0.483
     In     7      Py                   0.479
     In     7      Pz                   0.473
     In     7      S                   -0.506
     In     8      Dzz                  1.998
     In     8      Dzy                  1.999
     In     8      Dzx                  1.998
     In     8      Dxx-yy               1.997
     In     8      Dxy                  1.999
     In     8      S                    1.417
     In     8      Px                   0.484
     In     8      Py                   0.479
     In     8      Pz                   0.470
     In     8      S                   -0.507
     In     9      Dzz                  1.998
     In     9      Dzy                  1.999
     In     9      Dzx                  1.998
     In     9      Dxx-yy               1.998
     In     9      Dxy                  1.998
     In     9      S                    1.417
     In     9      Px                   0.481
     In     9      Py                   0.482
     In     9      Pz                   0.474
     In     9      S                   -0.502
     In    10      Dzz                  1.998
     In    10      Dzy                  1.999
     In    10      Dzx                  1.998
     In    10      Dxx-yy               1.997
     In    10      Dxy                  1.998
     In    10      S                    1.419
     In    10      Px                   0.484
     In    10      Py                   0.480
     In    10      Pz                   0.472
     In    10      S                   -0.507
     In    11      Dzz                  1.998
     In    11      Dzy                  1.999
     In    11      Dzx                  1.998
     In    11      Dxx-yy               1.997
     In    11      Dxy                  1.998
     In    11      S                    1.419
     In    11      Px                   0.488
     In    11      Py                   0.485
     In    11      Pz                   0.472
     In    11      S                   -0.502
     In    12      Dzz                  1.998
     In    12      Dzy                  1.999
     In    12      Dzx                  1.998
     In    12      Dxx-yy               1.998
     In    12      Dxy                  1.999
     In    12      S                    1.409
     In    12      Px                   0.479
     In    12      Py                   0.483
     In    12      Pz                   0.468
     In    12      S                   -0.490
     In    13      Dzz                  1.998
     In    13      Dzy                  1.999
     In    13      Dzx                  1.998
     In    13      Dxx-yy               1.998
     In    13      Dxy                  1.998
     In    13      S                    1.421
     In    13      Px                   0.488
     In    13      Py                   0.471
     In    13      Pz                   0.472
     In    13      S                   -0.512
     In    14      Dzz                  1.997
     In    14      Dzy                  1.999
     In    14      Dzx                  1.998
     In    14      Dxx-yy               1.998
     In    14      Dxy                  1.998
     In    14      S                    1.420
     In    14      Px                   0.491
     In    14      Py                   0.469
     In    14      Pz                   0.477
     In    14      S                   -0.516
     In    15      Dzz                  1.998
     In    15      Dzy                  1.998
     In    15      Dzx                  1.998
     In    15      Dxx-yy               1.998
     In    15      Dxy                  1.998
     In    15      S                    1.426
     In    15      Px                   0.474
     In    15      Py                   0.465
     In    15      Pz                   0.488
     In    15      S                   -0.528
     In    16      Dzz                  1.998
     In    16      Dzy                  1.998
     In    16      Dzx                  1.998
     In    16      Dxx-yy               1.997
     In    16      Dxy                  1.998
     In    16      S                    1.419
     In    16      Px                   0.472
     In    16      Py                   0.464
     In    16      Pz                   0.491
     In    16      S                   -0.513
     In    17      Dzz                  1.998
     In    17      Dzy                  1.998
     In    17      Dzx                  1.998
     In    17      Dxx-yy               1.997
     In    17      Dxy                  1.998
     In    17      S                    1.421
     In    17      Px                   0.485
     In    17      Py                   0.476
     In    17      Pz                   0.478
     In    17      S                   -0.521
     In    18      Dzz                  1.997
     In    18      Dzy                  1.998
     In    18      Dzx                  1.998
     In    18      Dxx-yy               1.997
     In    18      Dxy                  1.998
     In    18      S                    1.422
     In    18      Px                   0.488
     In    18      Py                   0.478
     In    18      Pz                   0.482
     In    18      S                   -0.531
     In    19      Dzz                  1.997
     In    19      Dzy                  1.998
     In    19      Dzx                  1.998
     In    19      Dxx-yy               1.997
     In    19      Dxy                  1.998
     In    19      S                    1.422
     In    19      Px                   0.490
     In    19      Py                   0.479
     In    19      Pz                   0.477
     In    19      S                   -0.532
     In    20      Dzz                  1.998
     In    20      Dzy                  1.999
     In    20      Dzx                  1.998
     In    20      Dxx-yy               1.997
     In    20      Dxy                  1.998
     In    20      S                    1.418
     In    20      Px                   0.485
     In    20      Py                   0.479
     In    20      Pz                   0.473
     In    20      S                   -0.514
     In    21      Dzz                  1.998
     In    21      Dzy                  1.998
     In    21      Dzx                  1.998
     In    21      Dxx-yy               1.997
     In    21      Dxy                  1.998
     In    21      S                    1.422
     In    21      Px                   0.488
     In    21      Py                   0.481
     In    21      Pz                   0.475
     In    21      S                   -0.523
     In    22      Dzz                  1.997
     In    22      Dzy                  1.998
     In    22      Dzx                  1.998
     In    22      Dxx-yy               1.997
     In    22      Dxy                  1.998
     In    22      S                    1.423
     In    22      Px                   0.494
     In    22      Py                   0.478
     In    22      Pz                   0.479
     In    22      S                   -0.540
     In    23      Dzz                  1.998
     In    23      Dzy                  1.998
     In    23      Dzx                  1.998
     In    23      Dxx-yy               1.997
     In    23      Dxy                  1.998
     In    23      S                    1.422
     In    23      Px                   0.485
     In    23      Py                   0.484
     In    23      Pz                   0.475
     In    23      S                   -0.515
     In    24      Dzz                  1.997
     In    24      Dzy                  1.998
     In    24      Dzx                  1.998
     In    24      Dxx-yy               1.997
     In    24      Dxy                  1.998
     In    24      S                    1.427
     In    24      Px                   0.489
     In    24      Py                   0.478
     In    24      Pz                   0.477
     In    24      S                   -0.541
     In    25      Dzz                  1.998
     In    25      Dzy                  1.999
     In    25      Dzx                  1.998
     In    25      Dxx-yy               1.998
     In    25      Dxy                  1.998
     In    25      S                    1.419
     In    25      Px                   0.491
     In    25      Py                   0.472
     In    25      Pz                   0.459
     In    25      S                   -0.500
     In    26      Dzz                  1.998
     In    26      Dzy                  1.999
     In    26      Dzx                  1.998
     In    26      Dxx-yy               1.998
     In    26      Dxy                  1.998
     In    26      S                    1.416
     In    26      Px                   0.486
     In    26      Py                   0.470
     In    26      Pz                   0.467
     In    26      S                   -0.492
     In    27      Dzz                  1.998
     In    27      Dzy                  1.998
     In    27      Dzx                  1.997
     In    27      Dxx-yy               1.997
     In    27      Dxy                  1.999
     In    27      S                    1.440
     In    27      Px                   0.637
     In    27      Py                   0.442
     In    27      Pz                   0.482
     In    27      S                   -0.431
     In    28      Dzz                  1.998
     In    28      Dzy                  1.998
     In    28      Dzx                  1.997
     In    28      Dxx-yy               1.997
     In    28      Dxy                  1.999
     In    28      S                    1.438
     In    28      Px                   0.628
     In    28      Py                   0.458
     In    28      Pz                   0.466
     In    28      S                   -0.433
     In    29      Dzz                  1.997
     In    29      Dzy                  1.998
     In    29      Dzx                  1.997
     In    29      Dxx-yy               1.997
     In    29      Dxy                  1.998
     In    29      S                    1.415
     In    29      Px                   0.490
     In    29      Py                   0.477
     In    29      Pz                   0.494
     In    29      S                   -0.541
     In    30      Dzz                  1.997
     In    30      Dzy                  1.998
     In    30      Dzx                  1.998
     In    30      Dxx-yy               1.997
     In    30      Dxy                  1.998
     In    30      S                    1.412
     In    30      Px                   0.495
     In    30      Py                   0.472
     In    30      Pz                   0.483
     In    30      S                   -0.555
     In    31      Dzz                  1.997
     In    31      Dzy                  1.998
     In    31      Dzx                  1.997
     In    31      Dxx-yy               1.997
     In    31      Dxy                  1.998
     In    31      S                    1.426
     In    31      Px                   0.492
     In    31      Py                   0.477
     In    31      Pz                   0.483
     In    31      S                   -0.547
     In    32      Dzz                  1.997
     In    32      Dzy                  1.998
     In    32      Dzx                  1.998
     In    32      Dxx-yy               1.997
     In    32      Dxy                  1.998
     In    32      S                    1.421
     In    32      Px                   0.491
     In    32      Py                   0.478
     In    32      Pz                   0.484
     In    32      S                   -0.547
     In    33      Dzz                  1.997
     In    33      Dzy                  1.998
     In    33      Dzx                  1.997
     In    33      Dxx-yy               1.997
     In    33      Dxy                  1.998
     In    33      S                    1.421
     In    33      Px                   0.493
     In    33      Py                   0.478
     In    33      Pz                   0.483
     In    33      S                   -0.547
     In    34      Dzz                  1.997
     In    34      Dzy                  1.998
     In    34      Dzx                  1.998
     In    34      Dxx-yy               1.997
     In    34      Dxy                  1.998
     In    34      S                    1.426
     In    34      Px                   0.491
     In    34      Py                   0.476
     In    34      Pz                   0.478
     In    34      S                   -0.544
     In    35      Dzz                  1.997
     In    35      Dzy                  1.998
     In    35      Dzx                  1.997
     In    35      Dxx-yy               1.997
     In    35      Dxy                  1.998
     In    35      S                    1.431
     In    35      Px                   0.497
     In    35      Py                   0.475
     In    35      Pz                   0.483
     In    35      S                   -0.564
     In    36      Dzz                  1.997
     In    36      Dzy                  1.998
     In    36      Dzx                  1.997
     In    36      Dxx-yy               1.997
     In    36      Dxy                  1.998
     In    36      S                    1.431
     In    36      Px                   0.492
     In    36      Py                   0.475
     In    36      Pz                   0.481
     In    36      S                   -0.548
     In    37      Dzz                  1.998
     In    37      Dzy                  1.998
     In    37      Dzx                  1.998
     In    37      Dxx-yy               1.997
     In    37      Dxy                  1.998
     In    37      S                    1.420
     In    37      Px                   0.487
     In    37      Py                   0.476
     In    37      Pz                   0.476
     In    37      S                   -0.513
     In    38      Dzz                  1.998
     In    38      Dzy                  1.998
     In    38      Dzx                  1.998
     In    38      Dxx-yy               1.998
     In    38      Dxy                  1.999
     In    38      S                    1.419
     In    38      Px                   0.474
     In    38      Py                   0.484
     In    38      Pz                   0.472
     In    38      S                   -0.509
     In    39      Dzz                  1.998
     In    39      Dzy                  1.998
     In    39      Dzx                  1.998
     In    39      Dxx-yy               1.997
     In    39      Dxy                  1.999
     In    39      S                    1.426
     In    39      Px                   0.487
     In    39      Py                   0.482
     In    39      Pz                   0.470
     In    39      S                   -0.490
     In    40      Dzz                  1.998
     In    40      Dzy                  1.998
     In    40      Dzx                  1.998
     In    40      Dxx-yy               1.997
     In    40      Dxy                  1.999
     In    40      S                    1.429
     In    40      Px                   0.476
     In    40      Py                   0.491
     In    40      Pz                   0.434
     In    40      S                   -0.486
     In    41      Dzz                  1.997
     In    41      Dzy                  1.998
     In    41      Dzx                  1.998
     In    41      Dxx-yy               1.997
     In    41      Dxy                  1.998
     In    41      S                    1.430
     In    41      Px                   0.498
     In    41      Py                   0.476
     In    41      Pz                   0.474
     In    41      S                   -0.539
     In    42      Dzz                  1.998
     In    42      Dzy                  1.998
     In    42      Dzx                  1.998
     In    42      Dxx-yy               1.997
     In    42      Dxy                  1.999
     In    42      S                    1.427
     In    42      Px                   0.485
     In    42      Py                   0.485
     In    42      Pz                   0.465
     In    42      S                   -0.510
     In    43      Dzz                  1.998
     In    43      Dzy                  1.998
     In    43      Dzx                  1.998
     In    43      Dxx-yy               1.997
     In    43      Dxy                  1.998
     In    43      S                    1.425
     In    43      Px                   0.492
     In    43      Py                   0.479
     In    43      Pz                   0.470
     In    43      S                   -0.520
     In    44      Dzz                  1.997
     In    44      Dzy                  1.998
     In    44      Dzx                  1.998
     In    44      Dxx-yy               1.997
     In    44      Dxy                  1.998
     In    44      S                    1.428
     In    44      Px                   0.492
     In    44      Py                   0.476
     In    44      Pz                   0.477
     In    44      S                   -0.538
     In    45      Dzz                  1.997
     In    45      Dzy                  1.998
     In    45      Dzx                  1.998
     In    45      Dxx-yy               1.997
     In    45      Dxy                  1.998
     In    45      S                    1.424
     In    45      Px                   0.491
     In    45      Py                   0.478
     In    45      Pz                   0.474
     In    45      S                   -0.530
     In    46      Dzz                  1.998
     In    46      Dzy                  1.999
     In    46      Dzx                  1.998
     In    46      Dxx-yy               1.997
     In    46      Dxy                  1.998
     In    46      S                    1.419
     In    46      Px                   0.488
     In    46      Py                   0.480
     In    46      Pz                   0.473
     In    46      S                   -0.512
     In    47      Dzz                  1.997
     In    47      Dzy                  1.998
     In    47      Dzx                  1.998
     In    47      Dxx-yy               1.997
     In    47      Dxy                  1.998
     In    47      S                    1.427
     In    47      Px                   0.491
     In    47      Py                   0.476
     In    47      Pz                   0.476
     In    47      S                   -0.528
     In    48      Dzz                  1.998
     In    48      Dzy                  1.999
     In    48      Dzx                  1.998
     In    48      Dxx-yy               1.997
     In    48      Dxy                  1.998
     In    48      S                    1.421
     In    48      Px                   0.489
     In    48      Py                   0.480
     In    48      Pz                   0.472
     In    48      S                   -0.519
  -------------------------------------------
                           Total:     864.000
  -------------------------------------------

     Atomic Populations (Mulliken)
     -----------------------------
Species          Ion     s       p       d       f      Total   Charge (e)
==========================================================================
  P               1     1.732   3.746   0.000   0.000   5.478    -0.478
  P               2     1.742   3.731   0.000   0.000   5.474    -0.474
  P               3     1.745   3.921   0.000   0.000   5.666    -0.666
  P               4     1.740   3.933   0.000   0.000   5.673    -0.673
  P               5     1.744   3.920   0.000   0.000   5.664    -0.664
  P               6     1.740   3.930   0.000   0.000   5.670    -0.670
  P               7     1.741   3.928   0.000   0.000   5.669    -0.669
  P               8     1.741   3.927   0.000   0.000   5.668    -0.668
  P               9     1.743   3.924   0.000   0.000   5.667    -0.667
  P              10     1.743   3.925   0.000   0.000   5.668    -0.668
  P              11     1.743   3.918   0.000   0.000   5.661    -0.661
  P              12     1.755   3.897   0.000   0.000   5.652    -0.652
  P              13     1.739   3.932   0.000   0.000   5.671    -0.671
  P              14     1.744   3.924   0.000   0.000   5.668    -0.668
  P              15     1.738   3.938   0.000   0.000   5.676    -0.676
  P              16     1.735   3.942   0.000   0.000   5.678    -0.678
  P              17     1.737   3.934   0.000   0.000   5.671    -0.671
  P              18     1.734   3.940   0.000   0.000   5.674    -0.674
  P              19     1.734   3.940   0.000   0.000   5.674    -0.674
  P              20     1.739   3.931   0.000   0.000   5.670    -0.670
  P              21     1.736   3.937   0.000   0.000   5.673    -0.673
  P              22     1.730   3.946   0.000   0.000   5.676    -0.676
  P              23     1.742   3.918   0.000   0.000   5.660    -0.660
  P              24     1.732   3.937   0.000   0.000   5.669    -0.669
  P              25     1.741   3.905   0.000   0.000   5.646    -0.646
  P              26     1.739   3.931   0.000   0.000   5.670    -0.670
  P              27     1.730   3.947   0.000   0.000   5.676    -0.676
  P              28     1.734   3.928   0.000   0.000   5.661    -0.661
  P              29     1.731   3.944   0.000   0.000   5.676    -0.676
  P              30     1.728   3.950   0.000   0.000   5.678    -0.678
  P              31     1.728   3.950   0.000   0.000   5.678    -0.678
  P              32     1.731   3.945   0.000   0.000   5.676    -0.676
  P              33     1.727   3.951   0.000   0.000   5.678    -0.678
  P              34     1.731   3.942   0.000   0.000   5.673    -0.673
  P              35     1.721   3.957   0.000   0.000   5.678    -0.678
  P              36     1.730   3.935   0.000   0.000   5.665    -0.665
  P              37     1.749   3.911   0.000   0.000   5.660    -0.660
  P              38     1.749   3.884   0.000   0.000   5.633    -0.633
  P              39     1.737   3.933   0.000   0.000   5.670    -0.670
  P              40     1.746   3.918   0.000   0.000   5.664    -0.664
  P              41     1.734   3.938   0.000   0.000   5.673    -0.673
  P              42     1.739   3.931   0.000   0.000   5.669    -0.669
  P              43     1.737   3.934   0.000   0.000   5.671    -0.671
  P              44     1.732   3.942   0.000   0.000   5.674    -0.674
  P              45     1.736   3.935   0.000   0.000   5.671    -0.671
  P              46     1.739   3.929   0.000   0.000   5.669    -0.669
  P              47     1.734   3.935   0.000   0.000   5.670    -0.670
  P              48     1.737   3.931   0.000   0.000   5.668    -0.668
  In              1     0.914   1.442   9.988   0.000  12.344     0.656
  In              2     0.896   1.453   9.988   0.000  12.336     0.664
  In              3     0.939   1.399   9.991   0.000  12.329     0.671
  In              4     0.909   1.422   9.990   0.000  12.322     0.678
  In              5     0.927   1.414   9.991   0.000  12.332     0.668
  In              6     0.923   1.428   9.990   0.000  12.341     0.659
  In              7     0.911   1.435   9.990   0.000  12.336     0.664
  In              8     0.910   1.433   9.990   0.000  12.333     0.667
  In              9     0.915   1.438   9.990   0.000  12.343     0.657
  In             10     0.912   1.436   9.990   0.000  12.338     0.662
  In             11     0.917   1.444   9.990   0.000  12.351     0.649
  In             12     0.919   1.430   9.991   0.000  12.339     0.661
  In             13     0.910   1.431   9.990   0.000  12.331     0.669
  In             14     0.904   1.437   9.989   0.000  12.330     0.670
  In             15     0.898   1.426   9.990   0.000  12.314     0.686
  In             16     0.906   1.427   9.989   0.000  12.323     0.677
  In             17     0.901   1.439   9.990   0.000  12.329     0.671
  In             18     0.891   1.448   9.989   0.000  12.327     0.673
  In             19     0.890   1.446   9.989   0.000  12.325     0.675
  In             20     0.904   1.437   9.990   0.000  12.331     0.669
  In             21     0.898   1.443   9.989   0.000  12.331     0.669
  In             22     0.882   1.451   9.989   0.000  12.322     0.678
  In             23     0.907   1.444   9.989   0.000  12.341     0.659
  In             24     0.886   1.445   9.989   0.000  12.320     0.680
  In             25     0.919   1.422   9.991   0.000  12.332     0.668
  In             26     0.923   1.423   9.990   0.000  12.336     0.664
  In             27     1.009   1.561   9.989   0.000  12.559     0.441
  In             28     1.006   1.553   9.989   0.000  12.548     0.452
  In             29     0.875   1.461   9.988   0.000  12.324     0.676
  In             30     0.858   1.450   9.989   0.000  12.297     0.703
  In             31     0.880   1.452   9.988   0.000  12.320     0.680
  In             32     0.874   1.454   9.988   0.000  12.317     0.683
  In             33     0.874   1.453   9.988   0.000  12.316     0.684
  In             34     0.882   1.446   9.989   0.000  12.316     0.684
  In             35     0.867   1.455   9.988   0.000  12.310     0.690
  In             36     0.883   1.448   9.988   0.000  12.319     0.681
  In             37     0.907   1.439   9.989   0.000  12.335     0.665
  In             38     0.910   1.430   9.990   0.000  12.331     0.669
  In             39     0.936   1.439   9.990   0.000  12.365     0.635
  In             40     0.943   1.401   9.991   0.000  12.335     0.665
  In             41     0.891   1.448   9.989   0.000  12.327     0.673
  In             42     0.917   1.434   9.990   0.000  12.342     0.658
  In             43     0.905   1.441   9.989   0.000  12.335     0.665
  In             44     0.890   1.445   9.989   0.000  12.324     0.676
  In             45     0.894   1.443   9.989   0.000  12.326     0.674
  In             46     0.907   1.441   9.990   0.000  12.337     0.663
  In             47     0.899   1.443   9.989   0.000  12.330     0.670
  In             48     0.902   1.441   9.989   0.000  12.332     0.668
==========================================================================

                 Bond                   Population      Length (A)
======================================================================
              P 1  -- P 2                    0.53        2.25329
              P 35 -- In 1                   0.58        2.50599
              P 35 -- In 2                   1.38        2.50693
              P 35 -- In 35                  0.56        2.50823
              P 24 -- In 2                   0.61        2.51473
              P 36 -- In 14                  0.55        2.51743
              P 30 -- In 30                  0.57        2.51754
              P 31 -- In 31                  0.56        2.52058
              P 33 -- In 33                  0.56        2.52066
              P 1  -- In 3                   1.23        2.52089
              P 22 -- In 35                  0.57        2.52190
              P 47 -- In 13                  0.55        2.52440
              P 16 -- In 29                  0.52        2.52583
              P 18 -- In 32                  0.56        2.52794
              P 34 -- In 47                  0.57        2.52829
              P 19 -- In 22                  0.56        2.52833
              P 33 -- In 36                  0.58        2.52858
              P 33 -- In 35                  1.38        2.52904
              P 17 -- In 19                  0.55        2.53049
              P 28 -- In 41                  0.61        2.53107
              P 15 -- In 18                  0.51        2.53170
              P 29 -- In 31                  0.56        2.53194
              P 26 -- In 16                  1.31        2.53317
              P 27 -- In 29                  1.42        2.53358
              P 13 -- In 15                  1.33        2.53362
              P 32 -- In 33                  0.57        2.53375
              P 32 -- In 32                  0.57        2.53381
              P 45 -- In 48                  0.56        2.53498
              P 29 -- In 29                  0.57        2.53545
              P 36 -- In 1                   1.39        2.53546
              P 30 -- In 44                  0.57        2.53590
              P 22 -- In 22                  0.57        2.53695
              P 44 -- In 45                  0.57        2.53706
              P 36 -- In 36                  0.54        2.53712
              P 20 -- In 21                  0.55        2.53752
              P 27 -- In 30                  0.56        2.53765
              P 31 -- In 34                  0.57        2.53770
              P 21 -- In 24                  0.57        2.53791
              P 28 -- In 30                  1.38        2.53875
              P 34 -- In 34                  0.55        2.53879
              P 14 -- In 4                   1.29        2.53917
              P 30 -- In 31                  1.36        2.53931
              P 48 -- In 26                  0.56        2.53936
              P 44 -- In 44                  0.56        2.53956
              P 4  -- In 17                  0.51        2.54037
              P 6  -- In 20                  0.54        2.54179
              P 43 -- In 46                  0.56        2.54197
              P 41 -- In 43                  0.57        2.54197
              P 39 -- In 41                  1.31        2.54254
              P 2  -- In 40                  1.15        2.54291
              P 31 -- In 33                  1.37        2.54381
              P 46 -- In 11                  0.54        2.54430
              P 7  -- In 10                  0.54        2.54709
              P 24 -- In 24                  0.54        2.54787
              P 34 -- In 36                  1.36        2.54911
              P 24 -- In 37                  1.32        2.54919
              P 18 -- In 18                  0.58        2.55113
              P 10 -- In 23                  0.54        2.55138
              P 8  -- In 9                   0.55        2.55218
              P 19 -- In 19                  0.58        2.55225
              P 41 -- In 44                  1.35        2.55238
              P 3  -- In 5                   1.29        2.55257
              P 29 -- In 32                  1.37        2.55298
              P 22 -- In 24                  1.36        2.55312
              P 5  -- In 7                   0.54        2.55313
              P 41 -- In 41                  0.55        2.55361
              P 44 -- In 34                  1.35        2.55451
              P 42 -- In 8                   0.55        2.55460
              P 16 -- In 18                  1.39        2.55521
              P 32 -- In 22                  1.36        2.55721
              P 45 -- In 45                  0.56        2.55802
              P 25 -- In 27                  1.27        2.55822
              P 21 -- In 21                  0.57        2.56082
              P 47 -- In 47                  0.56        2.56119
              P 47 -- In 14                  1.34        2.56163
              P 38 -- In 38                  0.58        2.56286
              P 21 -- In 23                  1.33        2.56326
              P 18 -- In 19                  1.35        2.56360
              P 9  -- In 12                  0.55        2.56397
              P 37 -- In 39                  1.22        2.56401
              P 45 -- In 47                  1.34        2.56464
              P 42 -- In 43                  1.32        2.56509
              P 43 -- In 43                  0.56        2.56510
              P 11 -- In 25                  0.53        2.56512
              P 37 -- In 37                  0.54        2.56544
              P 3  -- In 6                   0.51        2.56547
              P 43 -- In 45                  1.33        2.56600
              P 39 -- In 42                  0.57        2.56633
              P 23 -- In 37                  0.58        2.56646
              P 19 -- In 21                  1.33        2.56680
              P 48 -- In 48                  0.57        2.56700
              P 17 -- In 17                  0.57        2.56711
              P 38 -- In 28                  1.24        2.56815
              P 15 -- In 17                  1.37        2.56828
              P 4  -- In 6                   1.35        2.56854
              P 38 -- In 39                  0.56        2.56858
              P 39 -- In 39                  0.56        2.56880
              P 8  -- In 46                  1.32        2.56902
              P 5  -- In 8                   1.32        2.57039
              P 48 -- In 13                  1.33        2.57050
              P 23 -- In 23                  0.56        2.57122
              P 9  -- In 11                  1.31        2.57195
              P 42 -- In 42                  0.56        2.57223
              P 46 -- In 48                  1.33        2.57255
              P 7  -- In 9                   1.32        2.57257
              P 6  -- In 7                   1.32        2.57266
              P 17 -- In 20                  1.33        2.57333
              P 40 -- In 42                  1.27        2.57340
              P 11 -- In 11                  0.57        2.57360
              P 23 -- In 38                  1.28        2.57412
              P 27 -- In 27                  0.53        2.57427
              P 46 -- In 46                  0.56        2.57508
              P 10 -- In 12                  1.32        2.57509
              P 20 -- In 10                  1.32        2.57593
              P 40 -- In 40                  0.56        2.57641
              P 20 -- In 20                  0.57        2.57663
              P 6  -- In 6                   0.57        2.57885
              P 28 -- In 28                  0.53        2.57954
              P 11 -- In 26                  1.31        2.58355
              P 16 -- In 16                  0.55        2.58460
              P 3  -- In 3                   0.55        2.58547
              P 2  -- In 2                   0.54        2.58557
              P 15 -- In 15                  0.55        2.58698
              P 12 -- In 25                  1.26        2.58794
              P 14 -- In 14                  0.52        2.58961
              P 8  -- In 8                   0.57        2.59065
              P 13 -- In 13                  0.53        2.59084
              P 40 -- In 5                   0.52        2.59118
              P 9  -- In 9                   0.56        2.59174
              P 25 -- In 16                  0.58        2.59209
              P 25 -- In 25                  0.56        2.59297
              P 10 -- In 10                  0.56        2.59302
              P 26 -- In 26                  0.54        2.59353
              P 4  -- In 4                   0.55        2.59373
              P 7  -- In 7                   0.57        2.59586
              P 37 -- In 40                  0.58        2.60073
              P 1  -- In 1                   0.49        2.60623
              P 5  -- In 5                   0.56        2.60841
              P 26 -- In 15                  0.57        2.61667
              P 12 -- In 12                  0.55        2.62219
              P 12 -- In 38                  0.54        2.62367
              P 13 -- In 4                   0.57        2.62762
              P 14 -- In 3                   0.58        2.64060
             In 27 -- In 28                 -0.33        2.83639
======================================================================

 Hirshfeld supercell size:           1           1           4
Standard grid dimensions: 250 250 180
Fine grid dimensions:     250 250 180


     Hirshfeld Analysis
     ------------------
Species   Ion     Hirshfeld Charge (e)
======================================
  P        1                -0.15
  P        2                -0.14
  P        3                -0.24
  P        4                -0.25
  P        5                -0.24
  P        6                -0.24
  P        7                -0.24
  P        8                -0.24
  P        9                -0.24
  P       10                -0.24
  P       11                -0.24
  P       12                -0.23
  P       13                -0.24
  P       14                -0.24
  P       15                -0.24
  P       16                -0.24
  P       17                -0.24
  P       18                -0.24
  P       19                -0.24
  P       20                -0.24
  P       21                -0.24
  P       22                -0.24
  P       23                -0.24
  P       24                -0.23
  P       25                -0.25
  P       26                -0.24
  P       27                -0.25
  P       28                -0.24
  P       29                -0.24
  P       30                -0.24
  P       31                -0.24
  P       32                -0.24
  P       33                -0.24
  P       34                -0.24
  P       35                -0.25
  P       36                -0.24
  P       37                -0.24
  P       38                -0.24
  P       39                -0.24
  P       40                -0.24
  P       41                -0.24
  P       42                -0.24
  P       43                -0.24
  P       44                -0.24
  P       45                -0.24
  P       46                -0.24
  P       47                -0.24
  P       48                -0.24
  In       1                 0.24
  In       2                 0.24
  In       3                 0.25
  In       4                 0.24
  In       5                 0.25
  In       6                 0.24
  In       7                 0.24
  In       8                 0.24
  In       9                 0.24
  In      10                 0.24
  In      11                 0.23
  In      12                 0.24
  In      13                 0.24
  In      14                 0.24
  In      15                 0.24
  In      16                 0.24
  In      17                 0.24
  In      18                 0.23
  In      19                 0.24
  In      20                 0.24
  In      21                 0.24
  In      22                 0.24
  In      23                 0.24
  In      24                 0.24
  In      25                 0.25
  In      26                 0.25
  In      27                 0.15
  In      28                 0.15
  In      29                 0.23
  In      30                 0.23
  In      31                 0.24
  In      32                 0.24
  In      33                 0.24
  In      34                 0.24
  In      35                 0.24
  In      36                 0.24
  In      37                 0.24
  In      38                 0.24
  In      39                 0.23
  In      40                 0.25
  In      41                 0.23
  In      42                 0.24
  In      43                 0.24
  In      44                 0.24
  In      45                 0.24
  In      46                 0.24
  In      47                 0.24
  In      48                 0.24
======================================

 
 A BibTeX formatted list of references used in this run has been written to 
 90deg_Singlepoints_7.bib
 
Initialisation time =     30.45 s
Calculation time    =   5749.47 s
Finalisation time   =     67.80 s
Total time          =   5847.72 s
Peak Memory Use     = 8580900 kB
 
Overall parallel efficiency rating: Terrible (32%)
 
Data was distributed by:-
G-vector (6-way); efficiency rating: Poor (35%)
k-point (20-way); efficiency rating: Very good (80%)
