 +-------------------------------------------------+
 |                                                 |
 |      CCC   AA    SSS  TTTTT  EEEEE  PPPP        |
 |     C     A  A  S       T    E      P   P       |
 |     C     AAAA   SS     T    EEE    PPPP        |
 |     C     A  A     S    T    E      P           |
 |      CCC  A  A  SSS     T    EEEEE  P           |
 |                                                 |
 +-------------------------------------------------+
 |                                                 |
 | Welcome to Academic Release CASTEP version 24.1 |
 | Ab Initio Total Energy Program                  |
 |                                                 |
 | Authors:                                        |
 | M. Segall, M. Probert, C. Pickard, P. Hasnip,   |
 | S. Clark, K. Refson, J. R. Yates,               |
 | A. Bartok-Partay, M. Payne                      |
 |                                                 |
 | Contributors:                                   |
 | P. Lindan, P. Haynes, J. White, V. Milman,      |
 | N. Govind, M. Gibson, P. Tulip, V. Cocula,      |
 | B. Montanari, D. Quigley, M. Glover,            |
 | L. Bernasconi, A. Perlov, M. Plummer,           |
 | E. McNellis, J. Meyer, J. Gale, D. Jochym       |
 | J. Aarons, B. Walker, R. Gillen, D. Jones       |
 | T. Green, I. J. Bush, C. J. Armstrong,          |
 | E. J. Higgins, E. L. Brown, M. S. McFly,        |
 | J. Wilkins, B-C. Shih, P. J. P. Byrne,          |
 | R. J. Maurer, J. C. Womack, J. Dziedzic,        |
 | L. LeBlanc, T. K. Stenczel, J. Kermode,         |
 | S. Sturniolo, B. Shi, B. Durham, M. Evans,      |
 | M. J. Smith, A. Tamerus, Z. Hawkhead,           |
 | V. Ravindran, T. Hollins, S. A. Joyce,          |
 | R. T. Strong, A. M. Reilly, S. J. Donaldson     |
 |                                                 |
 | Copyright (c) 2000 - 2023                       |
 |                                                 |
 |     Distributed under license from Cambridge    |
 |     Enterprise for academic use only.           |
 |                                                 |
 | Please cite                                     |
 |                                                 |
 |     "First principles methods using CASTEP"     |
 |                                                 |
 |         Zeitschrift fuer Kristallographie       |
 |           220(5-6) pp. 567-570 (2005)           |
 |                                                 |
 | S. J. Clark, M. D. Segall, C. J. Pickard,       |
 | P. J. Hasnip, M. J. Probert, K. Refson,         |
 | M. C. Payne                                     |
 |                                                 |
 |       in all publications arising from          |
 |              your use of CASTEP                 |
 |                                                 |
 +-------------------------------------------------+
 |                                                 |
 |              http://www.castep.org              |
 |                                                 |
 +-------------------------------------------------+



 Compiled for  GNU 11.2.0 on 04-04-2024 18:39:17
 from code version 6355fd106 Castep241_branch Thu Mar 7 17:56:19 2024 +0000
 Compiler: GNU Fortran 11.2.0; Optimisation: FAST
 Comms   : MPI VERSION : CRAY MPICH version 8.1.23.14 (ANL base 3.4a2)
 MATHLIBS: default (LAPACK version 3.10.1)
 FFT Lib : fftw3 version commercial-fftw-3.3.10-sse2-avx-avx2-avx2_128
 Fundamental constants values: CODATA 2018

 Run started: Tue, 29 Apr 2025 13:33:19 +0100

 Atomic calculation performed for P: 1s2 2s2 2p6 3s2 3p3

 Converged in 47 iterations to an ae energy of -9309.074 eV

   ============================================================                
   | Pseudopotential Report - Date of generation 29-04-2025   |                
   ------------------------------------------------------------                
   | Element: P Ionic charge:  5.00 Level of theory: RSCAN    |                
   | Atomic Solver: Koelling-Harmon                           |                
   |                                                          |                
   |               Reference Electronic Structure             |                
   |         Orbital         Occupation         Energy        |                
   |            3s              2.000           -0.535        |                
   |            3p              3.000           -0.209        |                
   |                                                          |                
   |                 Pseudopotential Definition               |                
   |        Beta     l      e      Rc     scheme   norm       |                
   |          1      0   -0.535   1.807     qc      0         |                
   |          2      0    0.250   1.807     qc      0         |                
   |          3      1   -0.209   1.807     qc      0         |                
   |          4      1    0.250   1.807     qc      0         |                
   |          5      2    0.000   1.807     qc      0         |                
   |          6      2    0.250   1.807     qc      0         |                
   |         loc     3    0.000   1.807     pn      0         |                
   |                                                          |                
   | Augmentation charge Rinner = 1.263                       |                
   | Partial core correction Rc = 1.263                       |                
   ------------------------------------------------------------                
   | "3|1.8|4|4|5|30:31:32"                                   |                
   ------------------------------------------------------------                
   |      Author: Chris J. Pickard, Cambridge University      |                
   ============================================================                
 Warning: otfg_output_psp cannot write out meta-GGA pseudopotentials presently.

 Atomic calculation performed for In:
 1s2 2s2 2p6 3s2 3p6 3d10 4s2 4p6 4d10 5s2 5p1

 Converged in 84 iterations to an ae energy of -160093.328 eV

   ============================================================                
   | Pseudopotential Report - Date of generation 29-04-2025   |                
   ------------------------------------------------------------                
   | Element: In Ionic charge: 13.00 Level of theory: RSCAN   |                
   | Atomic Solver: Koelling-Harmon                           |                
   |                                                          |                
   |               Reference Electronic Structure             |                
   |         Orbital         Occupation         Energy        |                
   |            4d             10.000           -0.711        |                
   |            5s              2.000           -0.313        |                
   |            5p              1.000           -0.095        |                
   |                                                          |                
   |                 Pseudopotential Definition               |                
   |        Beta     l      e      Rc     scheme   norm       |                
   |          1      0   -0.313   2.501     qc      0         |                
   |          2      0    0.250   2.501     qc      0         |                
   |          3      1   -0.095   2.501     qc      0         |                
   |          4      1    0.250   2.501     qc      0         |                
   |          5      2   -0.711   2.207     qc      0         |                
   |          6      2    0.250   2.207     qc      0         |                
   |         loc     3    0.000   2.501     pn      0         |                
   |                                                          |                
   | Augmentation charge Rinner = 1.504                       |                
   | Partial core correction Rc = 1.504                       |                
   ------------------------------------------------------------                
   | "3|2.5|2.5|1.5|7|8|9|50:51:42U2.2U2.2"                   |                
   ------------------------------------------------------------                
   |      Author: Chris J. Pickard, Cambridge University      |                
   ============================================================                
 Warning: otfg_output_psp cannot write out meta-GGA pseudopotentials presently.

 Pseudo atomic calculation performed for P 3s2 3p3

 Converged in 23 iterations to a total energy of -208.0292 eV

 Pseudo atomic calculation performed for In 4d10 5s2 5p1

 Converged in 42 iterations to a total energy of -1747.4501 eV
 Calculation parallelised over 108 processes.
 Data is distributed by G-vector(3-way) and k-point(36-way)
 Each process may use up to 16 threads.

 ************************************ Title ************************************
 

 ***************************** General Parameters ******************************
  
 output verbosity                               : normal  (1)
 write checkpoint data to                       : P_Interstitial_Migration_Dumbbell#_Dumbbell+_Singlepoints_6.check
 type of calculation                            : single point energy
 stress calculation                             : off
 density difference calculation                 : off
 electron localisation func (ELF) calculation   : off
 Hirshfeld analysis                             : on
 polarisation (Berry phase) analysis            : off
 molecular orbital projected DOS                : off
 deltaSCF calculation                           : off
 unlimited duration calculation
 timing information                             : on
 memory usage estimate                          : on
 write extra output files                       : on
 write final potential to formatted file        : off
 write final density to formatted file          : off
 write BibTeX reference list                    : on
 write OTFG pseudopotential files               : on
 write electrostatic potential file             : on
 write bands file                               : on
 checkpoint writing                             : off
  
 output         length unit                     : A
 output           mass unit                     : amu
 output           time unit                     : ps
 output         charge unit                     : e
 output           spin unit                     : hbar/2
 output         energy unit                     : eV
 output          force unit                     : eV/A
 output       velocity unit                     : A/ps
 output       pressure unit                     : GPa
 output     inv_length unit                     : 1/A
 output      frequency unit                     : cm-1
 output force constant unit                     : eV/A**2
 output         volume unit                     : A**3
 output   IR intensity unit                     : (D/A)**2/amu
 output         dipole unit                     : D
 output         efield unit                     : eV/A/e
 output        entropy unit                     : J/mol/K
 output    efield chi2 unit                     : pm/V
  
 wavefunctions paging                           : none
 random number generator seed                   :  133319435
 data distribution                              : optimal for this architecture
 optimization strategy                          : balance speed and memory

 *********************** Exchange-Correlation Parameters ***********************
  
 using functional                               : RSCAN
 relativistic treatment                         : Koelling-Harmon
 DFT+D: Semi-empirical dispersion correction    : off

 ************************* Pseudopotential Parameters **************************
  
 pseudopotential representation                 : reciprocal space
 <beta|phi> representation                      : reciprocal space
 spin-orbit coupling                            : off

 **************************** Basis Set Parameters *****************************
  
 plane wave basis set cut-off                   :   900.0000   eV
 size of standard grid                          :     2.0000
 size of   fine   gmax                          :    30.7390   1/A
 finite basis set correction                    : none

 **************************** Electronic Parameters ****************************
  
 number of  electrons                           :  581.0    
 net charge of system                           :  0.000    
 net spin   of system                           :  1.000    
 number of  up  spins                           :  291.0    
 number of down spins                           :  290.0    
 treating system as spin-polarized
 number of bands                                :        349

 ********************* Electronic Minimization Parameters **********************
  
 Method: Treating system as metallic with density mixing treatment of electrons,
         and number of  SD  steps               :          1
         and number of  CG  steps               :          4
  
 total energy / atom convergence tol.           : 0.1000E-07   eV
 eigen-energy convergence tolerance             : 0.2234E-08   eV
 max force / atom convergence tol.              : ignored
 convergence tolerance window                   :          3   cycles
 max. number of SCF cycles                      :        100
 number of fixed-spin iterations                :         10
 smearing scheme                                : Gaussian
 smearing width                                 : 0.2000       eV
 Fermi energy convergence tolerance             : 0.2721E-13   eV
 periodic dipole correction                     : NONE

 ************************** Density Mixing Parameters **************************
  
 density-mixing scheme                          : Pulay
 max. length of mixing history                  :         20
 charge density mixing amplitude                : 0.5000    
   spin density mixing amplitude                :  2.000    
 cut-off energy for mixing                      :  900.0       eV

 *********************** Population Analysis Parameters ************************
  
 Population analysis with cutoff                :  3.000       A
 Population analysis output                     : summary and pdos components

 *******************************************************************************
  

                           -------------------------------
                                      Unit Cell
                           -------------------------------
        Real Lattice(A)                      Reciprocal Lattice(1/A)
    11.8016820    -0.0000080    -0.0000080        0.532397442   0.000000361   0.000000361
    -0.0000080    11.8016820    -0.0000080        0.000000361   0.532397442   0.000000361
    -0.0000080    -0.0000080    11.8016820        0.000000361   0.000000361   0.532397442

                       Lattice parameters(A)       Cell Angles
                    a =     11.801682          alpha =   90.000078
                    b =     11.801682          beta  =   90.000078
                    c =     11.801682          gamma =   90.000078

                       Current cell volume =          1643.734705       A**3
                                   density =             2.857097   AMU/A**3
                                           =             4.744322     g/cm^3

                           -------------------------------
                                     Cell Contents
                           -------------------------------
                         Total number of ions in cell =   65
                      Total number of species in cell =    2
                        Max number of any one species =   33

            xxxxxxxxxxxxxxxxxxxxxxxxxxxxxxxxxxxxxxxxxxxxxxxxxxxxxxxxxxxx
            x  Element    Atom        Fractional coordinates of atoms  x
            x            Number           u          v          w      x
            x----------------------------------------------------------x
            x  P            1         0.120826   0.119520   0.374323   x 
            x  P            2         0.333994   0.064891   0.064768   x 
            x  P            3         0.120826   0.374446   0.119397   x 
            x  P            4         0.379770   0.381312   0.381189   x 
            x  P            5         0.116815   0.119055   0.862505   x 
            x  P            6         0.373953   0.120425   0.620249   x 
            x  P            7         0.124340   0.369515   0.618555   x 
            x  P            8         0.373823   0.369595   0.870432   x 
            x  P            9         0.124340   0.618678   0.369392   x 
            x  P           10         0.373953   0.620372   0.120302   x 
            x  P           11         0.116815   0.862628   0.118932   x 
            x  P           12         0.373823   0.870555   0.369471   x 
            x  P           13         0.123321   0.620370   0.869912   x 
            x  P           14         0.369661   0.622146   0.622023   x 
            x  P           15         0.123321   0.870035   0.620247   x 
            x  P           16         0.376305   0.865167   0.865044   x 
            x  P           17         0.630353   0.118275   0.374247   x 
            x  P           18         0.877278   0.120244   0.120121   x 
            x  P           19         0.630353   0.374370   0.118152   x 
            x  P           20         0.875466   0.370350   0.370227   x 
            x  P           21         0.627559   0.122708   0.868458   x 
            x  P           22         0.870954   0.120096   0.620374   x 
            x  P           23         0.624902   0.371441   0.621873   x 
            x  P           24         0.875032   0.371350   0.869715   x 
            x  P           25         0.624902   0.621996   0.371318   x 
            x  P           26         0.870954   0.620497   0.119973   x 
            x  P           27         0.627559   0.868581   0.122585   x 
            x  P           28         0.875032   0.869838   0.371226   x 
            x  P           29         0.622986   0.619771   0.869922   x 
            x  P           30         0.873657   0.620172   0.620049   x 
            x  P           31         0.622986   0.870045   0.619648   x 
            x  P           32         0.872772   0.869196   0.869073   x 
            x  P           33         0.335696   0.192881   0.192758   x 
            x  In           1        -0.001174  -0.006556  -0.006679   x 
            x  In           2         0.235768  -0.015083   0.250575   x 
            x  In           3         0.001957   0.245612   0.245489   x 
            x  In           4         0.235768   0.250699  -0.015206   x 
            x  In           5        -0.003394  -0.004339   0.498393   x 
            x  In           6         0.249925  -0.006465   0.745195   x 
            x  In           7        -0.004503   0.246691   0.740549   x 
            x  In           8         0.252241   0.246668   0.492785   x 
            x  In           9        -0.003394   0.498516  -0.004463   x 
            x  In          10         0.252241   0.492908   0.246545   x 
            x  In          11        -0.004503   0.740672   0.246567   x 
            x  In          12         0.249925   0.745318  -0.006588   x 
            x  In          13        -0.000333   0.495716   0.495593   x 
            x  In          14         0.247292   0.493961   0.745738   x 
            x  In          15        -0.001074   0.744782   0.744659   x 
            x  In          16         0.247292   0.745861   0.493838   x 
            x  In          17         0.512215  -0.014667  -0.014790   x 
            x  In          18         0.753243  -0.004412   0.244750   x 
            x  In          19         0.519441   0.262028   0.261905   x 
            x  In          20         0.753243   0.244873  -0.004535   x 
            x  In          21         0.498029  -0.004132   0.495269   x 
            x  In          22         0.748641  -0.005873   0.744384   x 
            x  In          23         0.498631   0.245495   0.744665   x 
            x  In          24         0.750993   0.247773   0.496886   x 
            x  In          25         0.498029   0.495392  -0.004255   x 
            x  In          26         0.750993   0.497009   0.247649   x 
            x  In          27         0.498631   0.744788   0.245372   x 
            x  In          28         0.748641   0.744507  -0.005996   x 
            x  In          29         0.501783   0.503878   0.503755   x 
            x  In          30         0.749422   0.495742   0.746521   x 
            x  In          31         0.498780   0.742321   0.742198   x 
            x  In          32         0.749422   0.746644   0.495619   x 
            xxxxxxxxxxxxxxxxxxxxxxxxxxxxxxxxxxxxxxxxxxxxxxxxxxxxxxxxxxxx


                         No user defined ionic velocities

                           -------------------------------
                                   Details of Species
                           -------------------------------

                               Mass of species in AMU
                                    P   30.9737600
                                    In  114.8180000

                          Electric Quadrupole Moment (Barn)
                                    P    1.0000000 No Isotope Defined
                                    In    0.7700000 Isotope115

                          Files used for pseudopotentials:
                                    P 3|1.8|4|4|5|30:31:32
                                    In 3|2.5|2.5|1.5|7|8|9|50:51:42U2.2U2.2

                           -------------------------------
                              k-Points For BZ Sampling
                           -------------------------------
                       MP grid size for SCF calculation is  4  4  4
                            with an offset of   0.125  0.125  0.125
                       Number of kpoints used =            36

                           -------------------------------
                               Symmetry and Constraints
                           -------------------------------

                      Maximum deviation from symmetry =  0.00000         ANG

                      Number of symmetry operations   =           1
                      Number of ionic constraints     =           3
                      Point group of crystal =     1: C1, 1, 1
                      Space group of crystal =     8: Cm, C -2y

             Set iprint > 1 for details on symmetry rotations/translations

                         Centre of mass is constrained
             Set iprint > 1 for details of linear ionic constraints

                         Number of cell constraints= 0
                         Cell constraints are:  1 2 3 4 5 6

                         External pressure/stress (GPa)
                          0.00000   0.00000   0.00000
                                    0.00000   0.00000
                                              0.00000
 
+---------------- MEMORY AND SCRATCH DISK ESTIMATES PER PROCESS --------------+
|                                                     Memory          Disk    |
| Baseline code, static data and system overhead      368.0 MB         0.0 MB |
| BLAS internal memory storage                          0.0 MB         0.0 MB |
| Model and support data                             4327.0 MB         0.0 MB |
| Electronic energy minimisation requirements        1337.1 MB         0.0 MB |
| Force calculation requirements                      127.4 MB         0.0 MB |
|                                               ----------------------------- |
| Approx. total storage required per process         6032.2 MB         0.0 MB |
|                                                                             |
| Requirements will fluctuate during execution and may exceed these estimates |
+-----------------------------------------------------------------------------+
Calculating approximate eigenstates for fixed initial Hamiltonian
Cut-off for approx. calculation is   89.988 eV
Improving approx. states at cut-off of  450.000 eV
Resetting cut-off to  900.000 eV
Calculating total energy with cut-off of  900.000 eV.
------------------------------------------------------------------------ <-- SCF
SCF loop      Energy           Fermi           Energy gain       Timer   <-- SCF
                               energy          per atom          (sec)   <-- SCF
------------------------------------------------------------------------ <-- SCF
Initial  -6.32544730E+004  0.00000000E+000                       440.29  <-- SCF
      1  -6.30179313E+004  2.90665769E+000  -3.63910262E+000     907.20  <-- SCF
      2  -6.30182153E+004  2.90623669E+000   4.36995912E-003    1226.93  <-- SCF
      3  -6.30841846E+004  3.18971365E+000   1.01491242E+000    1582.43  <-- SCF
      4  -6.30957821E+004  3.27366538E+000   1.78422407E-001    2075.62  <-- SCF
      5  -6.31016600E+004  3.44417209E+000   9.04290431E-002    2435.69  <-- SCF
      6  -6.30903046E+004  3.63284646E+000  -1.74698744E-001    2784.99  <-- SCF
      7  -6.30889681E+004  3.68055173E+000  -2.05607756E-002    3149.27  <-- SCF
      8  -6.30891208E+004  3.72034033E+000   2.34857465E-003    3519.05  <-- SCF
      9  -6.30899454E+004  3.74517898E+000   1.26864736E-002    3884.08  <-- SCF
     10  -6.30902174E+004  3.72554514E+000   4.18416703E-003    4241.89  <-- SCF
     11  -6.30902243E+004  3.71879256E+000   1.06724399E-004    4608.01  <-- SCF
     12  -6.30902270E+004  3.71284185E+000   4.17087932E-005    4959.80  <-- SCF
     13  -6.30902282E+004  3.71227665E+000   1.77178164E-005    5319.39  <-- SCF
     14  -6.30902284E+004  3.71132919E+000   4.14562337E-006    5684.75  <-- SCF
     15  -6.30902285E+004  3.71062079E+000   1.00581118E-006    6043.72  <-- SCF
     16  -6.30902285E+004  3.71053743E+000   2.87043535E-007    6350.31  <-- SCF
     17  -6.30902285E+004  3.71039181E+000   8.07554811E-008    6639.07  <-- SCF
     18  -6.30902285E+004  3.71043903E+000   2.73102833E-008    6891.16  <-- SCF
     19  -6.30902285E+004  3.71047970E+000   9.10425271E-009    7144.04  <-- SCF
     20  -6.30902285E+004  3.71048217E+000   2.70330988E-009    7396.21  <-- SCF
     21  -6.30902285E+004  3.71048482E+000   7.26657311E-010    7638.51  <-- SCF
------------------------------------------------------------------------ <-- SCF
 
Integrated Spin Density     =    0.995212     hbar/2
Integrated |Spin Density|   =     1.21750     hbar/2
 
Final energy, E             =  -63090.22502527     eV
Final free energy (E-TS)    =  -63090.22853310     eV
(energies not corrected for finite basis set)
 
NB est. 0K energy (E-0.5TS)      =  -63090.22677919     eV
 

 ************************** Forces **************************
 *                                                          *
 *               Cartesian components (eV/A)                *
 * -------------------------------------------------------- *
 *                         x            y            z      *
 *                                                          *
 * P               1      0.01094     -0.00141      0.03331 *
 * P               2      0.03383      0.01807      0.01816 *
 * P               3      0.01094      0.03395     -0.00132 *
 * P               4     -0.00676     -0.03221     -0.03242 *
 * P               5      0.00209      0.02398     -0.01916 *
 * P               6     -0.02959     -0.00539      0.00268 *
 * P               7     -0.00173     -0.01156      0.02162 *
 * P               8      0.03141      0.00341      0.01565 *
 * P               9     -0.00173      0.02170     -0.01138 *
 * P              10     -0.02960      0.00228     -0.00497 *
 * P              11      0.00214     -0.01943      0.02389 *
 * P              12      0.03143      0.01527      0.00354 *
 * P              13      0.00197     -0.01175      0.02121 *
 * P              14      0.04426      0.01043      0.01063 *
 * P              15      0.00196      0.02085     -0.01134 *
 * P              16     -0.01461      0.01237      0.01212 *
 * P              17     -0.01582      0.02367     -0.02567 *
 * P              18      0.00501     -0.00660     -0.00624 *
 * P              19     -0.01570     -0.02510      0.02331 *
 * P              20      0.01987      0.01609      0.01647 *
 * P              21      0.01673     -0.02930      0.01191 *
 * P              22      0.02347      0.01018      0.00567 *
 * P              23     -0.01837      0.01444      0.00480 *
 * P              24      0.01355     -0.00282      0.00078 *
 * P              25     -0.01835      0.00456      0.01480 *
 * P              26      0.02347      0.00519      0.01053 *
 * P              27      0.01688      0.01217     -0.02940 *
 * P              28      0.01352      0.00061     -0.00251 *
 * P              29     -0.01483     -0.00460     -0.01431 *
 * P              30     -0.00714      0.00453      0.00492 *
 * P              31     -0.01483     -0.01466     -0.00433 *
 * P              32      0.01485     -0.00253     -0.00246 *
 * P              33      0.01357      0.00663      0.00716 *
 * In              1     -0.01166      0.03026      0.03010 *
 * In              2     -0.06654     -0.03908     -0.03477 *
 * In              3     -0.07847     -0.00949     -0.00963 *
 * In              4     -0.06653     -0.03463     -0.03923 *
 * In              5     -0.02176     -0.00090     -0.01116 *
 * In              6      0.00603      0.04201     -0.00265 *
 * In              7     -0.01700     -0.03043      0.00909 *
 * In              8      0.00999      0.00186      0.01842 *
 * In              9     -0.02176     -0.01101     -0.00103 *
 * In             10      0.00999      0.01857      0.00171 *
 * In             11     -0.01699      0.00924     -0.03057 *
 * In             12      0.00602     -0.00252      0.04187 *
 * In             13     -0.00228      0.00750      0.00735 *
 * In             14     -0.02326      0.03631     -0.03956 *
 * In             15     -0.00842     -0.01400     -0.01416 *
 * In             16     -0.02327     -0.03942      0.03617 *
 * In             17      0.01657     -0.01361     -0.01375 *
 * In             18     -0.01335     -0.01082      0.04870 *
 * In             19      0.02382     -0.01215     -0.01228 *
 * In             20     -0.01334      0.04884     -0.01097 *
 * In             21      0.05165      0.05240     -0.01279 *
 * In             22     -0.00929      0.04444     -0.01465 *
 * In             23      0.03639     -0.04041     -0.01041 *
 * In             24     -0.01391     -0.06500      0.00326 *
 * In             25      0.05166     -0.01265      0.05226 *
 * In             26     -0.01391      0.00340     -0.06515 *
 * In             27      0.03639     -0.01026     -0.04056 *
 * In             28     -0.00930     -0.01449      0.04429 *
 * In             29     -0.02545     -0.03304     -0.03317 *
 * In             30      0.02641     -0.00368      0.00358 *
 * In             31      0.01230      0.00603      0.00588 *
 * In             32      0.02642      0.00373     -0.00382 *
 *                                                          *
 ************************************************************

 Pseudo atomic calculation performed for P 3s2 3p3

 Converged in 23 iterations to a total energy of -208.0292 eV

 Pseudo atomic calculation performed for In 4d10 5s2 5p1

 Converged in 42 iterations to a total energy of -1747.4501 eV
Charge spilling parameter for spin component 1 = 0.18%
Charge spilling parameter for spin component 2 = 0.18%

                   Orbital Populations                  
  ---------------------------------------------------------------
     Ion    Atom   Orbital              Up        Down      Spin
  ---------------------------------------------------------------
      P     1      S                    0.873     0.868     0.005
      P     1      Px                   0.659     0.643     0.016
      P     1      Py                   0.650     0.646     0.004
      P     1      Pz                   0.652     0.647     0.005
      P     2      S                    0.886     0.880     0.007
      P     2      Px                   0.710     0.704     0.006
      P     2      Py                   0.645     0.500     0.145
      P     2      Pz                   0.645     0.500     0.145
      P     3      S                    0.873     0.868     0.005
      P     3      Px                   0.659     0.643     0.016
      P     3      Py                   0.652     0.647     0.005
      P     3      Pz                   0.650     0.646     0.004
      P     4      S                    0.867     0.867     0.000
      P     4      Px                   0.646     0.646    -0.000
      P     4      Py                   0.660     0.657     0.003
      P     4      Pz                   0.660     0.657     0.003
      P     5      S                    0.872     0.867     0.005
      P     5      Px                   0.662     0.646     0.016
      P     5      Py                   0.653     0.645     0.008
      P     5      Pz                   0.658     0.648     0.010
      P     6      S                    0.867     0.867    -0.000
      P     6      Px                   0.659     0.659    -0.000
      P     6      Py                   0.657     0.657    -0.000
      P     6      Pz                   0.655     0.655    -0.000
      P     7      S                    0.867     0.867     0.000
      P     7      Px                   0.655     0.655     0.000
      P     7      Py                   0.658     0.658     0.000
      P     7      Pz                   0.656     0.656     0.000
      P     8      S                    0.868     0.868    -0.000
      P     8      Px                   0.653     0.653    -0.001
      P     8      Py                   0.658     0.658    -0.000
      P     8      Pz                   0.658     0.659    -0.001
      P     9      S                    0.867     0.867     0.000
      P     9      Px                   0.655     0.655     0.000
      P     9      Py                   0.656     0.656     0.000
      P     9      Pz                   0.658     0.658     0.000
      P    10      S                    0.867     0.867    -0.000
      P    10      Px                   0.659     0.659    -0.000
      P    10      Py                   0.655     0.655    -0.000
      P    10      Pz                   0.657     0.657    -0.000
      P    11      S                    0.872     0.867     0.005
      P    11      Px                   0.662     0.646     0.016
      P    11      Py                   0.658     0.648     0.010
      P    11      Pz                   0.653     0.645     0.008
      P    12      S                    0.868     0.868    -0.000
      P    12      Px                   0.653     0.653    -0.001
      P    12      Py                   0.658     0.659    -0.001
      P    12      Pz                   0.658     0.658    -0.000
      P    13      S                    0.867     0.867    -0.000
      P    13      Px                   0.656     0.656    -0.000
      P    13      Py                   0.656     0.656    -0.000
      P    13      Pz                   0.658     0.658    -0.000
      P    14      S                    0.864     0.864    -0.000
      P    14      Px                   0.652     0.653    -0.001
      P    14      Py                   0.661     0.662    -0.001
      P    14      Pz                   0.661     0.662    -0.001
      P    15      S                    0.867     0.867    -0.000
      P    15      Px                   0.656     0.656    -0.000
      P    15      Py                   0.658     0.658    -0.000
      P    15      Pz                   0.656     0.656    -0.000
      P    16      S                    0.866     0.866    -0.000
      P    16      Px                   0.649     0.649    -0.000
      P    16      Py                   0.659     0.659     0.000
      P    16      Pz                   0.659     0.659     0.000
      P    17      S                    0.868     0.866     0.002
      P    17      Px                   0.665     0.659     0.006
      P    17      Py                   0.649     0.646     0.003
      P    17      Pz                   0.663     0.660     0.003
      P    18      S                    0.867     0.867    -0.000
      P    18      Px                   0.657     0.657    -0.000
      P    18      Py                   0.657     0.657    -0.000
      P    18      Pz                   0.657     0.657    -0.000
      P    19      S                    0.868     0.866     0.002
      P    19      Px                   0.665     0.659     0.006
      P    19      Py                   0.663     0.660     0.003
      P    19      Pz                   0.649     0.646     0.003
      P    20      S                    0.867     0.867    -0.000
      P    20      Px                   0.656     0.656    -0.000
      P    20      Py                   0.657     0.657    -0.000
      P    20      Pz                   0.657     0.657    -0.000
      P    21      S                    0.868     0.867     0.001
      P    21      Px                   0.662     0.658     0.003
      P    21      Py                   0.652     0.651     0.002
      P    21      Pz                   0.660     0.658     0.002
      P    22      S                    0.864     0.864     0.001
      P    22      Px                   0.662     0.659     0.003
      P    22      Py                   0.655     0.653     0.001
      P    22      Pz                   0.663     0.660     0.003
      P    23      S                    0.867     0.866     0.000
      P    23      Px                   0.657     0.657     0.000
      P    23      Py                   0.655     0.655     0.000
      P    23      Pz                   0.659     0.659     0.000
      P    24      S                    0.866     0.866    -0.000
      P    24      Px                   0.659     0.659    -0.000
      P    24      Py                   0.656     0.656     0.000
      P    24      Pz                   0.656     0.656     0.000
      P    25      S                    0.867     0.866     0.000
      P    25      Px                   0.657     0.657     0.000
      P    25      Py                   0.659     0.659     0.000
      P    25      Pz                   0.655     0.655     0.000
      P    26      S                    0.864     0.864     0.001
      P    26      Px                   0.662     0.659     0.003
      P    26      Py                   0.663     0.660     0.003
      P    26      Pz                   0.655     0.653     0.001
      P    27      S                    0.868     0.867     0.001
      P    27      Px                   0.662     0.658     0.003
      P    27      Py                   0.660     0.658     0.002
      P    27      Pz                   0.652     0.651     0.002
      P    28      S                    0.866     0.866    -0.000
      P    28      Px                   0.659     0.659    -0.000
      P    28      Py                   0.656     0.656     0.000
      P    28      Pz                   0.656     0.656     0.000
      P    29      S                    0.867     0.867     0.000
      P    29      Px                   0.657     0.657     0.000
      P    29      Py                   0.657     0.657    -0.000
      P    29      Pz                   0.656     0.656     0.000
      P    30      S                    0.867     0.867    -0.000
      P    30      Px                   0.657     0.657    -0.000
      P    30      Py                   0.657     0.657    -0.000
      P    30      Pz                   0.657     0.657    -0.000
      P    31      S                    0.867     0.867     0.000
      P    31      Px                   0.657     0.657     0.000
      P    31      Py                   0.656     0.656     0.000
      P    31      Pz                   0.657     0.657    -0.000
      P    32      S                    0.867     0.867    -0.000
      P    32      Px                   0.656     0.656    -0.000
      P    32      Py                   0.657     0.658    -0.000
      P    32      Pz                   0.657     0.658    -0.000
      P    33      S                    0.907     0.895     0.012
      P    33      Px                   0.722     0.710     0.012
      P    33      Py                   0.673     0.425     0.248
      P    33      Pz                   0.673     0.425     0.248
     In     1      Dzz                  1.000     1.000     0.000
     In     1      Dzy                  0.998     0.998     0.000
     In     1      Dzx                  0.999     0.999     0.000
     In     1      Dxx-yy               1.000     1.000     0.000
     In     1      Dxy                  0.999     0.999     0.000
     In     1      S                    0.705     0.707    -0.001
     In     1      Px                   0.233     0.234    -0.001
     In     1      Py                   0.243     0.241     0.001
     In     1      Pz                   0.243     0.241     0.001
     In     1      S                   -0.254    -0.256     0.002
     In     2      Dzz                  0.999     0.999     0.000
     In     2      Dzy                  0.999     0.999     0.000
     In     2      Dzx                  0.999     0.998     0.001
     In     2      Dxx-yy               1.000     0.999     0.000
     In     2      Dxy                  0.999     0.998     0.000
     In     2      S                    0.689     0.701    -0.012
     In     2      Px                   0.233     0.239    -0.006
     In     2      Py                   0.226     0.236    -0.009
     In     2      Pz                   0.241     0.241     0.000
     In     2      S                   -0.266    -0.262    -0.004
     In     3      Dzz                  1.000     1.000     0.000
     In     3      Dzy                  0.998     0.998    -0.000
     In     3      Dzx                  0.999     0.999     0.000
     In     3      Dxx-yy               1.000     1.000    -0.000
     In     3      Dxy                  0.999     0.999     0.000
     In     3      S                    0.705     0.706    -0.001
     In     3      Px                   0.233     0.233    -0.001
     In     3      Py                   0.242     0.240     0.002
     In     3      Pz                   0.242     0.240     0.002
     In     3      S                   -0.253    -0.259     0.006
     In     4      Dzz                  0.999     0.999     0.000
     In     4      Dzy                  0.999     0.999     0.000
     In     4      Dzx                  0.999     0.998     0.000
     In     4      Dxx-yy               1.000     0.999     0.000
     In     4      Dxy                  0.999     0.998     0.001
     In     4      S                    0.689     0.701    -0.012
     In     4      Px                   0.233     0.239    -0.006
     In     4      Py                   0.241     0.241     0.000
     In     4      Pz                   0.226     0.236    -0.009
     In     4      S                   -0.266    -0.262    -0.004
     In     5      Dzz                  1.000     1.000     0.000
     In     5      Dzy                  0.998     0.998     0.000
     In     5      Dzx                  0.998     0.998    -0.000
     In     5      Dxx-yy               1.000     1.000     0.000
     In     5      Dxy                  0.998     0.998    -0.000
     In     5      S                    0.717     0.715     0.002
     In     5      Px                   0.241     0.241     0.000
     In     5      Py                   0.250     0.245     0.005
     In     5      Pz                   0.243     0.240     0.002
     In     5      S                   -0.268    -0.269     0.001
     In     6      Dzz                  1.000     1.000     0.000
     In     6      Dzy                  0.999     0.999     0.000
     In     6      Dzx                  0.999     0.999     0.000
     In     6      Dxx-yy               1.000     1.000     0.000
     In     6      Dxy                  0.998     0.998     0.000
     In     6      S                    0.705     0.706    -0.001
     In     6      Px                   0.241     0.242    -0.000
     In     6      Py                   0.241     0.240     0.001
     In     6      Pz                   0.234     0.234    -0.000
     In     6      S                   -0.256    -0.256    -0.000
     In     7      Dzz                  1.000     1.000     0.000
     In     7      Dzy                  0.998     0.998     0.000
     In     7      Dzx                  0.998     0.998     0.000
     In     7      Dxx-yy               1.000     1.000     0.000
     In     7      Dxy                  0.998     0.998    -0.000
     In     7      S                    0.715     0.714     0.001
     In     7      Px                   0.241     0.241    -0.000
     In     7      Py                   0.252     0.248     0.004
     In     7      Pz                   0.241     0.241     0.001
     In     7      S                   -0.267    -0.268     0.001
     In     8      Dzz                  1.000     1.000     0.000
     In     8      Dzy                  0.999     0.999     0.000
     In     8      Dzx                  0.999     0.999     0.000
     In     8      Dxx-yy               1.000     1.000     0.000
     In     8      Dxy                  0.998     0.998     0.000
     In     8      S                    0.704     0.704    -0.001
     In     8      Px                   0.240     0.240    -0.001
     In     8      Py                   0.242     0.241     0.001
     In     8      Pz                   0.231     0.231    -0.000
     In     8      S                   -0.253    -0.255     0.001
     In     9      Dzz                  1.000     1.000     0.000
     In     9      Dzy                  0.998     0.998     0.000
     In     9      Dzx                  0.998     0.998    -0.000
     In     9      Dxx-yy               1.000     1.000     0.000
     In     9      Dxy                  0.998     0.998    -0.000
     In     9      S                    0.717     0.715     0.002
     In     9      Px                   0.241     0.241     0.000
     In     9      Py                   0.243     0.240     0.002
     In     9      Pz                   0.250     0.245     0.005
     In     9      S                   -0.268    -0.269     0.001
     In    10      Dzz                  1.000     1.000     0.000
     In    10      Dzy                  0.999     0.999    -0.000
     In    10      Dzx                  0.998     0.998     0.000
     In    10      Dxx-yy               1.000     1.000    -0.000
     In    10      Dxy                  0.999     0.999     0.000
     In    10      S                    0.704     0.704    -0.001
     In    10      Px                   0.240     0.240    -0.001
     In    10      Py                   0.231     0.231    -0.000
     In    10      Pz                   0.242     0.241     0.001
     In    10      S                   -0.253    -0.255     0.001
     In    11      Dzz                  1.000     1.000     0.000
     In    11      Dzy                  0.998     0.998     0.000
     In    11      Dzx                  0.998     0.998    -0.000
     In    11      Dxx-yy               1.000     1.000     0.000
     In    11      Dxy                  0.998     0.998     0.000
     In    11      S                    0.715     0.714     0.001
     In    11      Px                   0.241     0.241    -0.000
     In    11      Py                   0.241     0.241     0.001
     In    11      Pz                   0.252     0.248     0.004
     In    11      S                   -0.267    -0.268     0.001
     In    12      Dzz                  1.000     1.000     0.000
     In    12      Dzy                  0.999     0.999     0.000
     In    12      Dzx                  0.998     0.998     0.000
     In    12      Dxx-yy               1.000     1.000     0.000
     In    12      Dxy                  0.999     0.999     0.000
     In    12      S                    0.705     0.706    -0.001
     In    12      Px                   0.241     0.242    -0.000
     In    12      Py                   0.234     0.234    -0.000
     In    12      Pz                   0.241     0.240     0.001
     In    12      S                   -0.256    -0.256    -0.000
     In    13      Dzz                  1.000     1.000    -0.000
     In    13      Dzy                  0.998     0.998    -0.000
     In    13      Dzx                  0.998     0.998     0.000
     In    13      Dxx-yy               1.000     1.000    -0.000
     In    13      Dxy                  0.998     0.998     0.000
     In    13      S                    0.706     0.706    -0.000
     In    13      Px                   0.242     0.242    -0.000
     In    13      Py                   0.241     0.241     0.000
     In    13      Pz                   0.241     0.241     0.000
     In    13      S                   -0.264    -0.264    -0.000
     In    14      Dzz                  1.000     1.000    -0.000
     In    14      Dzy                  0.998     0.998    -0.000
     In    14      Dzx                  0.998     0.998     0.000
     In    14      Dxx-yy               1.000     1.000    -0.000
     In    14      Dxy                  0.998     0.998    -0.000
     In    14      S                    0.707     0.707     0.001
     In    14      Px                   0.240     0.241    -0.000
     In    14      Py                   0.241     0.241     0.000
     In    14      Pz                   0.240     0.240     0.000
     In    14      S                   -0.265    -0.266     0.001
     In    15      Dzz                  1.000     1.000     0.000
     In    15      Dzy                  0.998     0.998    -0.000
     In    15      Dzx                  0.998     0.998    -0.000
     In    15      Dxx-yy               1.000     1.000     0.000
     In    15      Dxy                  0.998     0.998     0.000
     In    15      S                    0.706     0.707    -0.000
     In    15      Px                   0.242     0.242     0.000
     In    15      Py                   0.241     0.241    -0.000
     In    15      Pz                   0.241     0.241    -0.000
     In    15      S                   -0.265    -0.266     0.000
     In    16      Dzz                  1.000     1.000    -0.000
     In    16      Dzy                  0.998     0.998    -0.000
     In    16      Dzx                  0.998     0.998    -0.000
     In    16      Dxx-yy               1.000     1.000     0.000
     In    16      Dxy                  0.998     0.998     0.000
     In    16      S                    0.707     0.707     0.001
     In    16      Px                   0.240     0.241    -0.000
     In    16      Py                   0.240     0.240     0.000
     In    16      Pz                   0.241     0.241     0.000
     In    16      S                   -0.265    -0.266     0.001
     In    17      Dzz                  0.999     0.999     0.000
     In    17      Dzy                  0.998     0.998     0.000
     In    17      Dzx                  0.998     0.998     0.000
     In    17      Dxx-yy               0.999     0.999     0.000
     In    17      Dxy                  0.998     0.998     0.000
     In    17      S                    0.717     0.724    -0.007
     In    17      Px                   0.245     0.250    -0.005
     In    17      Py                   0.244     0.243     0.001
     In    17      Pz                   0.244     0.243     0.001
     In    17      S                   -0.269    -0.272     0.003
     In    18      Dzz                  1.000     1.000     0.000
     In    18      Dzy                  0.998     0.998    -0.000
     In    18      Dzx                  0.998     0.998    -0.000
     In    18      Dxx-yy               1.000     1.000     0.000
     In    18      Dxy                  0.998     0.998    -0.000
     In    18      S                    0.712     0.713    -0.000
     In    18      Px                   0.239     0.239    -0.000
     In    18      Py                   0.241     0.240     0.001
     In    18      Pz                   0.242     0.240     0.001
     In    18      S                   -0.270    -0.270     0.000
     In    19      Dzz                  0.999     0.999     0.000
     In    19      Dzy                  0.998     0.998     0.000
     In    19      Dzx                  0.998     0.998     0.000
     In    19      Dxx-yy               0.999     0.999     0.000
     In    19      Dxy                  0.998     0.998     0.000
     In    19      S                    0.707     0.718    -0.010
     In    19      Px                   0.245     0.254    -0.009
     In    19      Py                   0.247     0.248    -0.001
     In    19      Pz                   0.247     0.248    -0.001
     In    19      S                   -0.261    -0.261     0.000
     In    20      Dzz                  1.000     1.000     0.000
     In    20      Dzy                  0.998     0.998    -0.000
     In    20      Dzx                  0.998     0.998    -0.000
     In    20      Dxx-yy               1.000     1.000    -0.000
     In    20      Dxy                  0.998     0.998    -0.000
     In    20      S                    0.712     0.713    -0.000
     In    20      Px                   0.239     0.239    -0.000
     In    20      Py                   0.242     0.240     0.001
     In    20      Pz                   0.241     0.240     0.001
     In    20      S                   -0.270    -0.270     0.000
     In    21      Dzz                  1.000     1.000     0.000
     In    21      Dzy                  0.999     0.999     0.000
     In    21      Dzx                  0.998     0.998     0.000
     In    21      Dxx-yy               1.000     1.000    -0.000
     In    21      Dxy                  0.998     0.998     0.000
     In    21      S                    0.712     0.712    -0.000
     In    21      Px                   0.240     0.240    -0.000
     In    21      Py                   0.240     0.239     0.000
     In    21      Pz                   0.239     0.239     0.000
     In    21      S                   -0.267    -0.271     0.004
     In    22      Dzz                  1.000     1.000     0.000
     In    22      Dzy                  0.998     0.998     0.000
     In    22      Dzx                  0.998     0.998    -0.000
     In    22      Dxx-yy               1.000     1.000     0.000
     In    22      Dxy                  0.998     0.998     0.000
     In    22      S                    0.708     0.708     0.000
     In    22      Px                   0.239     0.239    -0.000
     In    22      Py                   0.245     0.244     0.001
     In    22      Pz                   0.240     0.240     0.000
     In    22      S                   -0.265    -0.264    -0.001
     In    23      Dzz                  1.000     1.000    -0.000
     In    23      Dzy                  0.999     0.999     0.000
     In    23      Dzx                  0.998     0.998    -0.000
     In    23      Dxx-yy               1.000     1.000    -0.000
     In    23      Dxy                  0.998     0.998     0.000
     In    23      S                    0.711     0.712    -0.000
     In    23      Px                   0.240     0.240    -0.000
     In    23      Py                   0.240     0.240     0.000
     In    23      Pz                   0.239     0.239    -0.000
     In    23      S                   -0.267    -0.270     0.002
     In    24      Dzz                  1.000     1.000     0.000
     In    24      Dzy                  0.998     0.998     0.000
     In    24      Dzx                  0.998     0.998    -0.000
     In    24      Dxx-yy               1.000     1.000     0.000
     In    24      Dxy                  0.998     0.998     0.000
     In    24      S                    0.708     0.707     0.001
     In    24      Px                   0.238     0.238    -0.000
     In    24      Py                   0.247     0.246     0.002
     In    24      Pz                   0.240     0.239     0.000
     In    24      S                   -0.265    -0.265    -0.000
     In    25      Dzz                  1.000     1.000    -0.000
     In    25      Dzy                  0.999     0.999    -0.000
     In    25      Dzx                  0.998     0.998     0.000
     In    25      Dxx-yy               1.000     1.000    -0.000
     In    25      Dxy                  0.998     0.998    -0.000
     In    25      S                    0.712     0.712    -0.000
     In    25      Px                   0.240     0.240    -0.000
     In    25      Py                   0.239     0.239     0.000
     In    25      Pz                   0.240     0.239     0.000
     In    25      S                   -0.267    -0.271     0.004
     In    26      Dzz                  1.000     1.000     0.000
     In    26      Dzy                  0.998     0.998     0.000
     In    26      Dzx                  0.998     0.998     0.000
     In    26      Dxx-yy               1.000     1.000    -0.000
     In    26      Dxy                  0.998     0.998    -0.000
     In    26      S                    0.708     0.707     0.001
     In    26      Px                   0.238     0.238    -0.000
     In    26      Py                   0.240     0.239     0.000
     In    26      Pz                   0.247     0.246     0.002
     In    26      S                   -0.265    -0.265    -0.000
     In    27      Dzz                  1.000     1.000     0.000
     In    27      Dzy                  0.999     0.999     0.000
     In    27      Dzx                  0.998     0.998     0.000
     In    27      Dxx-yy               1.000     1.000    -0.000
     In    27      Dxy                  0.998     0.998    -0.000
     In    27      S                    0.711     0.712    -0.000
     In    27      Px                   0.240     0.240    -0.000
     In    27      Py                   0.239     0.239    -0.000
     In    27      Pz                   0.240     0.240     0.000
     In    27      S                   -0.267    -0.270     0.002
     In    28      Dzz                  1.000     1.000     0.000
     In    28      Dzy                  0.998     0.998     0.000
     In    28      Dzx                  0.998     0.998     0.000
     In    28      Dxx-yy               1.000     1.000     0.000
     In    28      Dxy                  0.998     0.998    -0.000
     In    28      S                    0.708     0.708     0.000
     In    28      Px                   0.239     0.239    -0.000
     In    28      Py                   0.240     0.240     0.000
     In    28      Pz                   0.245     0.244     0.001
     In    28      S                   -0.265    -0.264    -0.001
     In    29      Dzz                  0.999     0.999    -0.000
     In    29      Dzy                  0.998     0.998     0.000
     In    29      Dzx                  0.998     0.998     0.000
     In    29      Dxx-yy               1.000     1.000    -0.000
     In    29      Dxy                  0.998     0.998     0.000
     In    29      S                    0.710     0.711    -0.001
     In    29      Px                   0.250     0.252    -0.001
     In    29      Py                   0.241     0.241    -0.000
     In    29      Pz                   0.241     0.241    -0.000
     In    29      S                   -0.266    -0.267     0.001
     In    30      Dzz                  1.000     1.000    -0.000
     In    30      Dzy                  0.998     0.998     0.000
     In    30      Dzx                  0.998     0.998     0.000
     In    30      Dxx-yy               1.000     1.000    -0.000
     In    30      Dxy                  0.998     0.998     0.000
     In    30      S                    0.707     0.707     0.000
     In    30      Px                   0.241     0.241    -0.000
     In    30      Py                   0.242     0.242     0.000
     In    30      Pz                   0.242     0.242    -0.000
     In    30      S                   -0.265    -0.266     0.001
     In    31      Dzz                  0.999     0.999    -0.000
     In    31      Dzy                  0.998     0.998     0.000
     In    31      Dzx                  0.998     0.998     0.000
     In    31      Dxx-yy               1.000     1.000    -0.000
     In    31      Dxy                  0.998     0.998    -0.000
     In    31      S                    0.709     0.710    -0.001
     In    31      Px                   0.249     0.250    -0.001
     In    31      Py                   0.241     0.241    -0.000
     In    31      Pz                   0.241     0.241    -0.000
     In    31      S                   -0.266    -0.266     0.000
     In    32      Dzz                  1.000     1.000    -0.000
     In    32      Dzy                  0.998     0.998     0.000
     In    32      Dzx                  0.998     0.998     0.000
     In    32      Dxx-yy               1.000     1.000    -0.000
     In    32      Dxy                  0.998     0.998     0.000
     In    32      S                    0.707     0.707     0.000
     In    32      Px                   0.241     0.241    -0.000
     In    32      Py                   0.242     0.242    -0.000
     In    32      Pz                   0.242     0.242     0.000
     In    32      S                   -0.265    -0.266     0.001
  ---------------------------------------------------------------
                           Total:     290.997   290.002     0.995
  ---------------------------------------------------------------

     Atomic Populations (Mulliken)
     -----------------------------
Species          Ion Spin      s       p       d       f      Total   Charge(e)   Spin(hbar/2)
==============================================================================================
  P               1   up:     0.873   1.960   0.000   0.000   2.833    -0.636        0.030
                  1   dn:     0.868   1.935   0.000   0.000   2.803
  P               2   up:     0.886   2.000   0.000   0.000   2.886    -0.470        0.302
                  2   dn:     0.880   1.704   0.000   0.000   2.584
  P               3   up:     0.873   1.960   0.000   0.000   2.833    -0.636        0.030
                  3   dn:     0.868   1.935   0.000   0.000   2.803
  P               4   up:     0.867   1.966   0.000   0.000   2.832    -0.659        0.006
                  4   dn:     0.867   1.960   0.000   0.000   2.826
  P               5   up:     0.872   1.972   0.000   0.000   2.843    -0.649        0.038
                  5   dn:     0.867   1.939   0.000   0.000   2.805
  P               6   up:     0.867   1.971   0.000   0.000   2.838    -0.676       -0.000
                  6   dn:     0.867   1.971   0.000   0.000   2.838
  P               7   up:     0.867   1.970   0.000   0.000   2.837    -0.674        0.001
                  7   dn:     0.867   1.970   0.000   0.000   2.837
  P               8   up:     0.868   1.968   0.000   0.000   2.836    -0.674       -0.002
                  8   dn:     0.868   1.970   0.000   0.000   2.838
  P               9   up:     0.867   1.970   0.000   0.000   2.837    -0.674        0.001
                  9   dn:     0.867   1.970   0.000   0.000   2.837
  P              10   up:     0.867   1.971   0.000   0.000   2.838    -0.676       -0.000
                 10   dn:     0.867   1.971   0.000   0.000   2.838
  P              11   up:     0.872   1.972   0.000   0.000   2.843    -0.649        0.038
                 11   dn:     0.867   1.939   0.000   0.000   2.805
  P              12   up:     0.868   1.968   0.000   0.000   2.836    -0.674       -0.002
                 12   dn:     0.868   1.970   0.000   0.000   2.838
  P              13   up:     0.867   1.970   0.000   0.000   2.837    -0.674       -0.001
                 13   dn:     0.867   1.970   0.000   0.000   2.837
  P              14   up:     0.864   1.975   0.000   0.000   2.839    -0.680       -0.002
                 14   dn:     0.864   1.977   0.000   0.000   2.841
  P              15   up:     0.867   1.970   0.000   0.000   2.837    -0.674       -0.001
                 15   dn:     0.867   1.970   0.000   0.000   2.837
  P              16   up:     0.866   1.967   0.000   0.000   2.833    -0.666        0.000
                 16   dn:     0.866   1.967   0.000   0.000   2.833
  P              17   up:     0.868   1.976   0.000   0.000   2.844    -0.675        0.013
                 17   dn:     0.866   1.965   0.000   0.000   2.831
  P              18   up:     0.867   1.971   0.000   0.000   2.838    -0.677       -0.001
                 18   dn:     0.867   1.972   0.000   0.000   2.839
  P              19   up:     0.868   1.976   0.000   0.000   2.844    -0.675        0.013
                 19   dn:     0.866   1.965   0.000   0.000   2.831
  P              20   up:     0.867   1.970   0.000   0.000   2.837    -0.674       -0.001
                 20   dn:     0.867   1.971   0.000   0.000   2.837
  P              21   up:     0.868   1.974   0.000   0.000   2.842    -0.675        0.008
                 21   dn:     0.867   1.967   0.000   0.000   2.834
  P              22   up:     0.864   1.979   0.000   0.000   2.843    -0.679        0.007
                 22   dn:     0.864   1.972   0.000   0.000   2.836
  P              23   up:     0.867   1.971   0.000   0.000   2.838    -0.675        0.000
                 23   dn:     0.866   1.971   0.000   0.000   2.837
  P              24   up:     0.866   1.972   0.000   0.000   2.838    -0.675        0.001
                 24   dn:     0.866   1.971   0.000   0.000   2.837
  P              25   up:     0.867   1.971   0.000   0.000   2.838    -0.675        0.000
                 25   dn:     0.866   1.971   0.000   0.000   2.837
  P              26   up:     0.864   1.979   0.000   0.000   2.843    -0.679        0.007
                 26   dn:     0.864   1.972   0.000   0.000   2.836
  P              27   up:     0.868   1.974   0.000   0.000   2.842    -0.675        0.008
                 27   dn:     0.867   1.967   0.000   0.000   2.834
  P              28   up:     0.866   1.972   0.000   0.000   2.838    -0.675        0.001
                 28   dn:     0.866   1.971   0.000   0.000   2.837
  P              29   up:     0.867   1.971   0.000   0.000   2.838    -0.675        0.000
                 29   dn:     0.867   1.971   0.000   0.000   2.838
  P              30   up:     0.867   1.970   0.000   0.000   2.837    -0.675       -0.000
                 30   dn:     0.867   1.970   0.000   0.000   2.837
  P              31   up:     0.867   1.971   0.000   0.000   2.838    -0.675        0.000
                 31   dn:     0.867   1.971   0.000   0.000   2.838
  P              32   up:     0.867   1.971   0.000   0.000   2.837    -0.675       -0.001
                 32   dn:     0.867   1.971   0.000   0.000   2.838
  P              33   up:     0.907   2.068   0.000   0.000   2.975    -0.431        0.520
                 33   dn:     0.895   1.560   0.000   0.000   2.455
  In              1   up:     0.451   0.718   4.995   0.000   6.164     0.674        0.003
                  1   dn:     0.450   0.716   4.995   0.000   6.161
  In              2   up:     0.423   0.700   4.995   0.000   6.119     0.733       -0.030
                  2   dn:     0.439   0.716   4.994   0.000   6.148
  In              3   up:     0.452   0.718   4.995   0.000   6.164     0.679        0.008
                  3   dn:     0.447   0.714   4.995   0.000   6.156
  In              4   up:     0.423   0.700   4.995   0.000   6.119     0.733       -0.030
                  4   dn:     0.439   0.716   4.994   0.000   6.148
  In              5   up:     0.449   0.734   4.994   0.000   6.177     0.656        0.010
                  5   dn:     0.446   0.727   4.994   0.000   6.167
  In              6   up:     0.449   0.716   4.995   0.000   6.160     0.679       -0.001
                  6   dn:     0.450   0.716   4.995   0.000   6.161
  In              7   up:     0.447   0.734   4.994   0.000   6.175     0.655        0.006
                  7   dn:     0.446   0.729   4.994   0.000   6.169
  In              8   up:     0.450   0.712   4.995   0.000   6.157     0.686        0.001
                  8   dn:     0.450   0.712   4.995   0.000   6.157
  In              9   up:     0.449   0.734   4.994   0.000   6.177     0.656        0.010
                  9   dn:     0.446   0.727   4.994   0.000   6.167
  In             10   up:     0.450   0.712   4.995   0.000   6.157     0.686        0.001
                 10   dn:     0.450   0.712   4.995   0.000   6.157
  In             11   up:     0.447   0.734   4.994   0.000   6.175     0.655        0.006
                 11   dn:     0.446   0.729   4.994   0.000   6.169
  In             12   up:     0.449   0.716   4.995   0.000   6.160     0.679       -0.001
                 12   dn:     0.450   0.716   4.995   0.000   6.161
  In             13   up:     0.441   0.724   4.995   0.000   6.160     0.679       -0.000
                 13   dn:     0.442   0.724   4.995   0.000   6.160
  In             14   up:     0.442   0.721   4.995   0.000   6.158     0.686        0.001
                 14   dn:     0.440   0.721   4.995   0.000   6.156
  In             15   up:     0.441   0.723   4.995   0.000   6.159     0.682        0.000
                 15   dn:     0.441   0.723   4.995   0.000   6.159
  In             16   up:     0.442   0.721   4.995   0.000   6.158     0.686        0.001
                 16   dn:     0.440   0.721   4.995   0.000   6.156
  In             17   up:     0.448   0.733   4.994   0.000   6.174     0.644       -0.008
                 17   dn:     0.452   0.737   4.993   0.000   6.182
  In             18   up:     0.442   0.722   4.995   0.000   6.158     0.685        0.002
                 18   dn:     0.442   0.720   4.995   0.000   6.157
  In             19   up:     0.447   0.739   4.993   0.000   6.179     0.621       -0.020
                 19   dn:     0.457   0.750   4.992   0.000   6.200
  In             20   up:     0.442   0.722   4.995   0.000   6.158     0.685        0.002
                 20   dn:     0.442   0.720   4.995   0.000   6.157
  In             21   up:     0.444   0.719   4.995   0.000   6.158     0.688        0.004
                 21   dn:     0.441   0.718   4.995   0.000   6.154
  In             22   up:     0.443   0.724   4.994   0.000   6.161     0.679        0.001
                 22   dn:     0.443   0.722   4.994   0.000   6.160
  In             23   up:     0.444   0.719   4.995   0.000   6.158     0.686        0.002
                 23   dn:     0.442   0.719   4.995   0.000   6.156
  In             24   up:     0.443   0.725   4.994   0.000   6.162     0.677        0.002
                 24   dn:     0.442   0.724   4.994   0.000   6.160
  In             25   up:     0.444   0.719   4.995   0.000   6.158     0.688        0.004
                 25   dn:     0.441   0.718   4.995   0.000   6.154
  In             26   up:     0.443   0.725   4.994   0.000   6.162     0.677        0.002
                 26   dn:     0.442   0.724   4.994   0.000   6.160
  In             27   up:     0.444   0.719   4.995   0.000   6.158     0.686        0.002
                 27   dn:     0.442   0.719   4.995   0.000   6.156
  In             28   up:     0.443   0.724   4.994   0.000   6.161     0.679        0.001
                 28   dn:     0.443   0.722   4.994   0.000   6.160
  In             29   up:     0.444   0.732   4.994   0.000   6.170     0.659       -0.002
                 29   dn:     0.444   0.733   4.994   0.000   6.171
  In             30   up:     0.442   0.725   4.994   0.000   6.161     0.678        0.001
                 30   dn:     0.441   0.725   4.994   0.000   6.160
  In             31   up:     0.443   0.731   4.994   0.000   6.168     0.663       -0.001
                 31   dn:     0.444   0.732   4.994   0.000   6.169
  In             32   up:     0.442   0.725   4.994   0.000   6.161     0.678        0.001
                 32   dn:     0.441   0.725   4.994   0.000   6.160
==============================================================================================

                 Bond                   Population        Spin       Length (A)
================================================================================
              P 2  -- P 33                   0.36        -0.12          2.13627
              P 33 -- In 19                  0.78        -0.01          2.45648
              P 2  -- In 17                  0.71        -0.00          2.48737
              P 4  -- In 29                  0.69         0.00          2.50162
              P 16 -- In 31                  0.69         0.00          2.50859
              P 14 -- In 29                  0.66         0.00          2.51547
              P 14 -- In 31                  0.66         0.00          2.51892
              P 19 -- In 19                  0.65        -0.00          2.51979
              P 17 -- In 19                  0.65        -0.00          2.51979
              P 27 -- In 17                  0.65        -0.00          2.52587
              P 21 -- In 17                  0.65        -0.00          2.52587
              P 5  -- In 7                   0.64        -0.00          2.52794
              P 11 -- In 11                  0.64        -0.00          2.52794
              P 26 -- In 26                  0.67         0.00          2.52957
              P 22 -- In 24                  0.67         0.00          2.52957
              P 26 -- In 11                  0.65        -0.00          2.53059
              P 22 -- In 7                   0.65        -0.00          2.53059
              P 22 -- In 5                   0.66        -0.00          2.53536
              P 26 -- In 9                   0.66        -0.00          2.53536
              P 1  -- In 5                   0.63        -0.00          2.53572
              P 3  -- In 9                   0.63        -0.00          2.53572
              P 22 -- In 22                  0.67         0.00          2.53687
              P 26 -- In 28                  0.67         0.00          2.53687
              P 8  -- In 4                   0.68         0.00          2.53871
              P 12 -- In 2                   0.68         0.00          2.53871
              P 19 -- In 26                  0.64        -0.00          2.54117
              P 17 -- In 24                  0.64        -0.00          2.54117
              P 24 -- In 30                  0.67        -0.00          2.54293
              P 28 -- In 32                  0.67        -0.00          2.54293
              P 11 -- In 2                   0.64        -0.01          2.54310
              P 5  -- In 4                   0.64        -0.01          2.54310
              P 18 -- In 18                  0.66         0.00          2.54370
              P 18 -- In 20                  0.66         0.00          2.54370
              P 25 -- In 32                  0.66        -0.00          2.54471
              P 23 -- In 30                  0.66        -0.00          2.54471
              P 10 -- In 25                  0.66         0.00          2.54570
              P 6  -- In 21                  0.66         0.00          2.54570
              P 20 -- In 24                  0.67         0.00          2.54657
              P 20 -- In 26                  0.67         0.00          2.54657
              P 32 -- In 22                  0.67         0.00          2.54664
              P 32 -- In 28                  0.67         0.00          2.54664
              P 9  -- In 11                  0.66         0.00          2.54678
              P 7  -- In 7                   0.66         0.00          2.54678
              P 21 -- In 22                  0.64        -0.00          2.54732
              P 27 -- In 28                  0.64        -0.00          2.54732
              P 7  -- In 13                  0.67         0.00          2.54736
              P 9  -- In 13                  0.67        -0.00          2.54736
              P 31 -- In 32                  0.67        -0.00          2.54756
              P 29 -- In 30                  0.67        -0.00          2.54756
              P 1  -- In 3                   0.67        -0.00          2.54838
              P 3  -- In 3                   0.67        -0.00          2.54838
              P 13 -- In 15                  0.67         0.00          2.54875
              P 15 -- In 15                  0.67         0.00          2.54875
              P 24 -- In 20                  0.66         0.00          2.54878
              P 28 -- In 18                  0.66         0.00          2.54878
              P 3  -- In 4                   0.64        -0.00          2.54880
              P 1  -- In 2                   0.64        -0.00          2.54880
              P 25 -- In 29                  0.65        -0.00          2.54900
              P 23 -- In 29                  0.65        -0.00          2.54900
              P 6  -- In 23                  0.66         0.00          2.54945
              P 10 -- In 27                  0.66         0.00          2.54945
              P 13 -- In 9                   0.65        -0.00          2.55001
              P 15 -- In 5                   0.65        -0.00          2.55001
              P 14 -- In 14                  0.67         0.00          2.55067
              P 14 -- In 16                  0.67         0.00          2.55067
              P 28 -- In 11                  0.65        -0.00          2.55134
              P 24 -- In 7                   0.65        -0.00          2.55134
              P 29 -- In 28                  0.66        -0.00          2.55158
              P 31 -- In 22                  0.66        -0.00          2.55158
              P 30 -- In 15                  0.66         0.00          2.55167
              P 31 -- In 31                  0.65         0.00          2.55197
              P 29 -- In 31                  0.65         0.00          2.55197
              P 32 -- In 1                   0.66         0.00          2.55213
              P 13 -- In 14                  0.67         0.00          2.55220
              P 15 -- In 16                  0.67         0.00          2.55220
              P 9  -- In 16                  0.67         0.00          2.55253
              P 7  -- In 14                  0.67         0.00          2.55253
              P 24 -- In 9                   0.65        -0.00          2.55262
              P 28 -- In 5                   0.65        -0.00          2.55262
              P 12 -- In 27                  0.66         0.00          2.55296
              P 8  -- In 23                  0.66         0.00          2.55296
              P 11 -- In 1                   0.66        -0.00          2.55343
              P 5  -- In 1                   0.66        -0.00          2.55343
              P 16 -- In 12                  0.67         0.00          2.55348
              P 16 -- In 6                   0.67         0.00          2.55349
              P 23 -- In 24                  0.66         0.00          2.55349
              P 25 -- In 26                  0.66         0.00          2.55349
              P 4  -- In 10                  0.67         0.00          2.55435
              P 4  -- In 8                   0.67         0.00          2.55436
              P 27 -- In 18                  0.65        -0.00          2.55449
              P 21 -- In 20                  0.65        -0.00          2.55450
              P 30 -- In 13                  0.66         0.00          2.55464
              P 20 -- In 13                  0.65         0.00          2.55471
              P 32 -- In 15                  0.66         0.00          2.55507
              P 25 -- In 27                  0.67         0.00          2.55540
              P 23 -- In 23                  0.67         0.00          2.55540
              P 15 -- In 6                   0.65         0.00          2.55562
              P 13 -- In 12                  0.65         0.00          2.55562
              P 30 -- In 32                  0.66         0.00          2.55616
              P 30 -- In 30                  0.66         0.00          2.55616
              P 31 -- In 21                  0.66        -0.00          2.55625
              P 29 -- In 25                  0.66        -0.00          2.55625
              P 19 -- In 20                  0.65        -0.00          2.55647
              P 17 -- In 18                  0.65        -0.00          2.55647
              P 18 -- In 1                   0.64         0.00          2.55664
              P 8  -- In 25                  0.66         0.00          2.55733
              P 12 -- In 21                  0.66         0.00          2.55733
              P 18 -- In 3                   0.65         0.00          2.55797
              P 6  -- In 8                   0.65         0.00          2.55849
              P 10 -- In 10                  0.65         0.00          2.55849
              P 21 -- In 23                  0.67         0.00          2.55920
              P 27 -- In 27                  0.67         0.00          2.55920
              P 12 -- In 16                  0.64         0.00          2.55924
              P 8  -- In 14                  0.64         0.00          2.55924
              P 6  -- In 6                   0.65        -0.00          2.56114
              P 10 -- In 12                  0.65        -0.00          2.56114
              P 20 -- In 3                   0.66         0.00          2.56179
              P 17 -- In 21                  0.67         0.00          2.56234
              P 19 -- In 25                  0.67         0.00          2.56234
              P 5  -- In 6                   0.65         0.01          2.56493
              P 11 -- In 12                  0.65         0.01          2.56493
              P 7  -- In 8                   0.64        -0.00          2.56583
              P 9  -- In 10                  0.64        -0.00          2.56583
              P 16 -- In 17                  0.55         0.00          2.56808
              P 1  -- In 8                   0.64         0.01          2.57130
              P 3  -- In 10                  0.64         0.01          2.57130
              P 4  -- In 19                  0.51         0.00          2.58469
              P 2  -- In 4                   0.40         0.01          2.65391
              P 2  -- In 2                   0.40         0.01          2.65391
              P 33 -- In 2                   0.19        -0.01          2.80715
              P 33 -- In 4                   0.19        -0.01          2.80715
================================================================================

 Hirshfeld supercell size:           2           2           2
Standard grid dimensions: 240 240 240
Fine grid dimensions:     240 240 240


     Hirshfeld Analysis
     ------------------
Species   Ion     Hirshfeld Charge (e)  Spin (hbar/2)
===================================================
  P        1                -0.23        0.03
  P        2                -0.17        0.24
  P        3                -0.23        0.03
  P        4                -0.24        0.01
  P        5                -0.23        0.03
  P        6                -0.24        0.00
  P        7                -0.24        0.00
  P        8                -0.23        0.00
  P        9                -0.24        0.00
  P       10                -0.24        0.00
  P       11                -0.23        0.03
  P       12                -0.23        0.00
  P       13                -0.24        0.00
  P       14                -0.24       -0.00
  P       15                -0.24        0.00
  P       16                -0.24        0.00
  P       17                -0.24        0.01
  P       18                -0.24       -0.00
  P       19                -0.24        0.01
  P       20                -0.24        0.00
  P       21                -0.24        0.01
  P       22                -0.24        0.01
  P       23                -0.24        0.00
  P       24                -0.24        0.00
  P       25                -0.24        0.00
  P       26                -0.24        0.01
  P       27                -0.24        0.01
  P       28                -0.24        0.00
  P       29                -0.24        0.00
  P       30                -0.24        0.00
  P       31                -0.24        0.00
  P       32                -0.24        0.00
  P       33                -0.16        0.38
  In       1                 0.24        0.00
  In       2                 0.26        0.04
  In       3                 0.24        0.00
  In       4                 0.26        0.04
  In       5                 0.23        0.01
  In       6                 0.25        0.00
  In       7                 0.23        0.01
  In       8                 0.25        0.01
  In       9                 0.23        0.01
  In      10                 0.25        0.01
  In      11                 0.23        0.01
  In      12                 0.25        0.00
  In      13                 0.24        0.00
  In      14                 0.24       -0.00
  In      15                 0.24        0.00
  In      16                 0.24       -0.00
  In      17                 0.22        0.02
  In      18                 0.24        0.00
  In      19                 0.21        0.03
  In      20                 0.24        0.00
  In      21                 0.25        0.00
  In      22                 0.24        0.00
  In      23                 0.25        0.00
  In      24                 0.24        0.00
  In      25                 0.25        0.00
  In      26                 0.24        0.00
  In      27                 0.25        0.00
  In      28                 0.24        0.00
  In      29                 0.22       -0.00
  In      30                 0.23        0.00
  In      31                 0.23       -0.00
  In      32                 0.23        0.00
===================================================

 
 A BibTeX formatted list of references used in this run has been written to 
 P_Interstitial_Migration_Dumbbell#_Dumbbell+_Singlepoints_6.bib
 
Initialisation time =     30.31 s
Calculation time    =   7873.97 s
Finalisation time   =    167.94 s
Total time          =   8072.23 s
Peak Memory Use     = 9586676 kB
 
Overall parallel efficiency rating: Poor (35%)
 
Data was distributed by:-
G-vector (3-way); efficiency rating: Poor (38%)
k-point (36-way); efficiency rating: Very good (83%)
