 +-------------------------------------------------+
 |                                                 |
 |      CCC   AA    SSS  TTTTT  EEEEE  PPPP        |
 |     C     A  A  S       T    E      P   P       |
 |     C     AAAA   SS     T    EEE    PPPP        |
 |     C     A  A     S    T    E      P           |
 |      CCC  A  A  SSS     T    EEEEE  P           |
 |                                                 |
 +-------------------------------------------------+
 |                                                 |
 | Welcome to Academic Release CASTEP version 24.1 |
 | Ab Initio Total Energy Program                  |
 |                                                 |
 | Authors:                                        |
 | M. Segall, M. Probert, C. Pickard, P. Hasnip,   |
 | S. Clark, K. Refson, J. R. Yates,               |
 | A. Bartok-Partay, M. Payne                      |
 |                                                 |
 | Contributors:                                   |
 | P. Lindan, P. Haynes, J. White, V. Milman,      |
 | N. Govind, M. Gibson, P. Tulip, V. Cocula,      |
 | B. Montanari, D. Quigley, M. Glover,            |
 | L. Bernasconi, A. Perlov, M. Plummer,           |
 | E. McNellis, J. Meyer, J. Gale, D. Jochym       |
 | J. Aarons, B. Walker, R. Gillen, D. Jones       |
 | T. Green, I. J. Bush, C. J. Armstrong,          |
 | E. J. Higgins, E. L. Brown, M. S. McFly,        |
 | J. Wilkins, B-C. Shih, P. J. P. Byrne,          |
 | R. J. Maurer, J. C. Womack, J. Dziedzic,        |
 | L. LeBlanc, T. K. Stenczel, J. Kermode,         |
 | S. Sturniolo, B. Shi, B. Durham, M. Evans,      |
 | M. J. Smith, A. Tamerus, Z. Hawkhead,           |
 | V. Ravindran, T. Hollins, S. A. Joyce,          |
 | R. T. Strong, A. M. Reilly, S. J. Donaldson     |
 |                                                 |
 | Copyright (c) 2000 - 2023                       |
 |                                                 |
 |     Distributed under license from Cambridge    |
 |     Enterprise for academic use only.           |
 |                                                 |
 | Please cite                                     |
 |                                                 |
 |     "First principles methods using CASTEP"     |
 |                                                 |
 |         Zeitschrift fuer Kristallographie       |
 |           220(5-6) pp. 567-570 (2005)           |
 |                                                 |
 | S. J. Clark, M. D. Segall, C. J. Pickard,       |
 | P. J. Hasnip, M. J. Probert, K. Refson,         |
 | M. C. Payne                                     |
 |                                                 |
 |       in all publications arising from          |
 |              your use of CASTEP                 |
 |                                                 |
 +-------------------------------------------------+
 |                                                 |
 |              http://www.castep.org              |
 |                                                 |
 +-------------------------------------------------+



 Compiled for  GNU 11.2.0 on 04-04-2024 18:39:17
 from code version 6355fd106 Castep241_branch Thu Mar 7 17:56:19 2024 +0000
 Compiler: GNU Fortran 11.2.0; Optimisation: FAST
 Comms   : MPI VERSION : CRAY MPICH version 8.1.23.14 (ANL base 3.4a2)
 MATHLIBS: default (LAPACK version 3.10.1)
 FFT Lib : fftw3 version commercial-fftw-3.3.10-sse2-avx-avx2-avx2_128
 Fundamental constants values: CODATA 2018

 Run started: Sun, 19 Jan 2025 02:06:27 +0000

 Atomic calculation performed for P: 1s2 2s2 2p6 3s2 3p3

 Converged in 47 iterations to an ae energy of -9309.074 eV

   ============================================================                
   | Pseudopotential Report - Date of generation 19-01-2025   |                
   ------------------------------------------------------------                
   | Element: P Ionic charge:  5.00 Level of theory: RSCAN    |                
   | Atomic Solver: Koelling-Harmon                           |                
   |                                                          |                
   |               Reference Electronic Structure             |                
   |         Orbital         Occupation         Energy        |                
   |            3s              2.000           -0.535        |                
   |            3p              3.000           -0.209        |                
   |                                                          |                
   |                 Pseudopotential Definition               |                
   |        Beta     l      e      Rc     scheme   norm       |                
   |          1      0   -0.535   1.807     qc      0         |                
   |          2      0    0.250   1.807     qc      0         |                
   |          3      1   -0.209   1.807     qc      0         |                
   |          4      1    0.250   1.807     qc      0         |                
   |          5      2    0.000   1.807     qc      0         |                
   |          6      2    0.250   1.807     qc      0         |                
   |         loc     3    0.000   1.807     pn      0         |                
   |                                                          |                
   | Augmentation charge Rinner = 1.263                       |                
   | Partial core correction Rc = 1.263                       |                
   ------------------------------------------------------------                
   | "3|1.8|4|4|5|30:31:32"                                   |                
   ------------------------------------------------------------                
   |      Author: Chris J. Pickard, Cambridge University      |                
   ============================================================                
 Warning: otfg_output_psp cannot write out meta-GGA pseudopotentials presently.

 Atomic calculation performed for In:
 1s2 2s2 2p6 3s2 3p6 3d10 4s2 4p6 4d10 5s2 5p1

 Converged in 84 iterations to an ae energy of -160093.328 eV

   ============================================================                
   | Pseudopotential Report - Date of generation 19-01-2025   |                
   ------------------------------------------------------------                
   | Element: In Ionic charge: 13.00 Level of theory: RSCAN   |                
   | Atomic Solver: Koelling-Harmon                           |                
   |                                                          |                
   |               Reference Electronic Structure             |                
   |         Orbital         Occupation         Energy        |                
   |            4d             10.000           -0.711        |                
   |            5s              2.000           -0.313        |                
   |            5p              1.000           -0.095        |                
   |                                                          |                
   |                 Pseudopotential Definition               |                
   |        Beta     l      e      Rc     scheme   norm       |                
   |          1      0   -0.313   2.501     qc      0         |                
   |          2      0    0.250   2.501     qc      0         |                
   |          3      1   -0.095   2.501     qc      0         |                
   |          4      1    0.250   2.501     qc      0         |                
   |          5      2   -0.711   2.207     qc      0         |                
   |          6      2    0.250   2.207     qc      0         |                
   |         loc     3    0.000   2.501     pn      0         |                
   |                                                          |                
   | Augmentation charge Rinner = 1.504                       |                
   | Partial core correction Rc = 1.504                       |                
   ------------------------------------------------------------                
   | "3|2.5|2.5|1.5|7|8|9|50:51:42U2.2U2.2"                   |                
   ------------------------------------------------------------                
   |      Author: Chris J. Pickard, Cambridge University      |                
   ============================================================                
 Warning: otfg_output_psp cannot write out meta-GGA pseudopotentials presently.

 Pseudo atomic calculation performed for P 3s2 3p3

 Converged in 23 iterations to a total energy of -208.0292 eV

 Pseudo atomic calculation performed for In 4d10 5s2 5p1

 Converged in 42 iterations to a total energy of -1747.4501 eV
 Calculation parallelised over 64 processes.
 Data is distributed by k-point(64-way)
 Each process may use up to 16 threads.

 ************************************ Title ************************************
 

 ***************************** General Parameters ******************************
  
 output verbosity                               : normal  (1)
 write checkpoint data to                       : StackingFaultStructs_110_1-10_7.check
 type of calculation                            : geometry optimization
 stress calculation                             : off
 density difference calculation                 : off
 electron localisation func (ELF) calculation   : off
 Hirshfeld analysis                             : on
 polarisation (Berry phase) analysis            : off
 molecular orbital projected DOS                : off
 deltaSCF calculation                           : off
 unlimited duration calculation
 timing information                             : on
 memory usage estimate                          : on
 write extra output files                       : on
 write final potential to formatted file        : off
 write final density to formatted file          : off
 write BibTeX reference list                    : on
 write OTFG pseudopotential files               : on
 write electrostatic potential file             : on
 write bands file                               : on
 checkpoint writing                             : off
  
 output         length unit                     : A
 output           mass unit                     : amu
 output           time unit                     : ps
 output         charge unit                     : e
 output           spin unit                     : hbar/2
 output         energy unit                     : eV
 output          force unit                     : eV/A
 output       velocity unit                     : A/ps
 output       pressure unit                     : GPa
 output     inv_length unit                     : 1/A
 output      frequency unit                     : cm-1
 output force constant unit                     : eV/A**2
 output         volume unit                     : A**3
 output   IR intensity unit                     : (D/A)**2/amu
 output         dipole unit                     : D
 output         efield unit                     : eV/A/e
 output        entropy unit                     : J/mol/K
 output    efield chi2 unit                     : pm/V
  
 wavefunctions paging                           : none
 random number generator seed                   :   20628121
 data distribution                              : optimal for this architecture
 optimization strategy                          : balance speed and memory

 *********************** Exchange-Correlation Parameters ***********************
  
 using functional                               : RSCAN
 relativistic treatment                         : Koelling-Harmon
 DFT+D: Semi-empirical dispersion correction    : off

 ************************* Pseudopotential Parameters **************************
  
 pseudopotential representation                 : reciprocal space
 <beta|phi> representation                      : reciprocal space
 spin-orbit coupling                            : off

 **************************** Basis Set Parameters *****************************
  
 plane wave basis set cut-off                   :   900.0000   eV
 size of standard grid                          :     2.0000
 size of   fine   gmax                          :    30.7390   1/A
 finite basis set correction                    : none

 **************************** Electronic Parameters ****************************
  
 number of  electrons                           :  216.0    
 net charge of system                           :  0.000    
 treating system as non-spin-polarized
 number of bands                                :        130

 ********************* Electronic Minimization Parameters **********************
  
 Method: Treating system as metallic with density mixing treatment of electrons,
         and number of  SD  steps               :          1
         and number of  CG  steps               :          4
  
 total energy / atom convergence tol.           : 0.1000E-07   eV
 eigen-energy convergence tolerance             : 0.2222E-08   eV
 max force / atom convergence tol.              : ignored
 convergence tolerance window                   :          3   cycles
 max. number of SCF cycles                      :         50
 number of fixed-spin iterations                :         10
 smearing scheme                                : Gaussian
 smearing width                                 : 0.2000       eV
 Fermi energy convergence tolerance             : 0.2721E-13   eV
 periodic dipole correction                     : NONE

 ************************** Density Mixing Parameters **************************
  
 density-mixing scheme                          : Pulay
 max. length of mixing history                  :         15
 charge density mixing amplitude                : 0.5000    
 cut-off energy for mixing                      :  900.0       eV

 *********************** Population Analysis Parameters ************************
  
 Population analysis with cutoff                :  3.000       A
 Population analysis output                     : summary and pdos components

 ********************** Geometry Optimization Parameters ***********************
  
 optimization method                            : LBFGS
 max. no. of LBFGS updates                      : unbounded
 preconditioned LBFGS is activated
 preconditioner type                            : EXP
     stabilization constant                     :     0.1000
     parameter A                                :     3.0000
     nearest neighbor distance                  : automatic
     cut-off distance                           : automatic
     parameter mu                               : automatic
 variable cell method                           : fixed basis quality
 max. number of steps                           :         30
 estimated bulk modulus                         :  500.0       GPa
 estimated <frequency>                          :  1668.       cm-1
 geom line minimiser                            : on
 with line minimiser tolerance                  :     0.4000
 total energy convergence tolerance             : 0.2000E-04   eV/atom
        max ionic |force| tolerance             : 0.1000E-02   eV/A
 max ionic |displacement| tolerance             : 0.1000E-02   A
   max |stress component| tolerance             : 0.1000       GPa
 convergence tolerance window                   :          2   steps
 backup results every                           :          5   steps
 write geom trajectory file                     : on

 *******************************************************************************
  

                           -------------------------------
                                      Unit Cell
                           -------------------------------
        Real Lattice(A)                      Reciprocal Lattice(1/A)
     5.9012740     0.0000000     0.0000000        1.064716756   0.000000000   0.000000000
     0.0000000     4.1728310     0.0000000        0.000000000   1.505736826  -0.219586639
     0.0000000     3.6512270    25.0369830        0.000000000   0.000000000   0.250956168

                       Lattice parameters(A)       Cell Angles
                    a =      5.901274          alpha =   81.702854
                    b =      4.172831          beta  =   90.000000
                    c =     25.301818          gamma =   90.000000

                       Current cell volume =           616.536184       A**3
                                   density =             2.837629   AMU/A**3
                                           =             4.711994     g/cm^3

                           -------------------------------
                                     Cell Contents
                           -------------------------------
                         Total number of ions in cell =   24
                      Total number of species in cell =    2
                        Max number of any one species =   12

            xxxxxxxxxxxxxxxxxxxxxxxxxxxxxxxxxxxxxxxxxxxxxxxxxxxxxxxxxxxx
            x  Element    Atom        Fractional coordinates of atoms  x
            x            Number           u          v          w      x
            x----------------------------------------------------------x
            x  P            1         0.250000   0.208493   0.333150   x 
            x  P            2         0.750000  -0.364554   0.416633   x 
            x  P            3         0.750000  -0.218560   0.249782   x 
            x  P            4         0.250000   0.062471   0.500034   x 
            x  P            5         0.750000  -0.510577   0.583516   x 
            x  P            6         0.250000   0.354557   0.166221   x 
            x  P            7         0.250000  -0.083524   0.666884   x 
            x  P            8         0.750000  -0.656640   0.750446   x 
            x  P            9         0.750000  -0.072614   0.082988   x 
            x  P           10         0.250000  -0.229469   0.833679   x 
            x  P           11         0.750000  -0.802972   0.917682   x 
            x  P           12         0.250000   0.500889  -0.001016   x 
            x  In           1         0.500000   0.135484   0.416589   x 
            x  In           2         0.500000  -0.156498   0.750284   x 
            x  In           3         0.000000  -0.583621   0.666996   x 
            x  In           4         0.500000  -0.010528   0.583460   x 
            x  In           5         0.000000  -0.437568   0.500077   x 
            x  In           6         0.000000  -0.729736   0.833984   x 
            x  In           7         0.000000  -0.291556   0.333207   x 
            x  In           8         0.500000  -0.302443   0.917078   x 
            x  In           9         0.000000  -0.145585   0.166383   x 
            x  In          10         0.500000   0.427653   0.082682   x 
            x  In          11         0.000000   0.000360  -0.000411   x 
            x  In          12         0.500000   0.281538   0.249671   x 
            xxxxxxxxxxxxxxxxxxxxxxxxxxxxxxxxxxxxxxxxxxxxxxxxxxxxxxxxxxxx


                         No user defined ionic velocities

                           -------------------------------
                                   Details of Species
                           -------------------------------

                               Mass of species in AMU
                                    P   30.9737600
                                    In  114.8180000

                          Electric Quadrupole Moment (Barn)
                                    P    1.0000000 No Isotope Defined
                                    In    0.7700000 Isotope115

                          Files used for pseudopotentials:
                                    P 3|1.8|4|4|5|30:31:32
                                    In 3|2.5|2.5|1.5|7|8|9|50:51:42U2.2U2.2

                           -------------------------------
                              k-Points For BZ Sampling
                           -------------------------------
                       MP grid size for SCF calculation is  6 10  2
                            with an offset of   0.083  0.050  0.250
                       Number of kpoints used =            64

                           -------------------------------
                               Symmetry and Constraints
                           -------------------------------

                      Maximum deviation from symmetry =  0.00000         ANG

                      Number of symmetry operations   =           1
                      Number of ionic constraints     =          48
                      Point group of crystal =     1: C1, 1, 1
                      Space group of crystal =     4: P2_1, P 2yb

             Set iprint > 1 for details on symmetry rotations/translations

                         Centre of mass is NOT constrained
             Set iprint > 1 for details of linear ionic constraints

                         Number of cell constraints= 6
                         Cell constraints are:  0 0 0 0 0 0

                         External pressure/stress (GPa)
                          0.00000   0.00000   0.00000
                                    0.00000   0.00000
                                              0.00000
 
+---------------- MEMORY AND SCRATCH DISK ESTIMATES PER PROCESS --------------+
|                                                     Memory          Disk    |
| Baseline code, static data and system overhead      386.0 MB         0.0 MB |
| BLAS internal memory storage                          0.0 MB         0.0 MB |
| Model and support data                             4221.4 MB         0.0 MB |
| Electronic energy minimisation requirements         518.9 MB         0.0 MB |
| Force calculation requirements                       97.8 MB         0.0 MB |
|                                               ----------------------------- |
| Approx. total storage required per process         5126.3 MB         0.0 MB |
|                                                                             |
| Requirements will fluctuate during execution and may exceed these estimates |
+-----------------------------------------------------------------------------+
Calculating approximate eigenstates for fixed initial Hamiltonian
Cut-off for approx. calculation is   89.988 eV
Improving approx. states at cut-off of  450.000 eV
Resetting cut-off to  900.000 eV
Calculating total energy with cut-off of  900.000 eV.
------------------------------------------------------------------------ <-- SCF
SCF loop      Energy           Fermi           Energy gain       Timer   <-- SCF
                               energy          per atom          (sec)   <-- SCF
------------------------------------------------------------------------ <-- SCF
Initial  -2.36439713E+004  0.00000000E+000                        79.45  <-- SCF
      1  -2.35519649E+004  3.08508933E+000  -3.83360201E+000     118.94  <-- SCF
      2  -2.35520624E+004  2.57967108E+000   4.06247420E-003     149.41  <-- SCF
      3  -2.35770098E+004  2.88582110E+000   1.03947436E+000     183.72  <-- SCF
      4  -2.35814391E+004  2.96357286E+000   1.84554213E-001     229.60  <-- SCF
      5  -2.35792474E+004  3.31945118E+000  -9.13200374E-002     265.85  <-- SCF
      6  -2.35790994E+004  3.37467624E+000  -6.16549745E-003     299.73  <-- SCF
      7  -2.35790759E+004  3.42118520E+000  -9.81223025E-004     336.80  <-- SCF
      8  -2.35795883E+004  3.46315792E+000   2.13532413E-002     370.44  <-- SCF
      9  -2.35796392E+004  3.40578575E+000   2.11988749E-003     406.10  <-- SCF
     10  -2.35796383E+004  3.42611483E+000  -3.81520243E-005     444.10  <-- SCF
     11  -2.35796379E+004  3.42836740E+000  -1.64688012E-005     483.62  <-- SCF
     12  -2.35796383E+004  3.42617763E+000   1.77806698E-005     517.80  <-- SCF
     13  -2.35796384E+004  3.42611240E+000   9.11077341E-007     549.93  <-- SCF
     14  -2.35796384E+004  3.42590682E+000   1.70245570E-007     581.16  <-- SCF
     15  -2.35796384E+004  3.42597367E+000  -1.10650785E-008     609.14  <-- SCF
     16  -2.35796384E+004  3.42601133E+000   1.00927932E-010     637.08  <-- SCF
     17  -2.35796384E+004  3.42601121E+000   1.36684519E-009     663.10  <-- SCF
------------------------------------------------------------------------ <-- SCF
 
Final energy, E             =  -23579.63834141     eV
Final free energy (E-TS)    =  -23579.63835410     eV
(energies not corrected for finite basis set)
 
NB est. 0K energy (E-0.5TS)      =  -23579.63834776     eV
 
 
+---------------- MEMORY AND SCRATCH DISK ESTIMATES PER PROCESS --------------+
|                                                     Memory          Disk    |
| Model and support data                             2433.0 MB         0.0 MB |
| Electronic energy minimisation requirements         518.9 MB         0.0 MB |
| Geometry minimisation requirements                  605.4 MB         0.0 MB |
|                                               ----------------------------- |
| Approx. total storage required per process         3557.3 MB         0.0 MB |
|                                                                             |
| Requirements will fluctuate during execution and may exceed these estimates |
+-----------------------------------------------------------------------------+
 

 ******************************** Constrained Forces ********************************
 *                                                                                  *
 *                           Cartesian components (eV/A)                            *
 * -------------------------------------------------------------------------------- *
 *                         x                    y                    z              *
 *                                                                                  *
 * P               1      0.00000(cons'd)      0.00000(cons'd)      0.00426         *
 * P               2      0.00000(cons'd)     -0.00000(cons'd)      0.00477         *
 * P               3     -0.00000(cons'd)      0.00000(cons'd)     -0.00028         *
 * P               4     -0.00000(cons'd)     -0.00000(cons'd)     -0.00074         *
 * P               5      0.00000(cons'd)      0.00000(cons'd)     -0.00016         *
 * P               6      0.00000(cons'd)     -0.00000(cons'd)     -0.00012         *
 * P               7     -0.00000(cons'd)      0.00000(cons'd)     -0.00151         *
 * P               8      0.00000(cons'd)      0.00000(cons'd)     -0.00412         *
 * P               9      0.00000(cons'd)      0.00000(cons'd)     -0.01208         *
 * P              10      0.00000(cons'd)      0.00000(cons'd)      0.00964         *
 * P              11     -0.00000(cons'd)      0.00000(cons'd)      0.00273         *
 * P              12      0.00000(cons'd)     -0.00000(cons'd)     -0.00629         *
 * In              1      0.00000(cons'd)      0.00000(cons'd)      0.00073         *
 * In              2      0.00000(cons'd)      0.00000(cons'd)     -0.00474         *
 * In              3      0.00000(cons'd)      0.00000(cons'd)     -0.00258         *
 * In              4      0.00000(cons'd)      0.00000(cons'd)     -0.00111         *
 * In              5      0.00000(cons'd)      0.00000(cons'd)      0.00016         *
 * In              6      0.00000(cons'd)     -0.00000(cons'd)      0.00904         *
 * In              7      0.00000(cons'd)      0.00000(cons'd)      0.00177         *
 * In              8     -0.00000(cons'd)      0.00000(cons'd)      0.01530         *
 * In              9      0.00000(cons'd)      0.00000(cons'd)      0.00523         *
 * In             10      0.00000(cons'd)      0.00000(cons'd)     -0.00840         *
 * In             11      0.00000(cons'd)      0.00000(cons'd)     -0.01457         *
 * In             12      0.00000(cons'd)      0.00000(cons'd)      0.00307         *
 *                                                                                  *
 ************************************************************************************
 EXP precond LBFGS => estimated nearest neighbor distance :  2.555       A
 EXP precond LBFGS => estimated cutoff distance :  5.111       A

 ************************************** Forces **************************************
 *                                                                                  *
 *                           Cartesian components (eV/A)                            *
 * -------------------------------------------------------------------------------- *
 *                         x                    y                    z              *
 *                                                                                  *
 * P               1      0.00999(cons'd)     -0.00317(cons'd)      0.00426         *
 * P               2      0.00849(cons'd)      0.00220(cons'd)      0.00477         *
 * P               3      0.00599(cons'd)     -0.00161(cons'd)     -0.00028         *
 * P               4      0.01157(cons'd)      0.00484(cons'd)     -0.00074         *
 * P               5      0.01464(cons'd)     -0.00168(cons'd)     -0.00016         *
 * P               6      0.01585(cons'd)      0.00450(cons'd)     -0.00012         *
 * P               7      0.00591(cons'd)     -0.00616(cons'd)     -0.00151         *
 * P               8      0.01210(cons'd)     -0.00533(cons'd)     -0.00412         *
 * P               9     -0.00576(cons'd)      0.06123(cons'd)     -0.01208         *
 * P              10     -0.00824(cons'd)     -0.05476(cons'd)      0.00964         *
 * P              11      0.11481(cons'd)     -0.46238(cons'd)      0.00273         *
 * P              12      0.11366(cons'd)      0.46756(cons'd)     -0.00629         *
 * In              1     -0.00960(cons'd)     -0.00057(cons'd)      0.00073         *
 * In              2      0.00108(cons'd)      0.00317(cons'd)     -0.00474         *
 * In              3     -0.01411(cons'd)      0.00023(cons'd)     -0.00258         *
 * In              4     -0.00653(cons'd)     -0.00058(cons'd)     -0.00111         *
 * In              5     -0.00953(cons'd)     -0.00053(cons'd)      0.00016         *
 * In              6     -0.03569(cons'd)     -0.04447(cons'd)      0.00904         *
 * In              7     -0.00665(cons'd)     -0.00014(cons'd)      0.00177         *
 * In              8     -0.08465(cons'd)     -0.09159(cons'd)      0.01530         *
 * In              9      0.00116(cons'd)     -0.00401(cons'd)      0.00523         *
 * In             10     -0.03564(cons'd)      0.04338(cons'd)     -0.00840         *
 * In             11     -0.08469(cons'd)      0.09066(cons'd)     -0.01457         *
 * In             12     -0.01414(cons'd)     -0.00079(cons'd)      0.00307         *
 *                                                                                  *
 ************************************************************************************
 doing test perturbation to get energy scale for EXP preconditioner

                           -------------------------------
                                     Cell Contents
                           -------------------------------

            xxxxxxxxxxxxxxxxxxxxxxxxxxxxxxxxxxxxxxxxxxxxxxxxxxxxxxxxxxxxxxxxx
            x  Element         Atom        Fractional coordinates of atoms  x
            x                 Number           u          v          w      x
            x---------------------------------------------------------------x
            x  P                 1         0.251417   0.211112   0.333513   x
            x  P                 2         0.753644   0.640207   0.417081   x
            x  P                 3         0.753644   0.786353   0.250057   x
            x  P                 4         0.251417   0.064943   0.500563   x
            x  P                 5         0.753644   0.494046   0.584123   x
            x  P                 6         0.251417   0.357332   0.166405   x
            x  P                 7         0.251417   0.921991   0.667563   x
            x  P                 8         0.753644   0.347861   0.751191   x
            x  P                 9         0.753644   0.932458   0.083080   x
            x  P                10         0.251417   0.775935   0.834484   x
            x  P                11         0.753644   0.201429   0.918542   x
            x  P                12         0.251417   0.506104   0.999889   x
            x  In                1         0.502678   0.138028   0.417037   x
            x  In                2         0.502678   0.848958   0.751029   x
            x  In                3         0.000000   0.420938   0.667674   x
            x  In                4         0.502678   0.995050   0.584067   x
            x  In                5         0.000000   0.567122   0.500607   x
            x  In                6         0.000000   0.274712   0.834790   x
            x  In                7         0.000000   0.713280   0.333569   x
            x  In                8         0.502678   0.702914   0.917937   x
            x  In                9         0.000000   0.859407   0.166567   x
            x  In               10         0.502678   0.430508   0.082774   x
            x  In               11         0.000000   0.004268   1.000494   x
            x  In               12         0.502678   0.284234   0.249945   x
            xxxxxxxxxxxxxxxxxxxxxxxxxxxxxxxxxxxxxxxxxxxxxxxxxxxxxxxxxxxxxxxxx


------------------------------------------------------------------------ <-- SCF
SCF loop      Energy           Fermi           Energy gain       Timer   <-- SCF
                               energy          per atom          (sec)   <-- SCF
------------------------------------------------------------------------ <-- SCF
Initial  -2.35781881E+004  0.00000000E+000                       739.66  <-- SCF
      1  -2.35794520E+004  3.42509868E+000   5.26601428E-002     776.49  <-- SCF
      2  -2.35796232E+004  3.42501411E+000   7.13257493E-003     819.12  <-- SCF
      3  -2.35796252E+004  3.42516337E+000   8.47853825E-005     852.74  <-- SCF
      4  -2.35796266E+004  3.42529431E+000   5.90543484E-005     886.50  <-- SCF
      5  -2.35796268E+004  3.42526498E+000   5.59328779E-006     927.92  <-- SCF
      6  -2.35796268E+004  3.42524601E+000   1.52427988E-006     964.75  <-- SCF
      7  -2.35796268E+004  3.42525234E+000   1.03052187E-007     994.42  <-- SCF
      8  -2.35796268E+004  3.42525317E+000   1.75419964E-008    1020.33  <-- SCF
      9  -2.35796268E+004  3.42525261E+000   2.66176474E-009    1046.84  <-- SCF
     10  -2.35796268E+004  3.42525081E+000  -3.29981488E-011    1072.46  <-- SCF
     11  -2.35796268E+004  3.42525008E+000  -2.11394391E-010    1098.27  <-- SCF
------------------------------------------------------------------------ <-- SCF
 
Final energy, E             =  -23579.62677730     eV
Final free energy (E-TS)    =  -23579.62678993     eV
(energies not corrected for finite basis set)
 
NB est. 0K energy (E-0.5TS)      =  -23579.62678361     eV
 

 ************************************** Forces **************************************
 *                                                                                  *
 *                           Cartesian components (eV/A)                            *
 * -------------------------------------------------------------------------------- *
 *                         x                    y                    z              *
 *                                                                                  *
 * P               1      0.04085(cons'd)      0.07528(cons'd)      0.00247         *
 * P               2     -0.11254(cons'd)     -0.06871(cons'd)      0.00262         *
 * P               3     -0.11486(cons'd)     -0.07900(cons'd)     -0.00318         *
 * P               4      0.04227(cons'd)      0.08253(cons'd)      0.00177         *
 * P               5     -0.11261(cons'd)      0.01687(cons'd)      0.00385         *
 * P               6      0.05528(cons'd)      0.07671(cons'd)      0.00791         *
 * P               7      0.03465(cons'd)     -0.03515(cons'd)     -0.00088         *
 * P               8     -0.10907(cons'd)      0.03439(cons'd)     -0.00691         *
 * P               9     -0.18101(cons'd)     -0.00902(cons'd)      0.10250         *
 * P              10      0.02433(cons'd)     -0.08706(cons'd)      0.00540         *
 * P              11      0.00409(cons'd)     -0.42400(cons'd)     -0.00276         *
 * P              12      0.09517(cons'd)      0.42904(cons'd)     -0.10113         *
 * In              1     -0.07068(cons'd)      0.06261(cons'd)      0.00047         *
 * In              2     -0.05632(cons'd)     -0.02398(cons'd)     -0.00564         *
 * In              3      0.13732(cons'd)      0.02618(cons'd)     -0.00309         *
 * In              4     -0.06573(cons'd)     -0.03120(cons'd)     -0.00154         *
 * In              5      0.14079(cons'd)     -0.06438(cons'd)     -0.00006         *
 * In              6      0.11323(cons'd)     -0.01861(cons'd)      0.00827         *
 * In              7      0.14350(cons'd)     -0.06289(cons'd)      0.00195         *
 * In              8     -0.14167(cons'd)     -0.12433(cons'd)      0.00652         *
 * In              9      0.15036(cons'd)     -0.06580(cons'd)      0.01179         *
 * In             10     -0.05274(cons'd)      0.10973(cons'd)      0.07664         *
 * In             11      0.11360(cons'd)      0.11850(cons'd)     -0.11019         *
 * In             12     -0.07821(cons'd)      0.06226(cons'd)      0.00322         *
 *                                                                                  *
 ************************************************************************************
 EXP precond LBFGS => estimated parameter mu :  2.365       eV/A**2
 LBFGS: finished iteration     0 with enthalpy= -2.35796384E+004 eV
  
 +-----------+-----------------+-----------------+------------+-----+ <-- LBFGS
 | Parameter |      value      |    tolerance    |    units   | OK? | <-- LBFGS
 +-----------+-----------------+-----------------+------------+-----+ <-- LBFGS
 |  dE/ion   |   0.000000E+000 |   2.000000E-005 |         eV | No  | <-- LBFGS
 |  |F|max   |   4.509589E-001 |   1.000000E-003 |       eV/A | No  | <-- LBFGS
 |  |dR|max  |   4.124266E-015 |   1.000000E-003 |          A | No  | <-- LBFGS
 +-----------+-----------------+-----------------+------------+-----+ <-- LBFGS
  

================================================================================
 Starting LBFGS iteration          1 ...
================================================================================
  
 +------------+-------------+-------------+-----------------+ <-- min LBFGS
 |    Step    |   lambda    |   F.delta'  |    enthalpy     | <-- min LBFGS
 +------------+-------------+-------------+-----------------+ <-- min LBFGS
 |  previous  |    0.000000 |    0.019211 |   -23579.638354 | <-- min LBFGS
 +------------+-------------+-------------+-----------------+ <-- min LBFGS
  

--------------------------------------------------------------------------------
 LBFGS: starting iteration         1 with trial guess (lambda=  1.000000)
--------------------------------------------------------------------------------

                           -------------------------------
                                     Cell Contents
                           -------------------------------

            xxxxxxxxxxxxxxxxxxxxxxxxxxxxxxxxxxxxxxxxxxxxxxxxxxxxxxxxxxxxxxxxx
            x  Element         Atom        Fractional coordinates of atoms  x
            x                 Number           u          v          w      x
            x---------------------------------------------------------------x
            x  P                 1         0.250000   0.208457   0.333192   x
            x  P                 2         0.750000  -0.364596   0.416681   x
            x  P                 3         0.750000  -0.218562   0.249785   x
            x  P                 4         0.250000   0.062455   0.500051   x
            x  P                 5         0.750000  -0.510584   0.583525   x
            x  P                 6         0.250000   0.354585   0.166188   x
            x  P                 7         0.250000  -0.083523   0.666883   x
            x  P                 8         0.750000  -0.656641   0.750447   x
            x  P                 9         0.750000  -0.072517   0.082877   x
            x  P                10         0.250000  -0.229530   0.833748   x
            x  P                11         0.750000  -0.802980   0.917692   x
            x  P                12         0.250000   0.500945  -0.001080   x
            x  In                1         0.500000   0.135454   0.416624   x
            x  In                2         0.500000  -0.156500   0.750286   x
            x  In                3         0.000000  -0.583617   0.666991   x
            x  In                4         0.500000  -0.010532   0.583465   x
            x  In                5         0.000000  -0.437588   0.500101   x
            x  In                6         0.000000  -0.729787   0.834042   x
            x  In                7         0.000000  -0.291585   0.333240   x
            x  In                8         0.500000  -0.302497   0.917140   x
            x  In                9         0.000000  -0.145568   0.166363   x
            x  In               10         0.500000   0.427734   0.082589   x
            x  In               11         0.000000   0.000451  -0.000516   x
            x  In               12         0.500000   0.281526   0.249685   x
            xxxxxxxxxxxxxxxxxxxxxxxxxxxxxxxxxxxxxxxxxxxxxxxxxxxxxxxxxxxxxxxxx


------------------------------------------------------------------------ <-- SCF
SCF loop      Energy           Fermi           Energy gain       Timer   <-- SCF
                               energy          per atom          (sec)   <-- SCF
------------------------------------------------------------------------ <-- SCF
Initial  -2.35781550E+004  0.00000000E+000                      1142.76  <-- SCF
      1  -2.35794645E+004  3.42591698E+000   5.45611100E-002    1181.01  <-- SCF
      2  -2.35796347E+004  3.42583567E+000   7.09250315E-003    1221.67  <-- SCF
      3  -2.35796368E+004  3.42584824E+000   8.74364421E-005    1257.96  <-- SCF
      4  -2.35796383E+004  3.42591700E+000   6.03351394E-005    1293.88  <-- SCF
      5  -2.35796384E+004  3.42591605E+000   5.36001666E-006    1337.86  <-- SCF
      6  -2.35796384E+004  3.42592064E+000   1.47109318E-006    1374.99  <-- SCF
      7  -2.35796384E+004  3.42592979E+000   1.04197455E-007    1405.79  <-- SCF
      8  -2.35796384E+004  3.42593401E+000   1.90730589E-008    1432.97  <-- SCF
      9  -2.35796384E+004  3.42593690E+000   2.49484051E-009    1461.15  <-- SCF
     10  -2.35796384E+004  3.42593778E+000  -6.99921672E-011    1488.48  <-- SCF
     11  -2.35796384E+004  3.42593904E+000  -1.86387981E-010    1514.54  <-- SCF
------------------------------------------------------------------------ <-- SCF
 
Final energy, E             =  -23579.63842771     eV
Final free energy (E-TS)    =  -23579.63844038     eV
(energies not corrected for finite basis set)
 
NB est. 0K energy (E-0.5TS)      =  -23579.63843405     eV
 

 ******************************** Constrained Forces ********************************
 *                                                                                  *
 *                           Cartesian components (eV/A)                            *
 * -------------------------------------------------------------------------------- *
 *                         x                    y                    z              *
 *                                                                                  *
 * P               1     -0.00000(cons'd)      0.00000(cons'd)     -0.00088         *
 * P               2     -0.00000(cons'd)      0.00000(cons'd)     -0.00056         *
 * P               3     -0.00000(cons'd)      0.00000(cons'd)      0.00010         *
 * P               4     -0.00000(cons'd)     -0.00000(cons'd)      0.00019         *
 * P               5     -0.00000(cons'd)      0.00000(cons'd)      0.00016         *
 * P               6     -0.00000(cons'd)      0.00000(cons'd)     -0.00091         *
 * P               7     -0.00000(cons'd)      0.00000(cons'd)      0.00020         *
 * P               8     -0.00000(cons'd)      0.00000(cons'd)      0.00182         *
 * P               9      0.00000(cons'd)     -0.00000(cons'd)      0.00121         *
 * P              10      0.00000(cons'd)      0.00000(cons'd)     -0.00109         *
 * P              11      0.00000(cons'd)      0.00000(cons'd)     -0.00231         *
 * P              12     -0.00000(cons'd)     -0.00000(cons'd)      0.00258         *
 * In              1      0.00000(cons'd)      0.00000(cons'd)      0.00008         *
 * In              2      0.00000(cons'd)      0.00000(cons'd)      0.00144         *
 * In              3      0.00000(cons'd)      0.00000(cons'd)     -0.00013         *
 * In              4      0.00000(cons'd)      0.00000(cons'd)     -0.00010         *
 * In              5      0.00000(cons'd)      0.00000(cons'd)      0.00114         *
 * In              6      0.00000(cons'd)      0.00000(cons'd)     -0.00195         *
 * In              7      0.00000(cons'd)      0.00000(cons'd)      0.00020         *
 * In              8      0.00000(cons'd)      0.00000(cons'd)      0.00413         *
 * In              9      0.00000(cons'd)      0.00000(cons'd)     -0.00174         *
 * In             10      0.00000(cons'd)      0.00000(cons'd)      0.00085         *
 * In             11      0.00000(cons'd)      0.00000(cons'd)     -0.00481         *
 * In             12      0.00000(cons'd)      0.00000(cons'd)      0.00037         *
 *                                                                                  *
 ************************************************************************************
  
 +------------+-------------+-------------+-----------------+ <-- min LBFGS
 |    Step    |   lambda    |   F.delta'  |    enthalpy     | <-- min LBFGS
 +------------+-------------+-------------+-----------------+ <-- min LBFGS
 |  previous  |    0.000000 |    0.019211 |   -23579.638354 | <-- min LBFGS
 | trial step |    1.000000 |    0.000643 |   -23579.638440 | <-- min LBFGS
 +------------+-------------+-------------+-----------------+ <-- min LBFGS
  
 LBFGS: finished iteration     1 with enthalpy= -2.35796384E+004 eV
  
 +-----------+-----------------+-----------------+------------+-----+ <-- LBFGS
 | Parameter |      value      |    tolerance    |    units   | OK? | <-- LBFGS
 +-----------+-----------------+-----------------+------------+-----+ <-- LBFGS
 |  dE/ion   |   3.595164E-006 |   2.000000E-005 |         eV | Yes | <-- LBFGS
 |  |F|max   |   4.808545E-003 |   1.000000E-003 |       eV/A | No  | <-- LBFGS
 |  |dR|max  |   2.788784E-003 |   1.000000E-003 |          A | No  | <-- LBFGS
 +-----------+-----------------+-----------------+------------+-----+ <-- LBFGS
  

================================================================================
 Starting LBFGS iteration          2 ...
================================================================================
  
 +------------+-------------+-------------+-----------------+ <-- min LBFGS
 |    Step    |   lambda    |   F.delta'  |    enthalpy     | <-- min LBFGS
 +------------+-------------+-------------+-----------------+ <-- min LBFGS
 |  previous  |    0.000000 |    0.004473 |   -23579.638440 | <-- min LBFGS
 +------------+-------------+-------------+-----------------+ <-- min LBFGS
  

--------------------------------------------------------------------------------
 LBFGS: starting iteration         2 with trial guess (lambda=  1.000000)
--------------------------------------------------------------------------------

                           -------------------------------
                                     Cell Contents
                           -------------------------------

            xxxxxxxxxxxxxxxxxxxxxxxxxxxxxxxxxxxxxxxxxxxxxxxxxxxxxxxxxxxxxxxxx
            x  Element         Atom        Fractional coordinates of atoms  x
            x                 Number           u          v          w      x
            x---------------------------------------------------------------x
            x  P                 1         0.250000   0.208461   0.333188   x
            x  P                 2         0.750000  -0.364598   0.416683   x
            x  P                 3         0.750000  -0.218556   0.249779   x
            x  P                 4         0.250000   0.062450   0.500057   x
            x  P                 5         0.750000  -0.510592   0.583534   x
            x  P                 6         0.250000   0.354596   0.166176   x
            x  P                 7         0.250000  -0.083531   0.666893   x
            x  P                 8         0.750000  -0.656652   0.750459   x
            x  P                 9         0.750000  -0.072507   0.082865   x
            x  P                10         0.250000  -0.229534   0.833753   x
            x  P                11         0.750000  -0.802969   0.917679   x
            x  P                12         0.250000   0.500941  -0.001075   x
            x  In                1         0.500000   0.135452   0.416626   x
            x  In                2         0.500000  -0.156512   0.750300   x
            x  In                3         0.000000  -0.583625   0.667000   x
            x  In                4         0.500000  -0.010538   0.583472   x
            x  In                5         0.000000  -0.437597   0.500111   x
            x  In                6         0.000000  -0.729782   0.834037   x
            x  In                7         0.000000  -0.291584   0.333239   x
            x  In                8         0.500000  -0.302515   0.917159   x
            x  In                9         0.000000  -0.145553   0.166347   x
            x  In               10         0.500000   0.427738   0.082585   x
            x  In               11         0.000000   0.000478  -0.000546   x
            x  In               12         0.500000   0.281530   0.249680   x
            xxxxxxxxxxxxxxxxxxxxxxxxxxxxxxxxxxxxxxxxxxxxxxxxxxxxxxxxxxxxxxxxx


------------------------------------------------------------------------ <-- SCF
SCF loop      Energy           Fermi           Energy gain       Timer   <-- SCF
                               energy          per atom          (sec)   <-- SCF
------------------------------------------------------------------------ <-- SCF
Initial  -2.35796382E+004  0.00000000E+000                      1556.41  <-- SCF
      1  -2.35796384E+004  3.42593566E+000   7.62946073E-006    1595.78  <-- SCF
      2  -2.35796384E+004  3.42593565E+000   9.44922486E-007    1638.90  <-- SCF
      3  -2.35796384E+004  3.42593346E+000   1.06902401E-008    1665.82  <-- SCF
      4  -2.35796384E+004  3.42593114E+000   5.67658388E-009    1690.56  <-- SCF
      5  -2.35796384E+004  3.42593082E+000   5.43180465E-010    1713.81  <-- SCF
------------------------------------------------------------------------ <-- SCF
 
Final energy, E             =  -23579.63843326     eV
Final free energy (E-TS)    =  -23579.63844593     eV
(energies not corrected for finite basis set)
 
NB est. 0K energy (E-0.5TS)      =  -23579.63843960     eV
 

 ******************************** Constrained Forces ********************************
 *                                                                                  *
 *                           Cartesian components (eV/A)                            *
 * -------------------------------------------------------------------------------- *
 *                         x                    y                    z              *
 *                                                                                  *
 * P               1      0.00000(cons'd)      0.00000(cons'd)     -0.00005         *
 * P               2     -0.00000(cons'd)     -0.00000(cons'd)     -0.00001         *
 * P               3     -0.00000(cons'd)      0.00000(cons'd)     -0.00024         *
 * P               4     -0.00000(cons'd)      0.00000(cons'd)     -0.00022         *
 * P               5      0.00000(cons'd)      0.00000(cons'd)      0.00010         *
 * P               6     -0.00000(cons'd)     -0.00000(cons'd)      0.00085         *
 * P               7      0.00000(cons'd)      0.00000(cons'd)      0.00018         *
 * P               8      0.00000(cons'd)      0.00000(cons'd)     -0.00089         *
 * P               9      0.00000(cons'd)     -0.00000(cons'd)     -0.00085         *
 * P              10      0.00000(cons'd)      0.00000(cons'd)      0.00097         *
 * P              11     -0.00000(cons'd)      0.00000(cons'd)     -0.00168         *
 * P              12      0.00000(cons'd)      0.00000(cons'd)      0.00176         *
 * In              1      0.00000(cons'd)      0.00000(cons'd)     -0.00030         *
 * In              2      0.00000(cons'd)      0.00000(cons'd)     -0.00009         *
 * In              3      0.00000(cons'd)      0.00000(cons'd)      0.00008         *
 * In              4     -0.00000(cons'd)      0.00000(cons'd)     -0.00022         *
 * In              5      0.00000(cons'd)      0.00000(cons'd)     -0.00040         *
 * In              6      0.00000(cons'd)      0.00000(cons'd)     -0.00115         *
 * In              7      0.00000(cons'd)      0.00000(cons'd)     -0.00005         *
 * In              8      0.00000(cons'd)      0.00000(cons'd)      0.00043         *
 * In              9      0.00000(cons'd)      0.00000(cons'd)      0.00026         *
 * In             10      0.00000(cons'd)      0.00000(cons'd)      0.00177         *
 * In             11      0.00000(cons'd)      0.00000(cons'd)     -0.00010         *
 * In             12      0.00000(cons'd)      0.00000(cons'd)     -0.00014         *
 *                                                                                  *
 ************************************************************************************
  
 +------------+-------------+-------------+-----------------+ <-- min LBFGS
 |    Step    |   lambda    |   F.delta'  |    enthalpy     | <-- min LBFGS
 +------------+-------------+-------------+-----------------+ <-- min LBFGS
 |  previous  |    0.000000 |    0.004473 |   -23579.638440 | <-- min LBFGS
 | trial step |    1.000000 |    0.000301 |   -23579.638446 | <-- min LBFGS
 +------------+-------------+-------------+-----------------+ <-- min LBFGS
  
 LBFGS: finished iteration     2 with enthalpy= -2.35796384E+004 eV
  
 +-----------+-----------------+-----------------+------------+-----+ <-- LBFGS
 | Parameter |      value      |    tolerance    |    units   | OK? | <-- LBFGS
 +-----------+-----------------+-----------------+------------+-----+ <-- LBFGS
 |  dE/ion   |   2.313616E-007 |   2.000000E-005 |         eV | Yes | <-- LBFGS
 |  |F|max   |   1.768609E-003 |   1.000000E-003 |       eV/A | No  | <-- LBFGS
 |  |dR|max  |   7.546660E-004 |   1.000000E-003 |          A | Yes | <-- LBFGS
 +-----------+-----------------+-----------------+------------+-----+ <-- LBFGS
  

================================================================================
 Starting LBFGS iteration          3 ...
================================================================================
  
 +------------+-------------+-------------+-----------------+ <-- min LBFGS
 |    Step    |   lambda    |   F.delta'  |    enthalpy     | <-- min LBFGS
 +------------+-------------+-------------+-----------------+ <-- min LBFGS
 |  previous  |    0.000000 |    0.002290 |   -23579.638446 | <-- min LBFGS
 +------------+-------------+-------------+-----------------+ <-- min LBFGS
  

--------------------------------------------------------------------------------
 LBFGS: starting iteration         3 with trial guess (lambda=  1.000000)
--------------------------------------------------------------------------------

                           -------------------------------
                                     Cell Contents
                           -------------------------------

            xxxxxxxxxxxxxxxxxxxxxxxxxxxxxxxxxxxxxxxxxxxxxxxxxxxxxxxxxxxxxxxxx
            x  Element         Atom        Fractional coordinates of atoms  x
            x                 Number           u          v          w      x
            x---------------------------------------------------------------x
            x  P                 1         0.250000   0.208462   0.333186   x
            x  P                 2         0.750000  -0.364595   0.416680   x
            x  P                 3         0.750000  -0.218557   0.249780   x
            x  P                 4         0.250000   0.062453   0.500053   x
            x  P                 5         0.750000  -0.510589   0.583531   x
            x  P                 6         0.250000   0.354588   0.166185   x
            x  P                 7         0.250000  -0.083530   0.666891   x
            x  P                 8         0.750000  -0.656646   0.750453   x
            x  P                 9         0.750000  -0.072508   0.082866   x
            x  P                10         0.250000  -0.229537   0.833757   x
            x  P                11         0.750000  -0.802960   0.917668   x
            x  P                12         0.250000   0.500927  -0.001059   x
            x  In                1         0.500000   0.135456   0.416622   x
            x  In                2         0.500000  -0.156511   0.750299   x
            x  In                3         0.000000  -0.583621   0.666996   x
            x  In                4         0.500000  -0.010535   0.583468   x
            x  In                5         0.000000  -0.437594   0.500107   x
            x  In                6         0.000000  -0.729773   0.834027   x
            x  In                7         0.000000  -0.291583   0.333238   x
            x  In                8         0.500000  -0.302524   0.917170   x
            x  In                9         0.000000  -0.145556   0.166350   x
            x  In               10         0.500000   0.427724   0.082600   x
            x  In               11         0.000000   0.000482  -0.000551   x
            x  In               12         0.500000   0.281527   0.249683   x
            xxxxxxxxxxxxxxxxxxxxxxxxxxxxxxxxxxxxxxxxxxxxxxxxxxxxxxxxxxxxxxxxx


------------------------------------------------------------------------ <-- SCF
SCF loop      Energy           Fermi           Energy gain       Timer   <-- SCF
                               energy          per atom          (sec)   <-- SCF
------------------------------------------------------------------------ <-- SCF
Initial  -2.35796386E+004  0.00000000E+000                      1757.70  <-- SCF
      1  -2.35796384E+004  3.42592896E+000  -5.88158334E-006    1795.29  <-- SCF
      2  -2.35796384E+004  3.42592896E+000   2.62585605E-007    1836.38  <-- SCF
      3  -2.35796384E+004  3.42592846E+000   2.87870178E-009    1860.73  <-- SCF
      4  -2.35796384E+004  3.42592801E+000   1.89881144E-009    1885.09  <-- SCF
------------------------------------------------------------------------ <-- SCF
 
Final energy, E             =  -23579.63843518     eV
Final free energy (E-TS)    =  -23579.63844786     eV
(energies not corrected for finite basis set)
 
NB est. 0K energy (E-0.5TS)      =  -23579.63844152     eV
 

 ******************************** Constrained Forces ********************************
 *                                                                                  *
 *                           Cartesian components (eV/A)                            *
 * -------------------------------------------------------------------------------- *
 *                         x                    y                    z              *
 *                                                                                  *
 * P               1     -0.00000(cons'd)      0.00000(cons'd)      0.00023         *
 * P               2     -0.00000(cons'd)      0.00000(cons'd)      0.00001         *
 * P               3      0.00000(cons'd)      0.00000(cons'd)     -0.00004         *
 * P               4      0.00000(cons'd)     -0.00000(cons'd)     -0.00022         *
 * P               5     -0.00000(cons'd)      0.00000(cons'd)     -0.00027         *
 * P               6      0.00000(cons'd)      0.00000(cons'd)      0.00084         *
 * P               7     -0.00000(cons'd)      0.00000(cons'd)     -0.00010         *
 * P               8     -0.00000(cons'd)      0.00000(cons'd)     -0.00094         *
 * P               9     -0.00000(cons'd)      0.00000(cons'd)     -0.00072         *
 * P              10      0.00000(cons'd)      0.00000(cons'd)      0.00080         *
 * P              11     -0.00000(cons'd)      0.00000(cons'd)     -0.00042         *
 * P              12      0.00000(cons'd)     -0.00000(cons'd)      0.00067         *
 * In              1      0.00000(cons'd)      0.00000(cons'd)      0.00021         *
 * In              2      0.00000(cons'd)      0.00000(cons'd)      0.00086         *
 * In              3      0.00000(cons'd)      0.00000(cons'd)      0.00048         *
 * In              4      0.00000(cons'd)      0.00000(cons'd)      0.00066         *
 * In              5      0.00000(cons'd)      0.00000(cons'd)      0.00047         *
 * In              6      0.00000(cons'd)      0.00000(cons'd)     -0.00020         *
 * In              7      0.00000(cons'd)      0.00000(cons'd)     -0.00017         *
 * In              8      0.00000(cons'd)      0.00000(cons'd)     -0.00012         *
 * In              9      0.00000(cons'd)      0.00000(cons'd)     -0.00111         *
 * In             10      0.00000(cons'd)     -0.00000(cons'd)     -0.00032         *
 * In             11     -0.00000(cons'd)      0.00000(cons'd)     -0.00027         *
 * In             12      0.00000(cons'd)      0.00000(cons'd)     -0.00033         *
 *                                                                                  *
 ************************************************************************************
  
 +------------+-------------+-------------+-----------------+ <-- min LBFGS
 |    Step    |   lambda    |   F.delta'  |    enthalpy     | <-- min LBFGS
 +------------+-------------+-------------+-----------------+ <-- min LBFGS
 |  previous  |    0.000000 |    0.002290 |   -23579.638446 | <-- min LBFGS
 | trial step |    1.000000 |    0.000365 |   -23579.638448 | <-- min LBFGS
 +------------+-------------+-------------+-----------------+ <-- min LBFGS
  
 LBFGS: finished iteration     3 with enthalpy= -2.35796384E+004 eV
  
 +-----------+-----------------+-----------------+------------+-----+ <-- LBFGS
 | Parameter |      value      |    tolerance    |    units   | OK? | <-- LBFGS
 +-----------+-----------------+-----------------+------------+-----+ <-- LBFGS
 |  dE/ion   |   8.009192E-008 |   2.000000E-005 |         eV | Yes | <-- LBFGS
 |  |F|max   |   1.110863E-003 |   1.000000E-003 |       eV/A | No  | <-- LBFGS
 |  |dR|max  |   4.026593E-004 |   1.000000E-003 |          A | Yes | <-- LBFGS
 +-----------+-----------------+-----------------+------------+-----+ <-- LBFGS
  

================================================================================
 Starting LBFGS iteration          4 ...
================================================================================
  
 +------------+-------------+-------------+-----------------+ <-- min LBFGS
 |    Step    |   lambda    |   F.delta'  |    enthalpy     | <-- min LBFGS
 +------------+-------------+-------------+-----------------+ <-- min LBFGS
 |  previous  |    0.000000 |    0.001350 |   -23579.638448 | <-- min LBFGS
 +------------+-------------+-------------+-----------------+ <-- min LBFGS
  

--------------------------------------------------------------------------------
 LBFGS: starting iteration         4 with trial guess (lambda=  1.000000)
--------------------------------------------------------------------------------

                           -------------------------------
                                     Cell Contents
                           -------------------------------

            xxxxxxxxxxxxxxxxxxxxxxxxxxxxxxxxxxxxxxxxxxxxxxxxxxxxxxxxxxxxxxxxx
            x  Element         Atom        Fractional coordinates of atoms  x
            x                 Number           u          v          w      x
            x---------------------------------------------------------------x
            x  P                 1         0.250000   0.208462   0.333186   x
            x  P                 2         0.750000  -0.364596   0.416681   x
            x  P                 3         0.750000  -0.218553   0.249775   x
            x  P                 4         0.250000   0.062453   0.500054   x
            x  P                 5         0.750000  -0.510592   0.583533   x
            x  P                 6         0.250000   0.354585   0.166189   x
            x  P                 7         0.250000  -0.083534   0.666896   x
            x  P                 8         0.750000  -0.656642   0.750448   x
            x  P                 9         0.750000  -0.072499   0.082856   x
            x  P                10         0.250000  -0.229545   0.833766   x
            x  P                11         0.750000  -0.802950   0.917657   x
            x  P                12         0.250000   0.500918  -0.001049   x
            x  In                1         0.500000   0.135455   0.416623   x
            x  In                2         0.500000  -0.156518   0.750306   x
            x  In                3         0.000000  -0.583624   0.666999   x
            x  In                4         0.500000  -0.010539   0.583473   x
            x  In                5         0.000000  -0.437597   0.500111   x
            x  In                6         0.000000  -0.729767   0.834020   x
            x  In                7         0.000000  -0.291582   0.333236   x
            x  In                8         0.500000  -0.302530   0.917177   x
            x  In                9         0.000000  -0.145548   0.166340   x
            x  In               10         0.500000   0.427721   0.082604   x
            x  In               11        -0.000000   0.000491  -0.000561   x
            x  In               12         0.500000   0.281529   0.249681   x
            xxxxxxxxxxxxxxxxxxxxxxxxxxxxxxxxxxxxxxxxxxxxxxxxxxxxxxxxxxxxxxxxx


------------------------------------------------------------------------ <-- SCF
SCF loop      Energy           Fermi           Energy gain       Timer   <-- SCF
                               energy          per atom          (sec)   <-- SCF
------------------------------------------------------------------------ <-- SCF
Initial  -2.35796386E+004  0.00000000E+000                      1928.62  <-- SCF
      1  -2.35796384E+004  3.42592254E+000  -5.21451158E-006    1969.76  <-- SCF
      2  -2.35796384E+004  3.42592253E+000   2.03715103E-007    2009.43  <-- SCF
      3  -2.35796384E+004  3.42592244E+000   2.12258014E-009    2035.28  <-- SCF
      4  -2.35796384E+004  3.42592187E+000   1.30458697E-009    2059.68  <-- SCF
------------------------------------------------------------------------ <-- SCF
 
Final energy, E             =  -23579.63843597     eV
Final free energy (E-TS)    =  -23579.63844864     eV
(energies not corrected for finite basis set)
 
NB est. 0K energy (E-0.5TS)      =  -23579.63844230     eV
 

 ******************************** Constrained Forces ********************************
 *                                                                                  *
 *                           Cartesian components (eV/A)                            *
 * -------------------------------------------------------------------------------- *
 *                         x                    y                    z              *
 *                                                                                  *
 * P               1     -0.00000(cons'd)      0.00000(cons'd)      0.00021         *
 * P               2     -0.00000(cons'd)      0.00000(cons'd)      0.00013         *
 * P               3     -0.00000(cons'd)      0.00000(cons'd)     -0.00025         *
 * P               4     -0.00000(cons'd)      0.00000(cons'd)      0.00047         *
 * P               5      0.00000(cons'd)      0.00000(cons'd)      0.00010         *
 * P               6     -0.00000(cons'd)     -0.00000(cons'd)     -0.00048         *
 * P               7      0.00000(cons'd)      0.00000(cons'd)      0.00037         *
 * P               8      0.00000(cons'd)      0.00000(cons'd)      0.00032         *
 * P               9     -0.00000(cons'd)     -0.00000(cons'd)     -0.00029         *
 * P              10      0.00000(cons'd)      0.00000(cons'd)     -0.00009         *
 * P              11      0.00000(cons'd)      0.00000(cons'd)      0.00097         *
 * P              12      0.00000(cons'd)      0.00000(cons'd)     -0.00136         *
 * In              1      0.00000(cons'd)      0.00000(cons'd)     -0.00019         *
 * In              2      0.00000(cons'd)      0.00000(cons'd)     -0.00005         *
 * In              3      0.00000(cons'd)      0.00000(cons'd)     -0.00101         *
 * In              4     -0.00000(cons'd)      0.00000(cons'd)     -0.00053         *
 * In              5      0.00000(cons'd)      0.00000(cons'd)     -0.00054         *
 * In              6      0.00000(cons'd)      0.00000(cons'd)     -0.00043         *
 * In              7      0.00000(cons'd)      0.00000(cons'd)     -0.00004         *
 * In              8      0.00000(cons'd)      0.00000(cons'd)      0.00040         *
 * In              9      0.00000(cons'd)      0.00000(cons'd)      0.00030         *
 * In             10      0.00000(cons'd)      0.00000(cons'd)      0.00091         *
 * In             11      0.00000(cons'd)      0.00000(cons'd)      0.00020         *
 * In             12      0.00000(cons'd)     -0.00000(cons'd)      0.00085         *
 *                                                                                  *
 ************************************************************************************
  
 +------------+-------------+-------------+-----------------+ <-- min LBFGS
 |    Step    |   lambda    |   F.delta'  |    enthalpy     | <-- min LBFGS
 +------------+-------------+-------------+-----------------+ <-- min LBFGS
 |  previous  |    0.000000 |    0.001350 |   -23579.638448 | <-- min LBFGS
 | trial step |    1.000000 |   -0.000642 |   -23579.638449 | <-- min LBFGS
 +------------+-------------+-------------+-----------------+ <-- min LBFGS
  
 LBFGS: finished iteration     4 with enthalpy= -2.35796384E+004 eV
  
 +-----------+-----------------+-----------------+------------+-----+ <-- LBFGS
 | Parameter |      value      |    tolerance    |    units   | OK? | <-- LBFGS
 +-----------+-----------------+-----------------+------------+-----+ <-- LBFGS
 |  dE/ion   |   3.268441E-008 |   2.000000E-005 |         eV | Yes | <-- LBFGS
 |  |F|max   |   1.355631E-003 |   1.000000E-003 |       eV/A | No  | <-- LBFGS
 |  |dR|max  |   2.854446E-004 |   1.000000E-003 |          A | Yes | <-- LBFGS
 +-----------+-----------------+-----------------+------------+-----+ <-- LBFGS
  

================================================================================
 Starting LBFGS iteration          5 ...
================================================================================
  
 +------------+-------------+-------------+-----------------+ <-- min LBFGS
 |    Step    |   lambda    |   F.delta'  |    enthalpy     | <-- min LBFGS
 +------------+-------------+-------------+-----------------+ <-- min LBFGS
 |  previous  |    0.000000 |    0.001547 |   -23579.638449 | <-- min LBFGS
 +------------+-------------+-------------+-----------------+ <-- min LBFGS
  

--------------------------------------------------------------------------------
 LBFGS: starting iteration         5 with trial guess (lambda=  1.000000)
--------------------------------------------------------------------------------

                           -------------------------------
                                     Cell Contents
                           -------------------------------

            xxxxxxxxxxxxxxxxxxxxxxxxxxxxxxxxxxxxxxxxxxxxxxxxxxxxxxxxxxxxxxxxx
            x  Element         Atom        Fractional coordinates of atoms  x
            x                 Number           u          v          w      x
            x---------------------------------------------------------------x
            x  P                 1         0.250000   0.208461   0.333188   x
            x  P                 2         0.750000  -0.364596   0.416681   x
            x  P                 3         0.750000  -0.218554   0.249775   x
            x  P                 4         0.250000   0.062452   0.500055   x
            x  P                 5         0.750000  -0.510590   0.583532   x
            x  P                 6         0.250000   0.354585   0.166189   x
            x  P                 7         0.250000  -0.083533   0.666895   x
            x  P                 8         0.750000  -0.656642   0.750448   x
            x  P                 9         0.750000  -0.072499   0.082856   x
            x  P                10         0.250000  -0.229545   0.833765   x
            x  P                11         0.750000  -0.802953   0.917661   x
            x  P                12         0.250000   0.500921  -0.001053   x
            x  In                1         0.500000   0.135455   0.416623   x
            x  In                2         0.500000  -0.156518   0.750306   x
            x  In                3         0.000000  -0.583621   0.666996   x
            x  In                4         0.500000  -0.010538   0.583471   x
            x  In                5         0.000000  -0.437596   0.500110   x
            x  In                6         0.000000  -0.729767   0.834020   x
            x  In                7         0.000000  -0.291582   0.333237   x
            x  In                8         0.500000  -0.302530   0.917177   x
            x  In                9         0.000000  -0.145548   0.166341   x
            x  In               10         0.500000   0.427720   0.082605   x
            x  In               11        -0.000000   0.000490  -0.000560   x
            x  In               12         0.500000   0.281527   0.249684   x
            xxxxxxxxxxxxxxxxxxxxxxxxxxxxxxxxxxxxxxxxxxxxxxxxxxxxxxxxxxxxxxxxx


------------------------------------------------------------------------ <-- SCF
SCF loop      Energy           Fermi           Energy gain       Timer   <-- SCF
                               energy          per atom          (sec)   <-- SCF
------------------------------------------------------------------------ <-- SCF
Initial  -2.35796384E+004  0.00000000E+000                      2103.05  <-- SCF
      1  -2.35796384E+004  3.42592341E+000   2.88241498E-006    2141.30  <-- SCF
      2  -2.35796384E+004  3.42592341E+000   1.21431899E-008    2169.39  <-- SCF
      3  -2.35796384E+004  3.42592353E+000   1.14513888E-009    2192.93  <-- SCF
      4  -2.35796384E+004  3.42592381E+000   4.41221341E-010    2217.23  <-- SCF
------------------------------------------------------------------------ <-- SCF
 
Final energy, E             =  -23579.63843625     eV
Final free energy (E-TS)    =  -23579.63844893     eV
(energies not corrected for finite basis set)
 
NB est. 0K energy (E-0.5TS)      =  -23579.63844259     eV
 

 ******************************** Constrained Forces ********************************
 *                                                                                  *
 *                           Cartesian components (eV/A)                            *
 * -------------------------------------------------------------------------------- *
 *                         x                    y                    z              *
 *                                                                                  *
 * P               1      0.00000(cons'd)      0.00000(cons'd)      0.00017         *
 * P               2     -0.00000(cons'd)     -0.00000(cons'd)     -0.00001         *
 * P               3      0.00000(cons'd)      0.00000(cons'd)     -0.00005         *
 * P               4     -0.00000(cons'd)     -0.00000(cons'd)      0.00017         *
 * P               5     -0.00000(cons'd)      0.00000(cons'd)     -0.00010         *
 * P               6      0.00000(cons'd)     -0.00000(cons'd)     -0.00011         *
 * P               7      0.00000(cons'd)      0.00000(cons'd)      0.00012         *
 * P               8      0.00000(cons'd)      0.00000(cons'd)      0.00014         *
 * P               9      0.00000(cons'd)      0.00000(cons'd)      0.00021         *
 * P              10      0.00000(cons'd)      0.00000(cons'd)     -0.00021         *
 * P              11      0.00000(cons'd)      0.00000(cons'd)      0.00051         *
 * P              12      0.00000(cons'd)     -0.00000(cons'd)     -0.00062         *
 * In              1      0.00000(cons'd)      0.00000(cons'd)     -0.00012         *
 * In              2      0.00000(cons'd)      0.00000(cons'd)      0.00062         *
 * In              3      0.00000(cons'd)      0.00000(cons'd)      0.00060         *
 * In              4      0.00000(cons'd)      0.00000(cons'd)      0.00073         *
 * In              5      0.00000(cons'd)      0.00000(cons'd)      0.00047         *
 * In              6      0.00000(cons'd)      0.00000(cons'd)     -0.00072         *
 * In              7      0.00000(cons'd)      0.00000(cons'd)     -0.00044         *
 * In              8      0.00000(cons'd)      0.00000(cons'd)      0.00077         *
 * In              9      0.00000(cons'd)      0.00000(cons'd)     -0.00076         *
 * In             10      0.00000(cons'd)      0.00000(cons'd)      0.00048         *
 * In             11      0.00000(cons'd)      0.00000(cons'd)     -0.00136         *
 * In             12      0.00000(cons'd)      0.00000(cons'd)     -0.00049         *
 *                                                                                  *
 ************************************************************************************
  
 +------------+-------------+-------------+-----------------+ <-- min LBFGS
 |    Step    |   lambda    |   F.delta'  |    enthalpy     | <-- min LBFGS
 +------------+-------------+-------------+-----------------+ <-- min LBFGS
 |  previous  |    0.000000 |    0.001547 |   -23579.638449 | <-- min LBFGS
 | trial step |    1.000000 |   -0.000209 |   -23579.638449 | <-- min LBFGS
 +------------+-------------+-------------+-----------------+ <-- min LBFGS
  
 LBFGS: finished iteration     5 with enthalpy= -2.35796384E+004 eV
  
 +-----------+-----------------+-----------------+------------+-----+ <-- LBFGS
 | Parameter |      value      |    tolerance    |    units   | OK? | <-- LBFGS
 +-----------+-----------------+-----------------+------------+-----+ <-- LBFGS
 |  dE/ion   |   1.188977E-008 |   2.000000E-005 |         eV | Yes | <-- LBFGS
 |  |F|max   |   1.359460E-003 |   1.000000E-003 |       eV/A | No  | <-- LBFGS
 |  |dR|max  |   1.006969E-004 |   1.000000E-003 |          A | Yes | <-- LBFGS
[...]
            x  In                5         0.000000  -0.437596   0.500109   x
            x  In                6         0.000000  -0.729766   0.834018   x
            x  In                7         0.000000  -0.291581   0.333236   x
            x  In                8         0.500000  -0.302532   0.917180   x
            x  In                9         0.000000  -0.145547   0.166339   x
            x  In               10         0.500000   0.427719   0.082607   x
            x  In               11        -0.000000   0.000492  -0.000563   x
            x  In               12         0.500000   0.281526   0.249685   x
            xxxxxxxxxxxxxxxxxxxxxxxxxxxxxxxxxxxxxxxxxxxxxxxxxxxxxxxxxxxxxxxxx


 LBFGS: Final Enthalpy     = -2.35796384E+004 eV
 LBFGS: Final <frequency>  =     190.81929 cm-1

 ******************* Unconstrained Forces *******************
 *                                                          *
 *               Cartesian components (eV/A)                *
 * -------------------------------------------------------- *
 *                         x            y            z      *
 *                                                          *
 * P               1      0.01102     -0.00312     -0.00012 *
 * P               2      0.00827      0.00211     -0.00021 *
 * P               3      0.00955     -0.00160      0.00008 *
 * P               4      0.01027      0.00487     -0.00024 *
 * P               5      0.01302     -0.00164     -0.00017 *
 * P               6      0.02079      0.00450      0.00031 *
 * P               7      0.00633     -0.00617     -0.00014 *
 * P               8      0.01448     -0.00530     -0.00013 *
 * P               9      0.00010      0.06090      0.00044 *
 * P              10     -0.00358     -0.05473     -0.00014 *
 * P              11      0.10599     -0.46085     -0.00054 *
 * P              12      0.10515      0.46594      0.00077 *
 * In              1     -0.00857     -0.00055      0.00037 *
 * In              2     -0.00312      0.00322      0.00086 *
 * In              3     -0.01339      0.00025     -0.00035 *
 * In              4     -0.00608     -0.00056      0.00068 *
 * In              5     -0.00772     -0.00051     -0.00005 *
 * In              6     -0.03355     -0.04440     -0.00048 *
 * In              7     -0.00967     -0.00012     -0.00045 *
 * In              8     -0.08024     -0.08950      0.00049 *
 * In              9     -0.00546     -0.00401     -0.00099 *
 * In             10     -0.03481      0.04332      0.00029 *
 * In             11     -0.08090      0.08874     -0.00070 *
 * In             12     -0.01786     -0.00077      0.00041 *
 *                                                          *
 ************************************************************

 ******************************** Constrained Forces ********************************
 *                                                                                  *
 *                           Cartesian components (eV/A)                            *
 * -------------------------------------------------------------------------------- *
 *                         x                    y                    z              *
 *                                                                                  *
 * P               1      0.00000(cons'd)      0.00000(cons'd)     -0.00012         *
 * P               2      0.00000(cons'd)     -0.00000(cons'd)     -0.00021         *
 * P               3      0.00000(cons'd)      0.00000(cons'd)      0.00008         *
 * P               4      0.00000(cons'd)     -0.00000(cons'd)     -0.00024         *
 * P               5      0.00000(cons'd)      0.00000(cons'd)     -0.00017         *
 * P               6      0.00000(cons'd)     -0.00000(cons'd)      0.00031         *
 * P               7     -0.00000(cons'd)      0.00000(cons'd)     -0.00014         *
 * P               8     -0.00000(cons'd)      0.00000(cons'd)     -0.00013         *
 * P               9     -0.00000(cons'd)      0.00000(cons'd)      0.00044         *
 * P              10      0.00000(cons'd)      0.00000(cons'd)     -0.00014         *
 * P              11     -0.00000(cons'd)      0.00000(cons'd)     -0.00054         *
 * P              12      0.00000(cons'd)     -0.00000(cons'd)      0.00077         *
 * In              1      0.00000(cons'd)      0.00000(cons'd)      0.00037         *
 * In              2      0.00000(cons'd)      0.00000(cons'd)      0.00086         *
 * In              3      0.00000(cons'd)      0.00000(cons'd)     -0.00035         *
 * In              4     -0.00000(cons'd)      0.00000(cons'd)      0.00068         *
 * In              5      0.00000(cons'd)      0.00000(cons'd)     -0.00005         *
 * In              6      0.00000(cons'd)     -0.00000(cons'd)     -0.00048         *
 * In              7      0.00000(cons'd)      0.00000(cons'd)     -0.00045         *
 * In              8     -0.00000(cons'd)      0.00000(cons'd)      0.00049         *
 * In              9     -0.00000(cons'd)      0.00000(cons'd)     -0.00099         *
 * In             10      0.00000(cons'd)      0.00000(cons'd)      0.00029         *
 * In             11      0.00000(cons'd)      0.00000(cons'd)     -0.00070         *
 * In             12      0.00000(cons'd)      0.00000(cons'd)      0.00041         *
 *                                                                                  *
 ************************************************************************************

 Pseudo atomic calculation performed for P 3s2 3p3

 Converged in 23 iterations to a total energy of -208.0292 eV

 Pseudo atomic calculation performed for In 4d10 5s2 5p1

 Converged in 42 iterations to a total energy of -1747.4501 eV
Charge spilling parameter for spin component 1 = 0.15%

            Orbital Populations       
     Ion    Atom   Orbital             Charge
  -------------------------------------------
      P     1      S                    1.736
      P     1      Px                   1.314
      P     1      Py                   1.313
      P     1      Pz                   1.313
      P     2      S                    1.735
      P     2      Px                   1.314
      P     2      Py                   1.313
      P     2      Pz                   1.313
      P     3      S                    1.736
      P     3      Px                   1.314
      P     3      Py                   1.313
      P     3      Pz                   1.313
      P     4      S                    1.735
      P     4      Px                   1.314
      P     4      Py                   1.313
      P     4      Pz                   1.313
      P     5      S                    1.735
      P     5      Px                   1.314
      P     5      Py                   1.313
      P     5      Pz                   1.313
      P     6      S                    1.736
      P     6      Px                   1.313
      P     6      Py                   1.313
      P     6      Pz                   1.313
      P     7      S                    1.735
      P     7      Px                   1.314
      P     7      Py                   1.313
      P     7      Pz                   1.313
      P     8      S                    1.736
      P     8      Px                   1.313
      P     8      Py                   1.313
      P     8      Pz                   1.313
      P     9      S                    1.736
      P     9      Px                   1.313
      P     9      Py                   1.313
      P     9      Pz                   1.312
      P    10      S                    1.735
      P    10      Px                   1.313
      P    10      Py                   1.313
      P    10      Pz                   1.312
      P    11      S                    1.739
      P    11      Px                   1.311
      P    11      Py                   1.302
      P    11      Pz                   1.316
      P    12      S                    1.739
      P    12      Px                   1.311
      P    12      Py                   1.302
      P    12      Pz                   1.316
     In     1      Dzz                  1.998
     In     1      Dzy                  1.999
     In     1      Dzx                  1.997
     In     1      Dxx-yy               1.999
     In     1      Dxy                  1.997
     In     1      S                    1.430
     In     1      Px                   0.482
     In     1      Py                   0.481
     In     1      Pz                   0.481
     In     1      S                   -0.537
     In     2      Dzz                  1.998
     In     2      Dzy                  1.999
     In     2      Dzx                  1.997
     In     2      Dxx-yy               1.999
     In     2      Dxy                  1.997
     In     2      S                    1.432
     In     2      Px                   0.482
     In     2      Py                   0.481
     In     2      Pz                   0.481
     In     2      S                   -0.540
     In     3      Dzz                  1.998
     In     3      Dzy                  1.999
     In     3      Dzx                  1.997
     In     3      Dxx-yy               1.999
     In     3      Dxy                  1.997
     In     3      S                    1.431
     In     3      Px                   0.482
     In     3      Py                   0.481
     In     3      Pz                   0.481
     In     3      S                   -0.537
     In     4      Dzz                  1.998
     In     4      Dzy                  1.999
     In     4      Dzx                  1.997
     In     4      Dxx-yy               1.999
     In     4      Dxy                  1.997
     In     4      S                    1.430
     In     4      Px                   0.482
     In     4      Py                   0.481
     In     4      Pz                   0.481
     In     4      S                   -0.537
     In     5      Dzz                  1.998
     In     5      Dzy                  1.999
     In     5      Dzx                  1.997
     In     5      Dxx-yy               1.999
     In     5      Dxy                  1.997
     In     5      S                    1.430
     In     5      Px                   0.482
     In     5      Py                   0.481
     In     5      Pz                   0.481
     In     5      S                   -0.537
     In     6      Dzz                  1.998
     In     6      Dzy                  1.999
     In     6      Dzx                  1.997
     In     6      Dxx-yy               1.999
     In     6      Dxy                  1.997
     In     6      S                    1.431
     In     6      Px                   0.482
     In     6      Py                   0.480
     In     6      Pz                   0.482
     In     6      S                   -0.537
     In     7      Dzz                  1.998
     In     7      Dzy                  1.999
     In     7      Dzx                  1.997
     In     7      Dxx-yy               1.999
     In     7      Dxy                  1.997
     In     7      S                    1.430
     In     7      Px                   0.482
     In     7      Py                   0.481
     In     7      Pz                   0.481
     In     7      S                   -0.537
     In     8      Dzz                  1.998
     In     8      Dzy                  1.999
     In     8      Dzx                  1.997
     In     8      Dxx-yy               1.999
     In     8      Dxy                  1.997
     In     8      S                    1.424
     In     8      Px                   0.480
     In     8      Py                   0.484
     In     8      Pz                   0.475
     In     8      S                   -0.525
     In     9      Dzz                  1.998
     In     9      Dzy                  1.999
     In     9      Dzx                  1.997
     In     9      Dxx-yy               1.999
     In     9      Dxy                  1.997
     In     9      S                    1.432
     In     9      Px                   0.482
     In     9      Py                   0.481
     In     9      Pz                   0.481
     In     9      S                   -0.539
     In    10      Dzz                  1.998
     In    10      Dzy                  1.999
     In    10      Dzx                  1.997
     In    10      Dxx-yy               1.999
     In    10      Dxy                  1.997
     In    10      S                    1.431
     In    10      Px                   0.482
     In    10      Py                   0.480
     In    10      Pz                   0.482
     In    10      S                   -0.537
     In    11      Dzz                  1.998
     In    11      Dzy                  1.999
     In    11      Dzx                  1.997
     In    11      Dxx-yy               1.999
     In    11      Dxy                  1.997
     In    11      S                    1.424
     In    11      Px                   0.480
     In    11      Py                   0.484
     In    11      Pz                   0.475
     In    11      S                   -0.525
     In    12      Dzz                  1.998
     In    12      Dzy                  1.999
     In    12      Dzx                  1.997
     In    12      Dxx-yy               1.999
     In    12      Dxy                  1.997
     In    12      S                    1.430
     In    12      Px                   0.482
     In    12      Py                   0.481
     In    12      Pz                   0.481
     In    12      S                   -0.537
  -------------------------------------------
                           Total:     216.000
  -------------------------------------------

     Atomic Populations (Mulliken)
     -----------------------------
Species          Ion     s       p       d       f      Total   Charge (e)
==========================================================================
  P               1     1.736   3.939   0.000   0.000   5.675    -0.675
  P               2     1.735   3.940   0.000   0.000   5.675    -0.675
  P               3     1.736   3.940   0.000   0.000   5.675    -0.675
  P               4     1.735   3.940   0.000   0.000   5.675    -0.675
  P               5     1.735   3.940   0.000   0.000   5.675    -0.675
  P               6     1.736   3.939   0.000   0.000   5.674    -0.674
  P               7     1.735   3.940   0.000   0.000   5.675    -0.675
  P               8     1.736   3.939   0.000   0.000   5.674    -0.674
  P               9     1.736   3.939   0.000   0.000   5.674    -0.674
  P              10     1.735   3.939   0.000   0.000   5.674    -0.674
  P              11     1.739   3.928   0.000   0.000   5.667    -0.667
  P              12     1.739   3.928   0.000   0.000   5.667    -0.667
  In              1     0.893   1.444   9.989   0.000  12.326     0.674
  In              2     0.892   1.444   9.989   0.000  12.325     0.675
  In              3     0.893   1.444   9.989   0.000  12.327     0.673
  In              4     0.893   1.444   9.989   0.000  12.326     0.674
  In              5     0.893   1.444   9.989   0.000  12.326     0.674
  In              6     0.894   1.444   9.989   0.000  12.327     0.673
  In              7     0.893   1.444   9.989   0.000  12.326     0.674
  In              8     0.899   1.439   9.989   0.000  12.328     0.672
  In              9     0.892   1.444   9.989   0.000  12.325     0.675
  In             10     0.894   1.444   9.989   0.000  12.327     0.673
  In             11     0.899   1.439   9.989   0.000  12.328     0.672
  In             12     0.894   1.444   9.989   0.000  12.327     0.673
==========================================================================

                 Bond                   Population      Length (A)
======================================================================
              P 1  -- In 7                   1.25        2.55533
              P 4  -- In 5                   1.25        2.55533
              P 2  -- In 1                   1.25        2.55533
              P 5  -- In 4                   1.25        2.55533
              P 3  -- In 12                  1.24        2.55533
              P 7  -- In 3                   1.24        2.55533
              P 8  -- In 2                   1.24        2.55533
              P 6  -- In 9                   1.24        2.55533
              P 9  -- In 10                  1.23        2.55533
              P 10 -- In 6                   1.23        2.55533
              P 11 -- In 8                   1.25        2.55535
              P 12 -- In 11                  1.25        2.55536
              P 7  -- In 2                   0.54        2.55692
              P 10 -- In 8                   0.55        2.55697
              P 4  -- In 4                   0.54        2.55702
              P 9  -- In 11                  0.55        2.55702
              P 5  -- In 5                   0.54        2.55715
              P 7  -- In 4                   0.54        2.55719
              P 2  -- In 5                   0.54        2.55727
              P 4  -- In 1                   0.54        2.55737
              P 1  -- In 1                   0.54        2.55740
              P 3  -- In 9                   0.54        2.55741
              P 2  -- In 7                   0.54        2.55762
              P 8  -- In 3                   0.54        2.55777
              P 10 -- In 2                   0.54        2.55787
              P 3  -- In 7                   0.54        2.55795
              P 5  -- In 3                   0.54        2.55798
              P 9  -- In 9                   0.54        2.55844
              P 6  -- In 12                  0.54        2.55867
              P 1  -- In 12                  0.54        2.55881
              P 8  -- In 6                   0.53        2.56017
              P 6  -- In 10                  0.53        2.56039
              P 11 -- In 6                   0.54        2.56170
              P 12 -- In 10                  0.54        2.56208
              P 12 -- In 8                   0.51        2.57669
              P 11 -- In 11                  0.51        2.57691
======================================================================

 Hirshfeld supercell size:           3           4           1
Standard grid dimensions: 180 180 250
Fine grid dimensions:     180 180 250


     Hirshfeld Analysis
     ------------------
Species   Ion     Hirshfeld Charge (e)
======================================
  P        1                -0.24
  P        2                -0.24
  P        3                -0.24
  P        4                -0.24
  P        5                -0.24
  P        6                -0.24
  P        7                -0.24
  P        8                -0.24
  P        9                -0.24
  P       10                -0.24
  P       11                -0.24
  P       12                -0.24
  In       1                 0.24
  In       2                 0.24
  In       3                 0.24
  In       4                 0.24
  In       5                 0.24
  In       6                 0.24
  In       7                 0.24
  In       8                 0.24
  In       9                 0.24
  In      10                 0.24
  In      11                 0.24
  In      12                 0.24
======================================

 
 A BibTeX formatted list of references used in this run has been written to 
 StackingFaultStructs_110_1-10_7.bib
 
Initialisation time =     21.86 s
Calculation time    =   2662.07 s
Finalisation time   =     45.45 s
Total time          =   2729.38 s
Peak Memory Use     = 8988624 kB
 
Overall parallel efficiency rating: Very good (84%)
 
Data was distributed by:-
k-point (64-way); efficiency rating: Very good (85%)
