 +-------------------------------------------------+
 |                                                 |
 |      CCC   AA    SSS  TTTTT  EEEEE  PPPP        |
 |     C     A  A  S       T    E      P   P       |
 |     C     AAAA   SS     T    EEE    PPPP        |
 |     C     A  A     S    T    E      P           |
 |      CCC  A  A  SSS     T    EEEEE  P           |
 |                                                 |
 +-------------------------------------------------+
 |                                                 |
 | Welcome to Academic Release CASTEP version 24.1 |
 | Ab Initio Total Energy Program                  |
 |                                                 |
 | Authors:                                        |
 | M. Segall, M. Probert, C. Pickard, P. Hasnip,   |
 | S. Clark, K. Refson, J. R. Yates,               |
 | A. Bartok-Partay, M. Payne                      |
 |                                                 |
 | Contributors:                                   |
 | P. Lindan, P. Haynes, J. White, V. Milman,      |
 | N. Govind, M. Gibson, P. Tulip, V. Cocula,      |
 | B. Montanari, D. Quigley, M. Glover,            |
 | L. Bernasconi, A. Perlov, M. Plummer,           |
 | E. McNellis, J. Meyer, J. Gale, D. Jochym       |
 | J. Aarons, B. Walker, R. Gillen, D. Jones       |
 | T. Green, I. J. Bush, C. J. Armstrong,          |
 | E. J. Higgins, E. L. Brown, M. S. McFly,        |
 | J. Wilkins, B-C. Shih, P. J. P. Byrne,          |
 | R. J. Maurer, J. C. Womack, J. Dziedzic,        |
 | L. LeBlanc, T. K. Stenczel, J. Kermode,         |
 | S. Sturniolo, B. Shi, B. Durham, M. Evans,      |
 | M. J. Smith, A. Tamerus, Z. Hawkhead,           |
 | V. Ravindran, T. Hollins, S. A. Joyce,          |
 | R. T. Strong, A. M. Reilly, S. J. Donaldson     |
 |                                                 |
 | Copyright (c) 2000 - 2023                       |
 |                                                 |
 |     Distributed under license from Cambridge    |
 |     Enterprise for academic use only.           |
 |                                                 |
 | Please cite                                     |
 |                                                 |
 |     "First principles methods using CASTEP"     |
 |                                                 |
 |         Zeitschrift fuer Kristallographie       |
 |           220(5-6) pp. 567-570 (2005)           |
 |                                                 |
 | S. J. Clark, M. D. Segall, C. J. Pickard,       |
 | P. J. Hasnip, M. J. Probert, K. Refson,         |
 | M. C. Payne                                     |
 |                                                 |
 |       in all publications arising from          |
 |              your use of CASTEP                 |
 |                                                 |
 +-------------------------------------------------+
 |                                                 |
 |              http://www.castep.org              |
 |                                                 |
 +-------------------------------------------------+



 Compiled for  GNU 11.2.0 on 04-04-2024 18:39:17
 from code version 6355fd106 Castep241_branch Thu Mar 7 17:56:19 2024 +0000
 Compiler: GNU Fortran 11.2.0; Optimisation: FAST
 Comms   : MPI VERSION : CRAY MPICH version 8.1.23.14 (ANL base 3.4a2)
 MATHLIBS: default (LAPACK version 3.10.1)
 FFT Lib : fftw3 version commercial-fftw-3.3.10-sse2-avx-avx2-avx2_128
 Fundamental constants values: CODATA 2018

 Run started: Wed, 02 Apr 2025 13:29:37 +0100

 Atomic calculation performed for P: 1s2 2s2 2p6 3s2 3p3

 Converged in 47 iterations to an ae energy of -9309.074 eV

   ============================================================                
   | Pseudopotential Report - Date of generation  2-04-2025   |                
   ------------------------------------------------------------                
   | Element: P Ionic charge:  5.00 Level of theory: RSCAN    |                
   | Atomic Solver: Koelling-Harmon                           |                
   |                                                          |                
   |               Reference Electronic Structure             |                
   |         Orbital         Occupation         Energy        |                
   |            3s              2.000           -0.535        |                
   |            3p              3.000           -0.209        |                
   |                                                          |                
   |                 Pseudopotential Definition               |                
   |        Beta     l      e      Rc     scheme   norm       |                
   |          1      0   -0.535   1.807     qc      0         |                
   |          2      0    0.250   1.807     qc      0         |                
   |          3      1   -0.209   1.807     qc      0         |                
   |          4      1    0.250   1.807     qc      0         |                
   |          5      2    0.000   1.807     qc      0         |                
   |          6      2    0.250   1.807     qc      0         |                
   |         loc     3    0.000   1.807     pn      0         |                
   |                                                          |                
   | Augmentation charge Rinner = 1.263                       |                
   | Partial core correction Rc = 1.263                       |                
   ------------------------------------------------------------                
   | "3|1.8|4|4|5|30:31:32"                                   |                
   ------------------------------------------------------------                
   |      Author: Chris J. Pickard, Cambridge University      |                
   ============================================================                
 Warning: otfg_output_psp cannot write out meta-GGA pseudopotentials presently.

 Atomic calculation performed for In:
 1s2 2s2 2p6 3s2 3p6 3d10 4s2 4p6 4d10 5s2 5p1

 Converged in 84 iterations to an ae energy of -160093.328 eV

   ============================================================                
   | Pseudopotential Report - Date of generation  2-04-2025   |                
   ------------------------------------------------------------                
   | Element: In Ionic charge: 13.00 Level of theory: RSCAN   |                
   | Atomic Solver: Koelling-Harmon                           |                
   |                                                          |                
   |               Reference Electronic Structure             |                
   |         Orbital         Occupation         Energy        |                
   |            4d             10.000           -0.711        |                
   |            5s              2.000           -0.313        |                
   |            5p              1.000           -0.095        |                
   |                                                          |                
   |                 Pseudopotential Definition               |                
   |        Beta     l      e      Rc     scheme   norm       |                
   |          1      0   -0.313   2.501     qc      0         |                
   |          2      0    0.250   2.501     qc      0         |                
   |          3      1   -0.095   2.501     qc      0         |                
   |          4      1    0.250   2.501     qc      0         |                
   |          5      2   -0.711   2.207     qc      0         |                
   |          6      2    0.250   2.207     qc      0         |                
   |         loc     3    0.000   2.501     pn      0         |                
   |                                                          |                
   | Augmentation charge Rinner = 1.504                       |                
   | Partial core correction Rc = 1.504                       |                
   ------------------------------------------------------------                
   | "3|2.5|2.5|1.5|7|8|9|50:51:42U2.2U2.2"                   |                
   ------------------------------------------------------------                
   |      Author: Chris J. Pickard, Cambridge University      |                
   ============================================================                
 Warning: otfg_output_psp cannot write out meta-GGA pseudopotentials presently.

 Pseudo atomic calculation performed for P 3s2 3p3

 Converged in 23 iterations to a total energy of -208.0292 eV

 Pseudo atomic calculation performed for In 4d10 5s2 5p1

 Converged in 42 iterations to a total energy of -1747.4501 eV
 Calculation parallelised over 108 processes.
 Data is distributed by G-vector(3-way) and k-point(36-way)
 Each process may use up to 16 threads.

 ************************************ Title ************************************
 

 ***************************** General Parameters ******************************
  
 output verbosity                               : normal  (1)
 write checkpoint data to                       : P_Interstitial_Dumbbell_plus.check
 type of calculation                            : geometry optimization
 stress calculation                             : off
 density difference calculation                 : off
 electron localisation func (ELF) calculation   : off
 Hirshfeld analysis                             : on
 polarisation (Berry phase) analysis            : off
 molecular orbital projected DOS                : off
 deltaSCF calculation                           : off
 unlimited duration calculation
 timing information                             : on
 memory usage estimate                          : on
 write extra output files                       : on
 write final potential to formatted file        : off
 write final density to formatted file          : off
 write BibTeX reference list                    : on
 write OTFG pseudopotential files               : on
 write electrostatic potential file             : on
 write bands file                               : on
 checkpoint writing                             : off
  
 output         length unit                     : A
 output           mass unit                     : amu
 output           time unit                     : ps
 output         charge unit                     : e
 output           spin unit                     : hbar/2
 output         energy unit                     : eV
 output          force unit                     : eV/A
 output       velocity unit                     : A/ps
 output       pressure unit                     : GPa
 output     inv_length unit                     : 1/A
 output      frequency unit                     : cm-1
 output force constant unit                     : eV/A**2
 output         volume unit                     : A**3
 output   IR intensity unit                     : (D/A)**2/amu
 output         dipole unit                     : D
 output         efield unit                     : eV/A/e
 output        entropy unit                     : J/mol/K
 output    efield chi2 unit                     : pm/V
  
 wavefunctions paging                           : none
 random number generator seed                   :  132937891
 data distribution                              : optimal for this architecture
 optimization strategy                          : balance speed and memory

 *********************** Exchange-Correlation Parameters ***********************
  
 using functional                               : RSCAN
 relativistic treatment                         : Koelling-Harmon
 DFT+D: Semi-empirical dispersion correction    : off

 ************************* Pseudopotential Parameters **************************
  
 pseudopotential representation                 : reciprocal space
 <beta|phi> representation                      : reciprocal space
 spin-orbit coupling                            : off

 **************************** Basis Set Parameters *****************************
  
 plane wave basis set cut-off                   :   900.0000   eV
 size of standard grid                          :     2.0000
 size of   fine   gmax                          :    30.7390   1/A
 finite basis set correction                    : none

 **************************** Electronic Parameters ****************************
  
 number of  electrons                           :  581.0    
 net charge of system                           :  0.000    
 net spin   of system                           :  1.000    
 number of  up  spins                           :  291.0    
 number of down spins                           :  290.0    
 treating system as spin-polarized
 number of bands                                :        349

 ********************* Electronic Minimization Parameters **********************
  
 Method: Treating system as metallic with density mixing treatment of electrons,
         and number of  SD  steps               :          1
         and number of  CG  steps               :          4
  
 total energy / atom convergence tol.           : 0.1000E-07   eV
 eigen-energy convergence tolerance             : 0.2234E-08   eV
 max force / atom convergence tol.              : ignored
 convergence tolerance window                   :          3   cycles
 max. number of SCF cycles                      :         50
 number of fixed-spin iterations                :         10
 smearing scheme                                : Gaussian
 smearing width                                 : 0.2000       eV
 Fermi energy convergence tolerance             : 0.2721E-13   eV
 periodic dipole correction                     : NONE

 ************************** Density Mixing Parameters **************************
  
 density-mixing scheme                          : Pulay
 max. length of mixing history                  :         15
 charge density mixing amplitude                : 0.5000    
   spin density mixing amplitude                :  2.000    
 cut-off energy for mixing                      :  900.0       eV

 *********************** Population Analysis Parameters ************************
  
 Population analysis with cutoff                :  3.000       A
 Population analysis output                     : summary and pdos components

 ********************** Geometry Optimization Parameters ***********************
  
 optimization method                            : LBFGS
 max. no. of LBFGS updates                      : unbounded
 preconditioned LBFGS is activated
 preconditioner type                            : EXP
     stabilization constant                     :     0.1000
     parameter A                                :     3.0000
     nearest neighbor distance                  : automatic
     cut-off distance                           : automatic
     parameter mu                               : automatic
 variable cell method                           : fixed basis quality
 max. number of steps                           :         30
 estimated bulk modulus                         :  500.0       GPa
 estimated <frequency>                          :  1668.       cm-1
 geom line minimiser                            : on
 with line minimiser tolerance                  :     0.4000
  with spin fully able to relax for all steps
 total energy convergence tolerance             : 0.2000E-04   eV/atom
        max ionic |force| tolerance             : 0.1000E-02   eV/A
 max ionic |displacement| tolerance             : 0.1000E-02   A
   max |stress component| tolerance             : 0.1000       GPa
 convergence tolerance window                   :          2   steps
 backup results every                           :          5   steps
 write geom trajectory file                     : on

 *******************************************************************************
  

                           -------------------------------
                                      Unit Cell
                           -------------------------------
        Real Lattice(A)                      Reciprocal Lattice(1/A)
    11.8016820    -0.0000080    -0.0000080        0.532397442   0.000000361   0.000000361
    -0.0000080    11.8016820    -0.0000080        0.000000361   0.532397442   0.000000361
    -0.0000080    -0.0000080    11.8016820        0.000000361   0.000000361   0.532397442

                       Lattice parameters(A)       Cell Angles
                    a =     11.801682          alpha =   90.000078
                    b =     11.801682          beta  =   90.000078
                    c =     11.801682          gamma =   90.000078

                       Current cell volume =          1643.734705       A**3
                                   density =             2.857097   AMU/A**3
                                           =             4.744322     g/cm^3

                           -------------------------------
                                     Cell Contents
                           -------------------------------
                         Total number of ions in cell =   65
                      Total number of species in cell =    2
                        Max number of any one species =   33

            xxxxxxxxxxxxxxxxxxxxxxxxxxxxxxxxxxxxxxxxxxxxxxxxxxxxxxxxxxxx
            x  Element    Atom        Fractional coordinates of atoms  x
            x            Number           u          v          w      x
            x----------------------------------------------------------x
            x  P            1         0.118542   0.117002   0.372855   x 
            x  P            2         0.334881   0.052848   0.052651   x 
            x  P            3         0.118542   0.373052   0.116805   x 
            x  P            4         0.378227   0.374893   0.374696   x 
            x  P            5         0.118541   0.116995   0.860747   x 
            x  P            6         0.373942   0.116999   0.616802   x 
            x  P            7         0.123989   0.366662   0.615752   x 
            x  P            8         0.373792   0.366385   0.867415   x 
            x  P            9         0.123989   0.615949   0.366465   x 
            x  P           10         0.373942   0.616999   0.116802   x 
            x  P           11         0.118541   0.860944   0.116798   x 
            x  P           12         0.373792   0.867612   0.366188   x 
            x  P           13         0.123988   0.618048   0.867138   x 
            x  P           14         0.369322   0.616999   0.616802   x 
            x  P           15         0.123988   0.867335   0.617851   x 
            x  P           16         0.378226   0.859106   0.858909   x 
            x  P           17         0.628933   0.114596   0.369709   x 
            x  P           18         0.877338   0.116999   0.116802   x 
            x  P           19         0.628933   0.369906   0.114399   x 
            x  P           20         0.874075   0.367582   0.367385   x 
            x  P           21         0.628933   0.119401   0.863895   x 
            x  P           22         0.870743   0.116999   0.616802   x 
            x  P           23         0.623937   0.367805   0.617809   x 
            x  P           24         0.875076   0.367872   0.865929   x 
            x  P           25         0.623937   0.618006   0.367608   x 
            x  P           26         0.870743   0.616999   0.116802   x 
            x  P           27         0.628933   0.864092   0.119204   x 
            x  P           28         0.875076   0.866126   0.367675   x 
            x  P           29         0.623937   0.615992   0.865995   x 
            x  P           30         0.873791   0.616999   0.616802   x 
            x  P           31         0.623937   0.866192   0.615795   x 
            x  P           32         0.874074   0.866415   0.866218   x 
            x  P           33         0.334881   0.181154   0.180957   x 
            x  In           1         0.000448  -0.009142  -0.009339   x 
            x  In           2         0.235987  -0.015540   0.249339   x 
            x  In           3         0.000448   0.243139   0.242942   x 
            x  In           4         0.235987   0.249536  -0.015737   x 
            x  In           5        -0.004066  -0.008709   0.496054   x 
            x  In           6         0.251122  -0.009383   0.743316   x 
            x  In           7        -0.004066   0.242707   0.737550   x 
            x  In           8         0.251122   0.243381   0.490286   x 
            x  In           9        -0.004066   0.496251  -0.008905   x 
            x  In          10         0.251122   0.490483   0.243184   x 
            x  In          11        -0.004066   0.737747   0.242510   x 
            x  In          12         0.251122   0.743513  -0.009580   x 
            x  In          13        -0.000631   0.492439   0.492242   x 
            x  In          14         0.247178   0.490863   0.742937   x 
            x  In          15        -0.000632   0.741559   0.741362   x 
            x  In          16         0.247178   0.743134   0.490666   x 
            x  In          17         0.516075  -0.021272  -0.021469   x 
            x  In          18         0.753422  -0.007689   0.241490   x 
            x  In          19         0.516077   0.255272   0.255075   x 
            x  In          20         0.753422   0.241687  -0.007886   x 
            x  In          21         0.498305  -0.007982   0.492249   x 
            x  In          22         0.749696  -0.009783   0.740672   x 
            x  In          23         0.498305   0.241980   0.741355   x 
            x  In          24         0.749696   0.243781   0.492932   x 
            x  In          25         0.498305   0.492446  -0.008179   x 
            x  In          26         0.749696   0.493129   0.243584   x 
            x  In          27         0.498305   0.741551   0.241783   x 
            x  In          28         0.749696   0.740868  -0.009980   x 
            x  In          29         0.500023   0.497852   0.497655   x 
            x  In          30         0.749421   0.491606   0.742196   x 
            x  In          31         0.500022   0.736148   0.735951   x 
            x  In          32         0.749421   0.742393   0.491409   x 
            xxxxxxxxxxxxxxxxxxxxxxxxxxxxxxxxxxxxxxxxxxxxxxxxxxxxxxxxxxxx


                         No user defined ionic velocities

                           -------------------------------
                                   Details of Species
                           -------------------------------

                               Mass of species in AMU
                                    P   30.9737600
                                    In  114.8180000

                          Electric Quadrupole Moment (Barn)
                                    P    1.0000000 No Isotope Defined
                                    In    0.7700000 Isotope115

                          Files used for pseudopotentials:
                                    P 3|1.8|4|4|5|30:31:32
                                    In 3|2.5|2.5|1.5|7|8|9|50:51:42U2.2U2.2

                           -------------------------------
                              k-Points For BZ Sampling
                           -------------------------------
                       MP grid size for SCF calculation is  4  4  4
                            with an offset of   0.125  0.125  0.125
                       Number of kpoints used =            36

                           -------------------------------
                               Symmetry and Constraints
                           -------------------------------

                      Maximum deviation from symmetry =  0.00000         ANG

                      Number of symmetry operations   =           1
                      Number of ionic constraints     =           3
                      Point group of crystal =     1: C1, 1, 1
                      Space group of crystal =    35: Cmm2, C 2 -2

             Set iprint > 1 for details on symmetry rotations/translations

                         Centre of mass is constrained
             Set iprint > 1 for details of linear ionic constraints

                         Number of cell constraints= 6
                         Cell constraints are:  0 0 0 0 0 0

                         External pressure/stress (GPa)
                          0.00000   0.00000   0.00000
                                    0.00000   0.00000
                                              0.00000
 
+---------------- MEMORY AND SCRATCH DISK ESTIMATES PER PROCESS --------------+
|                                                     Memory          Disk    |
| Baseline code, static data and system overhead      368.0 MB         0.0 MB |
| BLAS internal memory storage                          0.0 MB         0.0 MB |
| Model and support data                             4327.0 MB         0.0 MB |
| Electronic energy minimisation requirements        1326.9 MB         0.0 MB |
| Force calculation requirements                      127.4 MB         0.0 MB |
|                                               ----------------------------- |
| Approx. total storage required per process         6021.9 MB         0.0 MB |
|                                                                             |
| Requirements will fluctuate during execution and may exceed these estimates |
+-----------------------------------------------------------------------------+
Calculating approximate eigenstates for fixed initial Hamiltonian
Cut-off for approx. calculation is   89.988 eV
Improving approx. states at cut-off of  450.000 eV
Resetting cut-off to  900.000 eV
Calculating total energy with cut-off of  900.000 eV.
------------------------------------------------------------------------ <-- SCF
SCF loop      Energy           Fermi           Energy gain       Timer   <-- SCF
                               energy          per atom          (sec)   <-- SCF
------------------------------------------------------------------------ <-- SCF
Initial  -6.32548005E+004  0.00000000E+000                       454.63  <-- SCF
      1  -6.30179572E+004  2.91004100E+000  -3.64374250E+000     916.25  <-- SCF
      2  -6.30182482E+004  2.90952603E+000   4.47611403E-003    1236.02  <-- SCF
      3  -6.30841855E+004  3.18990892E+000   1.01442013E+000    1595.49  <-- SCF
      4  -6.30957999E+004  3.27384468E+000   1.78684078E-001    2094.24  <-- SCF
      5  -6.31016506E+004  3.44242820E+000   9.00099103E-002    2440.04  <-- SCF
      6  -6.30902977E+004  3.62966888E+000  -1.74658911E-001    2778.93  <-- SCF
      7  -6.30889647E+004  3.67716605E+000  -2.05077948E-002    3148.83  <-- SCF
      8  -6.30891129E+004  3.71695210E+000   2.27914444E-003    3513.82  <-- SCF
      9  -6.30899371E+004  3.74212003E+000   1.26804850E-002    3874.30  <-- SCF
     10  -6.30902119E+004  3.71903686E+000   4.22707638E-003    4235.57  <-- SCF
     11  -6.30902172E+004  3.71211486E+000   8.19825167E-005    4604.91  <-- SCF
     12  -6.30902195E+004  3.70597332E+000   3.45896213E-005    4966.08  <-- SCF
     13  -6.30902205E+004  3.70547422E+000   1.61369471E-005    5321.22  <-- SCF
     14  -6.30902207E+004  3.70452753E+000   3.60937692E-006    5676.31  <-- SCF
     15  -6.30902208E+004  3.70379319E+000   9.45166039E-007    6052.22  <-- SCF
     16  -6.30902208E+004  3.70372312E+000   2.65910886E-007    6367.10  <-- SCF
     17  -6.30902208E+004  3.70357212E+000   7.76365849E-008    6659.26  <-- SCF
     18  -6.30902208E+004  3.70361781E+000   2.52068417E-008    6912.77  <-- SCF
     19  -6.30902208E+004  3.70365803E+000   8.70123109E-009    7164.98  <-- SCF
     20  -6.30902208E+004  3.70365993E+000   2.58261281E-009    7428.81  <-- SCF
     21  -6.30902208E+004  3.70366311E+000   7.00956830E-010    7688.71  <-- SCF
------------------------------------------------------------------------ <-- SCF
 
Integrated Spin Density     =    0.992871     hbar/2
Integrated |Spin Density|   =     1.21832     hbar/2
 
Final energy, E             =  -63090.21632766     eV
Final free energy (E-TS)    =  -63090.22082087     eV
(energies not corrected for finite basis set)
 
NB est. 0K energy (E-0.5TS)      =  -63090.21857426     eV
 
 
+---------------- MEMORY AND SCRATCH DISK ESTIMATES PER PROCESS --------------+
|                                                     Memory          Disk    |
| Model and support data                             2768.5 MB         0.0 MB |
| Electronic energy minimisation requirements        1326.9 MB         0.0 MB |
| Geometry minimisation requirements                 1707.4 MB         0.0 MB |
|                                               ----------------------------- |
| Approx. total storage required per process         5802.8 MB         0.0 MB |
|                                                                             |
| Requirements will fluctuate during execution and may exceed these estimates |
+-----------------------------------------------------------------------------+
 

 ************************************** Forces **************************************
 *                                                                                  *
 *                           Cartesian components (eV/A)                            *
 * -------------------------------------------------------------------------------- *
 *                         x                    y                    z              *
 *                                                                                  *
 * P               1      0.01843             -0.00890              0.00905         *
 * P               2      0.00395              0.03065              0.03074         *
 * P               3      0.01825              0.00890             -0.00940         *
 * P               4     -0.01478             -0.01994             -0.02060         *
 * P               5      0.01855              0.01061             -0.00947         *
 * P               6     -0.02848              0.00066              0.00032         *
 * P               7     -0.00088             -0.01608              0.01467         *
 * P               8      0.03395             -0.00769              0.00855         *
 * P               9     -0.00087              0.01489             -0.01644         *
 * P              10     -0.02848              0.00065              0.00032         *
 * P              11      0.01871             -0.00986              0.01011         *
 * P              12      0.03389              0.00879             -0.00805         *
 * P              13     -0.00113             -0.01421              0.01709         *
 * P              14      0.04484              0.00080              0.00021         *
 * P              15     -0.00112              0.01739             -0.01425         *
 * P              16     -0.01456              0.02165              0.02105         *
 * P              17      0.00373              0.01590             -0.00807         *
 * P              18      0.00348              0.00075              0.00021         *
 * P              19      0.00381             -0.00886              0.01604         *
 * P              20      0.01754              0.01279              0.01256         *
 * P              21      0.00382             -0.01715              0.00699         *
 * P              22      0.02592              0.00097              0.00042         *
 * P              23     -0.01850              0.01926              0.01342         *
 * P              24      0.01290              0.00340             -0.00305         *
 * P              25     -0.01851              0.01347              0.01911         *
 * P              26      0.02592              0.00102              0.00040         *
 * P              27      0.00373              0.00650             -0.01668         *
 * P              28      0.01282             -0.00270              0.00322         *
 * P              29     -0.01818             -0.01273             -0.01854         *
 * P              30     -0.00738              0.00068              0.00033         *
 * P              31     -0.01819             -0.01825             -0.01296         *
 * P              32      0.01775             -0.01167             -0.01201         *
 * P              33      0.00422             -0.03076             -0.03060         *
 * In              1     -0.04931              0.02105              0.02126         *
 * In              2     -0.06272              0.00041             -0.00093         *
 * In              3     -0.04932             -0.02173             -0.02151         *
 * In              4     -0.06272             -0.00110              0.00057         *
 * In              5     -0.02000              0.01820             -0.01408         *
 * In              6      0.00609              0.02078             -0.01847         *
 * In              7     -0.02000             -0.01889              0.01376         *
 * In              8      0.00609             -0.02147              0.01820         *
 * In              9     -0.02001             -0.01429              0.01838         *
 * In             10      0.00609              0.01802             -0.02126         *
 * In             11     -0.01999              0.01355             -0.01870         *
 * In             12      0.00609             -0.01866              0.02099         *
 * In             13     -0.00798              0.01029              0.01049         *
 * In             14     -0.02438              0.04076             -0.04125         *
 * In             15     -0.00797             -0.01098             -0.01079         *
 * In             16     -0.02438             -0.04145              0.04096         *
 * In             17      0.02584             -0.00175             -0.00156         *
 * In             18     -0.01599             -0.03047              0.03001         *
 * In             19      0.02585              0.00104              0.00123         *
 * In             20     -0.01601              0.02982             -0.03027         *
 * In             21      0.04358              0.05080             -0.00431         *
 * In             22     -0.01153              0.05337             -0.01037         *
 * In             23      0.04358             -0.05145              0.00403         *
 * In             24     -0.01150             -0.05406              0.01009         *
 * In             25      0.04358             -0.00450              0.05100         *
 * In             26     -0.01150              0.00989             -0.05385         *
 * In             27      0.04358              0.00384             -0.05126         *
 * In             28     -0.01153             -0.01056              0.05357         *
 * In             29     -0.00400             -0.02368             -0.02348         *
 * In             30      0.02464             -0.00244              0.00195         *
 * In             31     -0.00399              0.02297              0.02318         *
 * In             32      0.02465              0.00176             -0.00224         *
 *                                                                                  *
 ************************************************************************************
 EXP precond LBFGS => estimated nearest neighbor distance :  2.553       A
 EXP precond LBFGS => estimated cutoff distance :  5.107       A

 ************************************** Forces **************************************
 *                                                                                  *
 *                           Cartesian components (eV/A)                            *
 * -------------------------------------------------------------------------------- *
 *                         x                    y                    z              *
 *                                                                                  *
 * P               1      0.01843             -0.00890              0.00905         *
 * P               2      0.00395              0.03065              0.03074         *
 * P               3      0.01825              0.00890             -0.00940         *
 * P               4     -0.01478             -0.01994             -0.02060         *
 * P               5      0.01855              0.01061             -0.00947         *
 * P               6     -0.02848              0.00066              0.00032         *
 * P               7     -0.00088             -0.01608              0.01467         *
 * P               8      0.03395             -0.00769              0.00855         *
 * P               9     -0.00087              0.01489             -0.01644         *
 * P              10     -0.02848              0.00065              0.00032         *
 * P              11      0.01871             -0.00986              0.01011         *
 * P              12      0.03389              0.00879             -0.00805         *
 * P              13     -0.00113             -0.01421              0.01709         *
 * P              14      0.04484              0.00080              0.00021         *
 * P              15     -0.00112              0.01739             -0.01425         *
 * P              16     -0.01456              0.02165              0.02105         *
 * P              17      0.00373              0.01590             -0.00807         *
 * P              18      0.00348              0.00075              0.00021         *
 * P              19      0.00381             -0.00886              0.01604         *
 * P              20      0.01754              0.01279              0.01256         *
 * P              21      0.00382             -0.01715              0.00699         *
 * P              22      0.02592              0.00097              0.00042         *
 * P              23     -0.01850              0.01926              0.01342         *
 * P              24      0.01290              0.00340             -0.00305         *
 * P              25     -0.01851              0.01347              0.01911         *
 * P              26      0.02592              0.00102              0.00040         *
 * P              27      0.00373              0.00650             -0.01668         *
 * P              28      0.01282             -0.00270              0.00322         *
 * P              29     -0.01818             -0.01273             -0.01854         *
 * P              30     -0.00738              0.00068              0.00033         *
 * P              31     -0.01819             -0.01825             -0.01296         *
 * P              32      0.01775             -0.01167             -0.01201         *
 * P              33      0.00422             -0.03076             -0.03060         *
 * In              1     -0.04931              0.02105              0.02126         *
 * In              2     -0.06272              0.00041             -0.00093         *
 * In              3     -0.04932             -0.02173             -0.02151         *
 * In              4     -0.06272             -0.00110              0.00057         *
 * In              5     -0.02000              0.01820             -0.01408         *
 * In              6      0.00609              0.02078             -0.01847         *
 * In              7     -0.02000             -0.01889              0.01376         *
 * In              8      0.00609             -0.02147              0.01820         *
 * In              9     -0.02001             -0.01429              0.01838         *
 * In             10      0.00609              0.01802             -0.02126         *
 * In             11     -0.01999              0.01355             -0.01870         *
 * In             12      0.00609             -0.01866              0.02099         *
 * In             13     -0.00798              0.01029              0.01049         *
 * In             14     -0.02438              0.04076             -0.04125         *
 * In             15     -0.00797             -0.01098             -0.01079         *
 * In             16     -0.02438             -0.04145              0.04096         *
 * In             17      0.02584             -0.00175             -0.00156         *
 * In             18     -0.01599             -0.03047              0.03001         *
 * In             19      0.02585              0.00104              0.00123         *
 * In             20     -0.01601              0.02982             -0.03027         *
 * In             21      0.04358              0.05080             -0.00431         *
 * In             22     -0.01153              0.05337             -0.01037         *
 * In             23      0.04358             -0.05145              0.00403         *
 * In             24     -0.01150             -0.05406              0.01009         *
 * In             25      0.04358             -0.00450              0.05100         *
 * In             26     -0.01150              0.00989             -0.05385         *
 * In             27      0.04358              0.00384             -0.05126         *
 * In             28     -0.01153             -0.01056              0.05357         *
 * In             29     -0.00400             -0.02368             -0.02348         *
 * In             30      0.02464             -0.00244              0.00195         *
 * In             31     -0.00399              0.02297              0.02318         *
 * In             32      0.02465              0.00176             -0.00224         *
 *                                                                                  *
 ************************************************************************************
 doing test perturbation to get energy scale for EXP preconditioner

                           -------------------------------
                                     Cell Contents
                           -------------------------------

            xxxxxxxxxxxxxxxxxxxxxxxxxxxxxxxxxxxxxxxxxxxxxxxxxxxxxxxxxxxxxxxxx
            x  Element         Atom        Fractional coordinates of atoms  x
            x                 Number           u          v          w      x
            x---------------------------------------------------------------x
            x  P                 1         0.118798   0.117270   0.373692   x
            x  P                 2         0.335593   0.052970   0.052772   x
            x  P                 3         0.118798   0.373889   0.117073   x
            x  P                 4         0.379027   0.375734   0.375537   x
            x  P                 5         0.118797   0.117264   0.862464   x
            x  P                 6         0.374733   0.117267   0.618122   x
            x  P                 7         0.124257   0.367485   0.617070   x
            x  P                 8         0.374583   0.367208   0.869141   x
            x  P                 9         0.124257   0.617268   0.367288   x
            x  P                10         0.374733   0.618320   0.117070   x
            x  P                11         0.118797   0.862661   0.117066   x
            x  P                12         0.374583   0.869338   0.367010   x
            x  P                13         0.124256   0.619371   0.868863   x
            x  P                14         0.370103   0.618320   0.618123   x
            x  P                15         0.124256   0.869060   0.619174   x
            x  P                16         0.379026   0.860820   0.860622   x
            x  P                17         0.630207   0.114860   0.370539   x
            x  P                18         0.879004   0.117267   0.117070   x
            x  P                19         0.630207   0.370736   0.114662   x
            x  P                20         0.875735   0.368407   0.368209   x
            x  P                21         0.630207   0.119675   0.865615   x
            x  P                22         0.872399   0.117267   0.618122   x
            x  P                23         0.625203   0.368631   0.619132   x
            x  P                24         0.876738   0.368697   0.867653   x
            x  P                25         0.625203   0.619329   0.368434   x
            x  P                26         0.872399   0.618320   0.117070   x
            x  P                27         0.630207   0.865813   0.119478   x
            x  P                28         0.876738   0.867850   0.368500   x
            x  P                29         0.625202   0.617311   0.867719   x
            x  P                30         0.875452   0.618320   0.618122   x
            x  P                31         0.625202   0.867916   0.617114   x
            x  P                32         0.875735   0.868140   0.867943   x
            x  P                33         0.335593   0.181569   0.181371   x
            x  In                1         0.000449   0.992740   0.992543   x
            x  In                2         0.236493   0.986335   0.249907   x
            x  In                3         0.000449   0.243693   0.243495   x
            x  In                4         0.236493   0.250104   0.986137   x
            x  In                5         0.997751   0.993174   0.497144   x
            x  In                6         0.251660   0.992498   0.744855   x
            x  In                7         0.997751   0.243259   0.739079   x
            x  In                8         0.251661   0.243935   0.491365   x
            x  In                9         0.997751   0.497341   0.992977   x
            x  In               10         0.251661   0.491562   0.243737   x
            x  In               11         0.997751   0.739276   0.243062   x
            x  In               12         0.251660   0.745053   0.992301   x
            x  In               13         1.001190   0.493522   0.493324   x
            x  In               14         0.247708   0.491943   0.744475   x
            x  In               15         1.001189   0.743095   0.742897   x
            x  In               16         0.247708   0.744673   0.491746   x
            x  In               17         0.517144   0.980596   0.980399   x
            x  In               18         0.754904   0.994194   0.242040   x
            x  In               19         0.517146   0.255852   0.255655   x
            x  In               20         0.754904   0.242237   0.993997   x
            x  In               21         0.499340   0.993901   0.493331   x
            x  In               22         0.751171   0.992098   0.742206   x
            x  In               23         0.499340   0.242531   0.742890   x
            x  In               24         0.751172   0.244336   0.494016   x
            x  In               25         0.499340   0.493529   0.993704   x
            x  In               26         0.751172   0.494214   0.244139   x
            x  In               27         0.499340   0.743087   0.242333   x
            x  In               28         0.751171   0.742403   0.991901   x
            x  In               29         0.501061   0.498945   0.498748   x
            x  In               30         0.750896   0.492687   0.743733   x
            x  In               31         0.501060   0.737675   0.737478   x
            x  In               32         0.750896   0.743930   0.492490   x
            xxxxxxxxxxxxxxxxxxxxxxxxxxxxxxxxxxxxxxxxxxxxxxxxxxxxxxxxxxxxxxxxx


------------------------------------------------------------------------ <-- SCF
SCF loop      Energy           Fermi           Energy gain       Timer   <-- SCF
                               energy          per atom          (sec)   <-- SCF
------------------------------------------------------------------------ <-- SCF
Initial  -6.30863564E+004  0.00000000E+000                      8206.64  <-- SCF
      1  -6.30897694E+004  3.68702671E+000   5.25081652E-002    8615.72  <-- SCF
      2  -6.30901895E+004  3.68698273E+000   6.46241110E-003    9033.60  <-- SCF
      3  -6.30901954E+004  3.68420173E+000   9.04054615E-005    9398.35  <-- SCF
      4  -6.30901983E+004  3.68216982E+000   4.49813532E-005    9772.49  <-- SCF
      5  -6.30901988E+004  3.68179834E+000   6.89883006E-006   10190.67  <-- SCF
      6  -6.30901989E+004  3.68164833E+000   1.82125985E-006   10558.41  <-- SCF
      7  -6.30901989E+004  3.68134743E+000   3.75882484E-007   10926.08  <-- SCF
      8  -6.30901989E+004  3.68125002E+000   5.23206590E-008   11217.27  <-- SCF
      9  -6.30901989E+004  3.68108430E+000  -3.21598689E-009   11509.53  <-- SCF
     10  -6.30901989E+004  3.68083567E+000  -1.12796557E-009   11767.47  <-- SCF
     11  -6.30901989E+004  3.68081470E+000   1.03601496E-009   12015.66  <-- SCF
------------------------------------------------------------------------ <-- SCF
 
Integrated Spin Density     =    0.992748     hbar/2
Integrated |Spin Density|   =     1.21815     hbar/2
 
Final energy, E             =  -63090.19448497     eV
Final free energy (E-TS)    =  -63090.19889727     eV
(energies not corrected for finite basis set)
 
NB est. 0K energy (E-0.5TS)      =  -63090.19669112     eV
 

 ************************************** Forces **************************************
 *                                                                                  *
 *                           Cartesian components (eV/A)                            *
 * -------------------------------------------------------------------------------- *
 *                         x                    y                    z              *
 *                                                                                  *
 * P               1      0.08164              0.15804             -0.03098         *
 * P               2     -0.02635              0.08796              0.08749         *
 * P               3      0.08147             -0.03061              0.15751         *
 * P               4     -0.01756             -0.02525             -0.02593         *
 * P               5      0.09350              0.09062              0.00605         *
 * P               6     -0.03049              0.12061             -0.00471         *
 * P               7      0.11238             -0.01861              0.00740         *
 * P               8      0.02735             -0.01403             -0.00996         *
 * P               9      0.11237              0.00777             -0.01893         *
 * P              10     -0.03046             -0.00469              0.12021         *
 * P              11      0.09348              0.00525              0.09002         *
 * P              12      0.02735             -0.01031             -0.01456         *
 * P              13      0.11111             -0.02043             -0.00196         *
 * P              14      0.04436             -0.00592             -0.00620         *
 * P              15      0.11110             -0.00236             -0.01989         *
 * P              16     -0.01959             -0.00892             -0.00875         *
 * P              17     -0.00708              0.13627             -0.02216         *
 * P              18     -0.10716              0.12681              0.12616         *
 * P              19     -0.00712             -0.02316              0.13617         *
 * P              20     -0.04389              0.03800              0.03798         *
 * P              21     -0.00209              0.10938             -0.01085         *
 * P              22      0.00136              0.12687             -0.00604         *
 * P              23     -0.01993              0.01316              0.00396         *
 * P              24     -0.00305             -0.00595             -0.01669         *
 * P              25     -0.01988              0.00349              0.01326         *
 * P              26      0.00124             -0.00591              0.12638         *
 * P              27     -0.00192             -0.01022              0.10990         *
 * P              28     -0.00314             -0.01634             -0.00591         *
 * P              29     -0.01951             -0.01720             -0.03440         *
 * P              30     -0.02300             -0.00592             -0.00594         *
 * P              31     -0.01950             -0.03421             -0.01760         *
 * P              32     -0.04290             -0.05925             -0.05939         *
 * P              33      0.02980             -0.04186             -0.04187         *
 * In              1      0.04034             -0.10499             -0.10490         *
 * In              2     -0.03338             -0.09136              0.01344         *
 * In              3      0.03899              0.00374              0.00387         *
 * In              4     -0.03338              0.01336             -0.09128         *
 * In              5     -0.12537             -0.10068             -0.00790         *
 * In              6      0.01900             -0.09334             -0.00965         *
 * In              7     -0.12725              0.00272              0.01664         *
 * In              8      0.01473             -0.00471              0.01744         *
 * In              9     -0.12536             -0.00801             -0.10059         *
 * In             10      0.01473              0.01735             -0.00460         *
 * In             11     -0.12724              0.01652              0.00283         *
 * In             12      0.01899             -0.00976             -0.09325         *
 * In             13     -0.10262              0.01771              0.01782         *
 * In             14     -0.00452              0.04483             -0.03747         *
 * In             15     -0.10197             -0.01074             -0.01063         *
 * In             16     -0.00452             -0.03759              0.04493         *
 * In             17      0.03329             -0.07266             -0.07257         *
 * In             18     -0.02624             -0.15755              0.06427         *
 * In             19      0.01310              0.01889              0.01900         *
 * In             20     -0.02625              0.06417             -0.15745         *
 * In             21      0.04567             -0.06688             -0.00264         *
 * In             22     -0.01416             -0.06304             -0.01211         *
 * In             23      0.04408             -0.02791              0.00613         *
 * In             24     -0.01251             -0.03835              0.02175         *
 * In             25      0.04566             -0.00275             -0.06679         *
 * In             26     -0.01251              0.02164             -0.03823         *
 * In             27      0.04407              0.00603             -0.02781         *
 * In             28     -0.01417             -0.01221             -0.06296         *
 * In             29     -0.00885             -0.02296             -0.02287         *
 * In             30      0.02635             -0.00100              0.00794         *
 * In             31     -0.00894              0.02864              0.02877         *
 * In             32      0.02635              0.00783             -0.00089         *
 *                                                                                  *
 ************************************************************************************
 EXP precond LBFGS => estimated parameter mu :  1.359       eV/A**2
 LBFGS: finished iteration     0 with enthalpy= -6.30902208E+004 eV
  
 +-----------+-----------------+-----------------+------------+-----+ <-- LBFGS
 | Parameter |      value      |    tolerance    |    units   | OK? | <-- LBFGS
 +-----------+-----------------+-----------------+------------+-----+ <-- LBFGS
 |  dE/ion   |   0.000000E+000 |   2.000000E-005 |         eV | No  | <-- LBFGS
 |  |F|max   |   2.085179E-001 |   1.000000E-003 |       eV/A | No  | <-- LBFGS
 |  |dR|max  |   3.233591E-015 |   1.000000E-003 |          A | No  | <-- LBFGS
 +-----------+-----------------+-----------------+------------+-----+ <-- LBFGS
  

================================================================================
 Starting LBFGS iteration          1 ...
================================================================================
  
 +------------+-------------+-------------+-----------------+ <-- min LBFGS
 |    Step    |   lambda    |   F.delta'  |    enthalpy     | <-- min LBFGS
 +------------+-------------+-------------+-----------------+ <-- min LBFGS
 |  previous  |    0.000000 |    0.124874 |   -63090.220821 | <-- min LBFGS
 +------------+-------------+-------------+-----------------+ <-- min LBFGS
  

--------------------------------------------------------------------------------
 LBFGS: starting iteration         1 with trial guess (lambda=  1.000000)
--------------------------------------------------------------------------------

                           -------------------------------
                                     Cell Contents
                           -------------------------------

            xxxxxxxxxxxxxxxxxxxxxxxxxxxxxxxxxxxxxxxxxxxxxxxxxxxxxxxxxxxxxxxxx
            x  Element         Atom        Fractional coordinates of atoms  x
            x                 Number           u          v          w      x
            x---------------------------------------------------------------x
            x  P                 1         0.118510   0.116864   0.372887   x
            x  P                 2         0.334833   0.053087   0.052892   x
            x  P                 3         0.118508   0.373082   0.116663   x
            x  P                 4         0.378148   0.374615   0.374413   x
            x  P                 5         0.118510   0.117148   0.860711   x
            x  P                 6         0.373822   0.117005   0.616804   x
            x  P                 7         0.123914   0.366477   0.615888   x
            x  P                 8         0.374149   0.366254   0.867553   x
            x  P                 9         0.123914   0.616088   0.366276   x
            x  P                10         0.373821   0.617002   0.116805   x
            x  P                11         0.118511   0.860904   0.116947   x
            x  P                12         0.374148   0.867751   0.366054   x
            x  P                13         0.123911   0.617916   0.867335   x
            x  P                14         0.369721   0.617008   0.616805   x
            x  P                15         0.123911   0.867536   0.617719   x
            x  P                16         0.378149   0.859397   0.859196   x
            x  P                17         0.629064   0.114688   0.369628   x
            x  P                18         0.877174   0.117002   0.116802   x
            x  P                19         0.629065   0.369816   0.114494   x
            x  P                20         0.874125   0.367610   0.367412   x
            x  P                21         0.629064   0.119292   0.863963   x
            x  P                22         0.870907   0.117008   0.616804   x
            x  P                23         0.623900   0.367789   0.617925   x
            x  P                24         0.875141   0.367868   0.865934   x
            x  P                25         0.623900   0.618122   0.367592   x
            x  P                26         0.870907   0.617005   0.116805   x
            x  P                27         0.629063   0.864153   0.119101   x
            x  P                28         0.875141   0.866133   0.367671   x
            x  P                29         0.623903   0.615880   0.866017   x
            x  P                30         0.873743   0.617006   0.616805   x
            x  P                31         0.623902   0.866217   0.615682   x
            x  P                32         0.874127   0.866395   0.866196   x
            x  P                33         0.334835   0.180909   0.180715   x
            x  In                1        -0.000081  -0.008923  -0.009119   x
            x  In                2         0.235446  -0.015533   0.249327   x
            x  In                3        -0.000082   0.242916   0.242720   x
            x  In                4         0.235445   0.249523  -0.015728   x
            x  In                5        -0.004271  -0.008542   0.495909   x
            x  In                6         0.251133  -0.009098   0.743202   x
            x  In                7        -0.004271   0.242542   0.737692   x
            x  In                8         0.251134   0.243097   0.490399   x
            x  In                9        -0.004271   0.496104  -0.008740   x
            x  In               10         0.251133   0.490596   0.242900   x
            x  In               11        -0.004271   0.737887   0.242345   x
            x  In               12         0.251133   0.743397  -0.009295   x
            x  In               13        -0.000745   0.492511   0.492314   x
            x  In               14         0.247026   0.491146   0.742656   x
            x  In               15        -0.000746   0.741488   0.741291   x
            x  In               16         0.247026   0.742853   0.490948   x
            x  In               17         0.516338  -0.021211  -0.021405   x
            x  In               18         0.753302  -0.007939   0.241731   x
            x  In               19         0.516339   0.255197   0.255004   x
            x  In               20         0.753302   0.241924  -0.008134   x
            x  In               21         0.498782  -0.007482   0.492161   x
            x  In               22         0.749641  -0.009294   0.740583   x
            x  In               23         0.498782   0.241475   0.741439   x
            x  In               24         0.749641   0.243288   0.493017   x
            x  In               25         0.498782   0.492355  -0.007678   x
            x  In               26         0.749641   0.493211   0.243092   x
            x  In               27         0.498782   0.741633   0.241280   x
            x  In               28         0.749641   0.740778  -0.009490   x
            x  In               29         0.500060   0.497591   0.497394   x
            x  In               30         0.749661   0.491533   0.742267   x
            x  In               31         0.500060   0.736408   0.736211   x
            x  In               32         0.749661   0.742463   0.491337   x
            xxxxxxxxxxxxxxxxxxxxxxxxxxxxxxxxxxxxxxxxxxxxxxxxxxxxxxxxxxxxxxxxx


------------------------------------------------------------------------ <-- SCF
SCF loop      Energy           Fermi           Energy gain       Timer   <-- SCF
                               energy          per atom          (sec)   <-- SCF
------------------------------------------------------------------------ <-- SCF
Initial  -6.30864722E+004  0.00000000E+000                     12309.79  <-- SCF
      1  -6.30897967E+004  3.70688245E+000   5.11460730E-002   12734.25  <-- SCF
      2  -6.30902165E+004  3.70683788E+000   6.45865810E-003   13151.51  <-- SCF
      3  -6.30902220E+004  3.71150133E+000   8.38442350E-005   13510.84  <-- SCF
      4  -6.30902246E+004  3.71448647E+000   4.04707215E-005   13876.16  <-- SCF
      5  -6.30902251E+004  3.71504788E+000   6.95305427E-006   14289.73  <-- SCF
      6  -6.30902252E+004  3.71516529E+000   1.96780190E-006   14648.97  <-- SCF
      7  -6.30902252E+004  3.71546372E+000   2.69673437E-007   15013.86  <-- SCF
      8  -6.30902252E+004  3.71561595E+000   3.29765731E-008   15314.31  <-- SCF
      9  -6.30902252E+004  3.71581539E+000  -6.83842213E-009   15613.99  <-- SCF
     10  -6.30902252E+004  3.71630864E+000   7.31587996E-009   15872.46  <-- SCF
     11  -6.30902252E+004  3.71634830E+000   1.06609404E-009   16120.35  <-- SCF
------------------------------------------------------------------------ <-- SCF
 
Integrated Spin Density     =    0.993080     hbar/2
Integrated |Spin Density|   =     1.21793     hbar/2
 
Final energy, E             =  -63090.22095197     eV
Final free energy (E-TS)    =  -63090.22519799     eV
(energies not corrected for finite basis set)
 
NB est. 0K energy (E-0.5TS)      =  -63090.22307498     eV
 

 ************************************** Forces **************************************
 *                                                                                  *
 *                           Cartesian components (eV/A)                            *
 * -------------------------------------------------------------------------------- *
 *                         x                    y                    z              *
 *                                                                                  *
 * P               1     -0.00579              0.02662             -0.00593         *
 * P               2      0.03882             -0.05048             -0.05048         *
 * P               3     -0.00579             -0.00591              0.02673         *
 * P               4     -0.01521             -0.00717             -0.00724         *
 * P               5     -0.00590             -0.02693              0.00598         *
 * P               6      0.01376             -0.00006             -0.00021         *
 * P               7     -0.00706             -0.00579             -0.00215         *
 * P               8      0.00201             -0.00018             -0.00006         *
 * P               9     -0.00706             -0.00218             -0.00569         *
 * P              10      0.01382             -0.00019             -0.00010         *
 * P              11     -0.00590              0.00600             -0.02684         *
 * P              12      0.00216             -0.00006             -0.00018         *
 * P              13     -0.00719              0.00222              0.00571         *
 * P              14      0.02897             -0.00002              0.00001         *
 * P              15     -0.00718              0.00559              0.00223         *
 * P              16     -0.01561              0.00690              0.00693         *
 * P              17      0.00916              0.00980             -0.01921         *
 * P              18     -0.04572             -0.00009              0.00014         *
 * P              19      0.00904             -0.01918              0.00973         *
 * P              20     -0.01819              0.00765              0.00774         *
 * P              21      0.00880             -0.00960              0.01941         *
 * P              22      0.01159             -0.00006              0.00010         *
 * P              23      0.00518              0.00252             -0.00166         *
 * P              24      0.00747              0.00152             -0.00139         *
 * P              25      0.00531             -0.00177              0.00254         *
 * P              26      0.01156             -0.00011              0.00004         *
 * P              27      0.00893              0.01943             -0.00966         *
 * P              28      0.00775             -0.00149              0.00157         *
 * P              29      0.00514              0.00144             -0.00254         *
 * P              30     -0.00697             -0.00001              0.00004         *
 * P              31      0.00524             -0.00259              0.00151         *
 * P              32     -0.01839             -0.00762             -0.00756         *
 * P              33      0.03838              0.05037              0.05042         *
 * In              1      0.00316             -0.00699             -0.00688         *
 * In              2     -0.00339             -0.02834              0.02842         *
 * In              3      0.00236              0.00711              0.00714         *
 * In              4     -0.00297              0.02844             -0.02827         *
 * In              5      0.00554              0.00002             -0.00626         *
 * In              6     -0.00388             -0.00749             -0.00431         *
 * In              7      0.00579              0.00054              0.00610         *
 * In              8     -0.00398              0.00758              0.00442         *
 * In              9      0.00553             -0.00620             -0.00001         *
 * In             10     -0.00421              0.00445              0.00725         *
 * In             11      0.00563              0.00622              0.00058         *
 * In             12     -0.00366             -0.00433             -0.00787         *
 * In             13      0.01811             -0.00193             -0.00203         *
 * In             14      0.01868              0.00171             -0.00132         *
 * In             15      0.01848              0.00227              0.00224         *
 * In             16      0.01844             -0.00115              0.00158         *
 * In             17     -0.03467              0.00543              0.00584         *
 * In             18     -0.00061             -0.01351              0.01243         *
 * In             19     -0.03527             -0.00564             -0.00526         *
 * In             20     -0.00050              0.01266             -0.01391         *
 * In             21     -0.01202              0.00414             -0.00455         *
 * In             22      0.00427             -0.01704             -0.00837         *
 * In             23     -0.01171             -0.00394              0.00524         *
 * In             24      0.00320              0.01663              0.00777         *
 * In             25     -0.01164             -0.00467              0.00437         *
 * In             26      0.00326              0.00794              0.01628         *
 * In             27     -0.01200              0.00500             -0.00373         *
 * In             28      0.00412             -0.00806             -0.01729         *
 * In             29     -0.01486             -0.02129             -0.02117         *
 * In             30     -0.00386              0.00554             -0.00548         *
 * In             31     -0.01452              0.02171              0.02172         *
 * In             32     -0.00397             -0.00541              0.00543         *
 *                                                                                  *
 ************************************************************************************
  
 +------------+-------------+-------------+-----------------+ <-- min LBFGS
 |    Step    |   lambda    |   F.delta'  |    enthalpy     | <-- min LBFGS
 +------------+-------------+-------------+-----------------+ <-- min LBFGS
 |  previous  |    0.000000 |    0.124874 |   -63090.220821 | <-- min LBFGS
 | trial step |    1.000000 |   -0.011030 |   -63090.225198 | <-- min LBFGS
 +------------+-------------+-------------+-----------------+ <-- min LBFGS
  
 LBFGS: finished iteration     1 with enthalpy= -6.30902252E+004 eV
  
 +-----------+-----------------+-----------------+------------+-----+ <-- LBFGS
 | Parameter |      value      |    tolerance    |    units   | OK? | <-- LBFGS
 +-----------+-----------------+-----------------+------------+-----+ <-- LBFGS
 |  dE/ion   |   6.734042E-005 |   2.000000E-005 |         eV | No  | <-- LBFGS
 |  |F|max   |   8.126457E-002 |   1.000000E-003 |       eV/A | No  | <-- LBFGS
 |  |dR|max  |   8.253853E-003 |   1.000000E-003 |          A | No  | <-- LBFGS
 +-----------+-----------------+-----------------+------------+-----+ <-- LBFGS
  

================================================================================
 Starting LBFGS iteration          2 ...
================================================================================
  
 +------------+-------------+-------------+-----------------+ <-- min LBFGS
 |    Step    |   lambda    |   F.delta'  |    enthalpy     | <-- min LBFGS
 +------------+-------------+-------------+-----------------+ <-- min LBFGS
 |  previous  |    0.000000 |    0.068611 |   -63090.225198 | <-- min LBFGS
 +------------+-------------+-------------+-----------------+ <-- min LBFGS
  

--------------------------------------------------------------------------------
 LBFGS: starting iteration         2 with trial guess (lambda=  1.000000)
--------------------------------------------------------------------------------

                           -------------------------------
                                     Cell Contents
                           -------------------------------

            xxxxxxxxxxxxxxxxxxxxxxxxxxxxxxxxxxxxxxxxxxxxxxxxxxxxxxxxxxxxxxxxx
            x  Element         Atom        Fractional coordinates of atoms  x
            x                 Number           u          v          w      x
            x---------------------------------------------------------------x
            x  P                 1         0.118462   0.117065   0.372908   x
            x  P                 2         0.335137   0.052830   0.052637   x
            x  P                 3         0.118460   0.373102   0.116863   x
            x  P                 4         0.377958   0.374487   0.374283   x
            x  P                 5         0.118465   0.116950   0.860690   x
            x  P                 6         0.373856   0.117007   0.616804   x
            x  P                 7         0.123894   0.366387   0.615928   x
            x  P                 8         0.374306   0.366217   0.867591   x
            x  P                 9         0.123893   0.616128   0.366184   x
            x  P                10         0.373857   0.617002   0.116805   x
            x  P                11         0.118466   0.860882   0.116748   x
            x  P                12         0.374305   0.867790   0.366017   x
            x  P                13         0.123890   0.617880   0.867430   x
            x  P                14         0.370116   0.617012   0.616807   x
            x  P                15         0.123890   0.867632   0.617683   x
            x  P                16         0.377960   0.859528   0.859325   x
            x  P                17         0.629113   0.114832   0.369462   x
            x  P                18         0.876682   0.117001   0.116801   x
            x  P                19         0.629114   0.369646   0.114638   x
            x  P                20         0.873994   0.367745   0.367546   x
            x  P                21         0.629114   0.119142   0.864125   x
            x  P                22         0.871079   0.117010   0.616805   x
            x  P                23         0.623906   0.367811   0.617937   x
            x  P                24         0.875233   0.367878   0.865924   x
            x  P                25         0.623906   0.618132   0.367612   x
            x  P                26         0.871078   0.617006   0.116806   x
            x  P                27         0.629113   0.864314   0.118953   x
            x  P                28         0.875234   0.866125   0.367680   x
            x  P                29         0.623912   0.615869   0.865998   x
            x  P                30         0.873712   0.617009   0.616807   x
            x  P                31         0.623912   0.866198   0.615670   x
            x  P                32         0.874000   0.866263   0.866063   x
            x  P                33         0.335136   0.181163   0.180971   x
            x  In                1        -0.000307  -0.008977  -0.009171   x
            x  In                2         0.235304  -0.015719   0.249513   x
            x  In                3        -0.000316   0.242968   0.242773   x
            x  In                4         0.235307   0.249707  -0.015912   x
            x  In                5        -0.004265  -0.008456   0.495820   x
            x  In                6         0.251096  -0.009101   0.743117   x
            x  In                7        -0.004262   0.242461   0.737779   x
            x  In                8         0.251094   0.243102   0.490486   x
            x  In                9        -0.004266   0.496015  -0.008654   x
            x  In               10         0.251092   0.490681   0.242901   x
            x  In               11        -0.004264   0.737975   0.242263   x
            x  In               12         0.251098   0.743311  -0.009301   x
            x  In               13        -0.000633   0.492545   0.492347   x
            x  In               14         0.247188   0.491250   0.742557   x
            x  In               15        -0.000629   0.741458   0.741260   x
            x  In               16         0.247185   0.742756   0.491051   x
            x  In               17         0.516154  -0.021190  -0.021378   x
            x  In               18         0.753188  -0.008095   0.241874   x
            x  In               19         0.516148   0.255168   0.254979   x
            x  In               20         0.753189   0.242067  -0.008291   x
            x  In               21         0.498849  -0.007270   0.492092   x
            x  In               22         0.749647  -0.009315   0.740486   x
            x  In               23         0.498851   0.241262   0.741512   x
            x  In               24         0.749636   0.243304   0.493109   x
            x  In               25         0.498852   0.492284  -0.007463   x
            x  In               26         0.749637   0.493303   0.243106   x
            x  In               27         0.498849   0.741703   0.241069   x
            x  In               28         0.749646   0.740682  -0.009513   x
            x  In               29         0.499962   0.497336   0.497140   x
            x  In               30         0.749723   0.491562   0.742238   x
            x  In               31         0.499967   0.736667   0.736470   x
            x  In               32         0.749722   0.742434   0.491366   x
            xxxxxxxxxxxxxxxxxxxxxxxxxxxxxxxxxxxxxxxxxxxxxxxxxxxxxxxxxxxxxxxxx


------------------------------------------------------------------------ <-- SCF
SCF loop      Energy           Fermi           Energy gain       Timer   <-- SCF
                               energy          per atom          (sec)   <-- SCF
------------------------------------------------------------------------ <-- SCF
Initial  -6.30901361E+004  0.00000000E+000                     16397.30  <-- SCF
      1  -6.30902233E+004  3.70882853E+000   1.34116038E-003   16821.52  <-- SCF
      2  -6.30902265E+004  3.70882669E+000   4.89691177E-005   17233.47  <-- SCF
      3  -6.30902265E+004  3.70867543E+000  -2.31365822E-007   17578.90  <-- SCF
      4  -6.30902265E+004  3.70890029E+000  -1.30541311E-008   17953.39  <-- SCF
      5  -6.30902265E+004  3.70901100E+000   1.15506720E-007   18263.18  <-- SCF
      6  -6.30902265E+004  3.70924073E+000   1.72783384E-009   18547.10  <-- SCF
      7  -6.30902265E+004  3.70929899E+000   4.14063309E-009   18801.72  <-- SCF
      8  -6.30902265E+004  3.70931866E+000   1.25437386E-009   19055.31  <-- SCF
------------------------------------------------------------------------ <-- SCF
 
Integrated Spin Density     =    0.993274     hbar/2
Integrated |Spin Density|   =     1.21851     hbar/2
 
Final energy, E             =  -63090.22232407     eV
Final free energy (E-TS)    =  -63090.22648065     eV
(energies not corrected for finite basis set)
 
NB est. 0K energy (E-0.5TS)      =  -63090.22440236     eV
 

 ************************************** Forces **************************************
 *                                                                                  *
[...]
                 32   dn:     0.867   1.970   0.000   0.000   2.837
  P              33   up:     0.897   2.035   0.000   0.000   2.932    -0.453        0.412
                 33   dn:     0.888   1.632   0.000   0.000   2.520
  In              1   up:     0.452   0.718   4.995   0.000   6.165     0.676        0.006
                  1   dn:     0.449   0.715   4.995   0.000   6.159
  In              2   up:     0.422   0.700   4.995   0.000   6.117     0.734       -0.032
                  2   dn:     0.439   0.716   4.994   0.000   6.149
  In              3   up:     0.452   0.718   4.995   0.000   6.165     0.676        0.006
                  3   dn:     0.449   0.715   4.995   0.000   6.159
  In              4   up:     0.422   0.700   4.995   0.000   6.117     0.734       -0.032
                  4   dn:     0.439   0.716   4.994   0.000   6.149
  In              5   up:     0.448   0.734   4.994   0.000   6.176     0.656        0.008
                  5   dn:     0.446   0.728   4.994   0.000   6.168
  In              6   up:     0.450   0.714   4.995   0.000   6.159     0.682       -0.000
                  6   dn:     0.450   0.714   4.995   0.000   6.159
  In              7   up:     0.448   0.734   4.994   0.000   6.176     0.656        0.008
                  7   dn:     0.446   0.728   4.994   0.000   6.168
  In              8   up:     0.450   0.714   4.995   0.000   6.159     0.682       -0.000
                  8   dn:     0.450   0.714   4.995   0.000   6.159
  In              9   up:     0.448   0.734   4.994   0.000   6.176     0.656        0.008
                  9   dn:     0.446   0.728   4.994   0.000   6.168
  In             10   up:     0.450   0.714   4.995   0.000   6.159     0.682       -0.000
                 10   dn:     0.450   0.714   4.995   0.000   6.159
  In             11   up:     0.448   0.734   4.994   0.000   6.176     0.656        0.008
                 11   dn:     0.446   0.728   4.994   0.000   6.168
  In             12   up:     0.450   0.714   4.995   0.000   6.159     0.682       -0.000
                 12   dn:     0.450   0.714   4.995   0.000   6.159
  In             13   up:     0.441   0.724   4.995   0.000   6.160     0.681       -0.000
                 13   dn:     0.441   0.724   4.995   0.000   6.160
  In             14   up:     0.442   0.721   4.995   0.000   6.158     0.686        0.002
                 14   dn:     0.440   0.721   4.995   0.000   6.156
  In             15   up:     0.441   0.724   4.995   0.000   6.160     0.681       -0.000
                 15   dn:     0.441   0.724   4.995   0.000   6.160
  In             16   up:     0.442   0.721   4.995   0.000   6.158     0.686        0.002
                 16   dn:     0.440   0.721   4.995   0.000   6.156
  In             17   up:     0.447   0.736   4.993   0.000   6.177     0.633       -0.013
                 17   dn:     0.455   0.743   4.993   0.000   6.190
  In             18   up:     0.442   0.722   4.995   0.000   6.158     0.686        0.002
                 18   dn:     0.442   0.720   4.995   0.000   6.156
  In             19   up:     0.447   0.736   4.993   0.000   6.177     0.633       -0.013
                 19   dn:     0.455   0.743   4.993   0.000   6.190
  In             20   up:     0.442   0.722   4.995   0.000   6.158     0.686        0.002
                 20   dn:     0.442   0.720   4.995   0.000   6.156
  In             21   up:     0.444   0.719   4.995   0.000   6.158     0.687        0.003
                 21   dn:     0.441   0.719   4.995   0.000   6.155
  In             22   up:     0.442   0.725   4.994   0.000   6.162     0.678        0.001
                 22   dn:     0.443   0.723   4.994   0.000   6.160
  In             23   up:     0.444   0.719   4.995   0.000   6.158     0.687        0.003
                 23   dn:     0.441   0.719   4.995   0.000   6.155
  In             24   up:     0.442   0.725   4.994   0.000   6.162     0.678        0.001
                 24   dn:     0.443   0.723   4.994   0.000   6.160
  In             25   up:     0.444   0.719   4.995   0.000   6.158     0.687        0.003
                 25   dn:     0.441   0.719   4.995   0.000   6.155
  In             26   up:     0.442   0.725   4.994   0.000   6.162     0.678        0.001
                 26   dn:     0.443   0.723   4.994   0.000   6.160
  In             27   up:     0.444   0.719   4.995   0.000   6.158     0.687        0.003
                 27   dn:     0.441   0.719   4.995   0.000   6.155
  In             28   up:     0.442   0.725   4.994   0.000   6.162     0.678        0.001
                 28   dn:     0.443   0.723   4.994   0.000   6.160
  In             29   up:     0.444   0.731   4.994   0.000   6.169     0.661       -0.002
                 29   dn:     0.444   0.732   4.994   0.000   6.170
  In             30   up:     0.442   0.725   4.994   0.000   6.161     0.679        0.001
                 30   dn:     0.441   0.725   4.994   0.000   6.160
  In             31   up:     0.444   0.731   4.994   0.000   6.169     0.661       -0.002
                 31   dn:     0.444   0.732   4.994   0.000   6.170
  In             32   up:     0.442   0.725   4.994   0.000   6.161     0.679        0.001
                 32   dn:     0.441   0.725   4.994   0.000   6.160
==============================================================================================

                 Bond                   Population        Spin       Length (A)
================================================================================
              P 2  -- P 33                   0.35        -0.12          2.13600
              P 33 -- In 19                  0.75        -0.01          2.47055
              P 2  -- In 17                  0.75        -0.01          2.47060
              P 4  -- In 29                  0.69         0.00          2.50419
              P 16 -- In 31                  0.69         0.00          2.50425
              P 14 -- In 31                  0.66         0.00          2.51823
              P 14 -- In 29                  0.66         0.00          2.51832
              P 17 -- In 19                  0.65        -0.00          2.51958
              P 27 -- In 17                  0.65        -0.00          2.51960
              P 19 -- In 19                  0.65        -0.00          2.51961
              P 21 -- In 17                  0.65        -0.00          2.51963
              P 5  -- In 7                   0.64        -0.00          2.52855
              P 3  -- In 9                   0.64        -0.00          2.52856
              P 11 -- In 11                  0.64        -0.00          2.52857
              P 1  -- In 5                   0.64        -0.00          2.52858
              P 26 -- In 11                  0.66        -0.00          2.53019
              P 22 -- In 7                   0.66        -0.00          2.53019
              P 22 -- In 5                   0.66        -0.00          2.53030
              P 26 -- In 9                   0.66        -0.00          2.53031
              P 26 -- In 28                  0.67         0.00          2.53094
              P 22 -- In 24                  0.67         0.00          2.53097
              P 22 -- In 22                  0.67         0.00          2.53099
              P 26 -- In 26                  0.67         0.00          2.53103
              P 27 -- In 28                  0.64        -0.00          2.54126
              P 21 -- In 22                  0.64        -0.00          2.54126
              P 17 -- In 24                  0.64        -0.00          2.54127
              P 19 -- In 26                  0.64        -0.00          2.54129
              P 24 -- In 30                  0.67         0.00          2.54183
              P 28 -- In 32                  0.67         0.00          2.54186
              P 12 -- In 2                   0.68         0.00          2.54324
              P 8  -- In 4                   0.68         0.00          2.54326
              P 5  -- In 4                   0.63        -0.01          2.54514
              P 11 -- In 2                   0.63        -0.01          2.54516
              P 3  -- In 4                   0.63        -0.01          2.54524
              P 1  -- In 2                   0.63        -0.01          2.54526
              P 28 -- In 18                  0.66        -0.00          2.54547
              P 24 -- In 20                  0.66        -0.00          2.54551
              P 18 -- In 20                  0.66         0.00          2.54667
              P 18 -- In 18                  0.66         0.00          2.54671
              P 23 -- In 30                  0.66        -0.00          2.54723
              P 25 -- In 32                  0.66        -0.00          2.54724
              P 29 -- In 30                  0.66        -0.00          2.54728
              P 31 -- In 32                  0.66        -0.00          2.54729
              P 10 -- In 27                  0.66         0.00          2.54833
              P 6  -- In 23                  0.66         0.00          2.54834
              P 6  -- In 21                  0.66         0.00          2.54844
              P 10 -- In 25                  0.66         0.00          2.54845
              P 9  -- In 11                  0.66         0.00          2.54879
              P 7  -- In 7                   0.66         0.00          2.54884
              P 15 -- In 5                   0.66         0.00          2.54886
              P 13 -- In 9                   0.66         0.00          2.54890
              P 13 -- In 15                  0.67         0.00          2.54953
              P 7  -- In 13                  0.67         0.00          2.54953
              P 15 -- In 15                  0.67         0.00          2.54955
              P 9  -- In 13                  0.67         0.00          2.54956
              P 24 -- In 9                   0.65        -0.00          2.54988
              P 28 -- In 5                   0.65        -0.00          2.54989
              P 24 -- In 7                   0.65        -0.00          2.54989
              P 28 -- In 11                  0.65        -0.00          2.54990
              P 14 -- In 16                  0.68         0.00          2.55009
              P 32 -- In 22                  0.67         0.00          2.55010
              P 20 -- In 26                  0.67         0.00          2.55011
              P 20 -- In 24                  0.67         0.00          2.55012
              P 32 -- In 28                  0.67         0.00          2.55012
              P 14 -- In 14                  0.68         0.00          2.55014
              P 23 -- In 29                  0.65         0.00          2.55120
              P 25 -- In 29                  0.65         0.00          2.55122
              P 29 -- In 31                  0.65         0.00          2.55122
              P 31 -- In 31                  0.65         0.00          2.55124
              P 30 -- In 15                  0.66         0.00          2.55285
              P 30 -- In 13                  0.66         0.00          2.55293
              P 21 -- In 20                  0.65        -0.00          2.55315
              P 27 -- In 18                  0.65        -0.00          2.55318
              P 19 -- In 20                  0.65        -0.00          2.55323
              P 17 -- In 18                  0.65        -0.00          2.55326
              P 29 -- In 28                  0.66        -0.00          2.55381
              P 31 -- In 22                  0.66        -0.00          2.55383
              P 7  -- In 14                  0.67         0.00          2.55384
              P 9  -- In 16                  0.67         0.00          2.55385
              P 13 -- In 14                  0.67         0.00          2.55391
              P 15 -- In 16                  0.67         0.00          2.55392
              P 23 -- In 24                  0.66        -0.00          2.55395
              P 25 -- In 26                  0.66        -0.00          2.55397
              P 18 -- In 3                   0.65         0.00          2.55402
              P 30 -- In 32                  0.66         0.00          2.55406
              P 30 -- In 30                  0.66         0.00          2.55409
              P 18 -- In 1                   0.65         0.00          2.55412
              P 4  -- In 10                  0.67         0.00          2.55431
              P 16 -- In 6                   0.67         0.00          2.55432
              P 4  -- In 8                   0.67         0.00          2.55433
              P 16 -- In 12                  0.67         0.00          2.55433
              P 20 -- In 13                  0.66         0.00          2.55499
              P 32 -- In 15                  0.66         0.00          2.55501
              P 1  -- In 3                   0.66        -0.00          2.55539
              P 3  -- In 3                   0.66        -0.00          2.55542
              P 11 -- In 1                   0.66        -0.00          2.55547
              P 5  -- In 1                   0.66        -0.00          2.55550
              P 21 -- In 23                  0.67         0.00          2.55591
              P 27 -- In 27                  0.67         0.00          2.55591
              P 19 -- In 25                  0.67         0.00          2.55592
              P 17 -- In 21                  0.67         0.00          2.55593
              P 32 -- In 1                   0.66         0.00          2.55652
              P 25 -- In 27                  0.66         0.00          2.55652
              P 20 -- In 3                   0.66         0.00          2.55656
              P 31 -- In 21                  0.66         0.00          2.55656
              P 23 -- In 23                  0.66         0.00          2.55657
              P 29 -- In 25                  0.66         0.00          2.55661
              P 10 -- In 12                  0.65        -0.00          2.55703
              P 6  -- In 8                   0.65         0.00          2.55705
              P 6  -- In 6                   0.65        -0.00          2.55707
              P 10 -- In 10                  0.65         0.00          2.55708
              P 8  -- In 25                  0.66         0.00          2.55831
              P 12 -- In 21                  0.66         0.00          2.55832
              P 12 -- In 27                  0.66         0.00          2.55838
              P 8  -- In 23                  0.66         0.00          2.55838
              P 13 -- In 12                  0.64        -0.00          2.56054
              P 15 -- In 6                   0.64        -0.00          2.56056
              P 7  -- In 8                   0.64        -0.00          2.56064
              P 9  -- In 10                  0.64        -0.00          2.56065
              P 8  -- In 14                  0.63         0.00          2.56760
              P 12 -- In 16                  0.63         0.00          2.56760
              P 3  -- In 10                  0.65         0.01          2.56772
              P 1  -- In 8                   0.65         0.01          2.56772
              P 11 -- In 12                  0.65         0.01          2.56776
              P 5  -- In 6                   0.65         0.01          2.56777
              P 16 -- In 17                  0.53         0.00          2.57527
              P 4  -- In 19                  0.53         0.00          2.57539
              P 33 -- In 4                   0.30        -0.00          2.72694
              P 33 -- In 2                   0.30        -0.00          2.72699
              P 2  -- In 2                   0.30        -0.00          2.72709
              P 2  -- In 4                   0.30        -0.00          2.72711
================================================================================

 Hirshfeld supercell size:           2           2           2
Standard grid dimensions: 240 240 240
Fine grid dimensions:     240 240 240


     Hirshfeld Analysis
     ------------------
Species   Ion     Hirshfeld Charge (e)  Spin (hbar/2)
===================================================
  P        1                -0.23        0.03
  P        2                -0.16        0.31
  P        3                -0.23        0.03
  P        4                -0.24        0.00
  P        5                -0.23        0.03
  P        6                -0.24        0.00
  P        7                -0.24        0.00
  P        8                -0.23        0.00
  P        9                -0.24        0.00
  P       10                -0.24        0.00
  P       11                -0.23        0.03
  P       12                -0.23        0.00
  P       13                -0.24        0.00
  P       14                -0.24       -0.00
  P       15                -0.24        0.00
  P       16                -0.24        0.00
  P       17                -0.24        0.01
  P       18                -0.24       -0.00
  P       19                -0.24        0.01
  P       20                -0.24        0.00
  P       21                -0.24        0.01
  P       22                -0.24        0.01
  P       23                -0.24        0.00
  P       24                -0.24        0.00
  P       25                -0.24        0.00
  P       26                -0.24        0.01
  P       27                -0.24        0.01
  P       28                -0.24        0.00
  P       29                -0.24        0.00
  P       30                -0.24        0.00
  P       31                -0.24        0.00
  P       32                -0.24        0.00
  P       33                -0.16        0.31
  In       1                 0.24        0.00
  In       2                 0.26        0.04
  In       3                 0.24        0.00
  In       4                 0.26        0.04
  In       5                 0.23        0.01
  In       6                 0.25        0.00
  In       7                 0.23        0.01
  In       8                 0.25        0.00
  In       9                 0.23        0.01
  In      10                 0.25        0.00
  In      11                 0.23        0.01
  In      12                 0.25        0.00
  In      13                 0.24        0.00
  In      14                 0.24       -0.00
  In      15                 0.24        0.00
  In      16                 0.24       -0.00
  In      17                 0.22        0.02
  In      18                 0.24        0.00
  In      19                 0.22        0.02
  In      20                 0.24        0.00
  In      21                 0.24        0.00
  In      22                 0.24        0.00
  In      23                 0.24        0.00
  In      24                 0.24        0.00
  In      25                 0.24        0.00
  In      26                 0.24        0.00
  In      27                 0.24        0.00
  In      28                 0.24        0.00
  In      29                 0.23       -0.00
  In      30                 0.24        0.00
  In      31                 0.23       -0.00
  In      32                 0.24        0.00
===================================================

 
 A BibTeX formatted list of references used in this run has been written to 
 P_Interstitial_Dumbbell_plus.bib
 
Initialisation time =     31.03 s
Calculation time    =  36077.91 s
Finalisation time   =    160.08 s
Total time          =  36269.01 s
Peak Memory Use     = 10090304 kB
 
Overall parallel efficiency rating: Poor (37%)
 
Data was distributed by:-
G-vector (3-way); efficiency rating: Poor (40%)
k-point (36-way); efficiency rating: Very good (81%)
