 +-------------------------------------------------+
 |                                                 |
 |      CCC   AA    SSS  TTTTT  EEEEE  PPPP        |
 |     C     A  A  S       T    E      P   P       |
 |     C     AAAA   SS     T    EEE    PPPP        |
 |     C     A  A     S    T    E      P           |
 |      CCC  A  A  SSS     T    EEEEE  P           |
 |                                                 |
 +-------------------------------------------------+
 |                                                 |
 | Welcome to Academic Release CASTEP version 20.11|          
 | Ab Initio Total Energy Program                  |
 |                                                 |
 | Authors:                                        |
 | M. Segall, M. Probert, C. Pickard, P. Hasnip,   |
 | S. Clark, K. Refson, J. R. Yates, M. Payne      |
 |                                                 |
 | Contributors:                                   |
 | P. Lindan, P. Haynes, J. White, V. Milman,      |
 | N. Govind, M. Gibson, P. Tulip, V. Cocula,      |
 | B. Montanari, D. Quigley, M. Glover,            |
 | L. Bernasconi, A. Perlov, M. Plummer,           |
 | E. McNellis, J. Meyer, J. Gale, D. Jochym       |
 | J. Aarons, B. Walker, R. Gillen, D. Jones       |
 | T. Green, I. J. Bush, C. J. Armstrong,          |
 | E. J. Higgins, E. L. Brown, M. S. McFly,        |
 | J. Wilkins, B-C. Shih, P. J. P. Byrne,          |
 | R. J. Maurer, J. C. Womack, J. Dziedzic,        |
 | J. R. Kermode, A. Bartok-Partay                 |
 |                                                 |
 | Copyright (c) 2000 - 2020                       |
 |                                                 |
 |     Distributed under license from Cambridge    |
 |     Enterprise for academic use only.           |
 |                                                 |
 | Please cite                                     |
 |                                                 |
 |     "First principles methods using CASTEP"     |
 |                                                 |
 |         Zeitschrift fuer Kristallographie       |
 |           220(5-6) pp. 567-570 (2005)           |
 |                                                 |
 | S. J. Clark, M. D. Segall, C. J. Pickard,       |
 | P. J. Hasnip, M. J. Probert, K. Refson,         |
 | M. C. Payne                                     |
 |                                                 |
 |       in all publications arising from          |
 |              your use of CASTEP                 |
 |                                                 |
 +-------------------------------------------------+
 |                                                 |
 |              http://www.castep.org              |
 |                                                 |
 +-------------------------------------------------+
 
 
 
 Compiled for linux_x86_64_ifort on Wed, 25 Aug 2021 18:50:38 +0100
 from code version e772bf432+  HEAD  Sat Apr 3 17:41:32 2021 +0100
 Compiler: Intel Fortran 19.0.5.281; Optimisation: fast
 MATHLIBS: Intel MKL(2019.0.5) (LAPACK version 3.7.0)
 FFT Lib : mkl
 Fundamental constants values: CODATA 2014
 
 Run started: Fri, 16 Dec 2022 12:17:15 +0000
 
 Atomic calculation performed for P: 1s2 2s2 2p6 3s2 3p3
 
 Exceeded max iterations: converged to -0.000003405 eV
 The ae energy is -9309.074 eV
 
   ============================================================                
   | Pseudopotential Report - Date of generation 16-12-2022   |                
   ------------------------------------------------------------                
   | Element: P Ionic charge:  5.00 Level of theory: RSCAN    |                
   | Atomic Solver: Koelling-Harmon                           |                
   |                                                          |                
   |               Reference Electronic Structure             |                
   |         Orbital         Occupation         Energy        |                
   |            3s              2.000           -0.535        |                
   |            3p              3.000           -0.209        |                
   |                                                          |                
   |                 Pseudopotential Definition               |                
   |        Beta     l      e      Rc     scheme   norm       |                
   |          1      0   -0.535   1.807     qc      0         |                
   |          2      0    0.250   1.807     qc      0         |                
   |          3      1   -0.209   1.807     qc      0         |                
   |          4      1    0.250   1.807     qc      0         |                
   |          5      2    0.000   1.807     qc      0         |                
   |          6      2    0.250   1.807     qc      0         |                
   |         loc     3    0.000   1.807     pn      0         |                
   |                                                          |                
   | Augmentation charge Rinner = 1.263                       |                
   | Partial core correction Rc = 1.263                       |                
   ------------------------------------------------------------                
   | "3|1.8|4|4|5|30:31:32"                                   |                
   ------------------------------------------------------------                
   |      Author: Chris J. Pickard, Cambridge University      |                
   ============================================================                
 Warning: ion_atom_output_psp cannot write out meta-GGA pseudopotentials present
 ly.
 
 Atomic calculation performed for In:
 1s2 2s2 2p6 3s2 3p6 3d10 4s2 4p6 4d10 5s2 5p1
 
 Exceeded max iterations: converged to -0.000725459 eV
 The ae energy is -160093.321 eV
 
   ============================================================                
   | Pseudopotential Report - Date of generation 16-12-2022   |                
   ------------------------------------------------------------                
   | Element: In Ionic charge: 13.00 Level of theory: RSCAN   |                
   | Atomic Solver: Koelling-Harmon                           |                
   |                                                          |                
   |               Reference Electronic Structure             |                
   |         Orbital         Occupation         Energy        |                
   |            4d             10.000           -0.711        |                
   |            5s              2.000           -0.313        |                
   |            5p              1.000           -0.095        |                
   |                                                          |                
   |                 Pseudopotential Definition               |                
   |        Beta     l      e      Rc     scheme   norm       |                
   |          1      0   -0.313   2.501     qc      0         |                
   |          2      0    0.250   2.501     qc      0         |                
   |          3      1   -0.095   2.501     qc      0         |                
   |          4      1    0.250   2.501     qc      0         |                
   |          5      2   -0.711   2.207     qc      0         |                
   |          6      2    0.250   2.207     qc      0         |                
   |         loc     3    0.000   2.501     pn      0         |                
   |                                                          |                
   | Augmentation charge Rinner = 1.504                       |                
   | Partial core correction Rc = 1.504                       |                
   ------------------------------------------------------------                
   | "3|2.5|2.5|1.5|7|8|9|50:51:42U2.2U2.2"                   |                
   ------------------------------------------------------------                
   |      Author: Chris J. Pickard, Cambridge University      |                
   ============================================================                
 Warning: ion_atom_output_psp cannot write out meta-GGA pseudopotentials present
 ly.
 
 Pseudo atomic calculation performed for P 3s2 3p3
 
 Converged in 23 iterations to a total energy of -208.0292 eV
 
 Pseudo atomic calculation performed for In 4d10 5s2 5p1
 
 Converged in 42 iterations to a total energy of -1747.4504 eV
 Calculation parallelised over 32 processes.
 Data is distributed by k-point(32-way)

 ************************************ Title ************************************
 

 ***************************** General Parameters ******************************
  
 output verbosity                               : normal  (1)
 write checkpoint data to                       : WZ_EOS_0.7205.check
 type of calculation                            : single point energy
 stress calculation                             : on
 density difference calculation                 : off
 electron localisation func (ELF) calculation   : off
 Hirshfeld analysis                             : off
 molecular orbital projected DOS                : off
 deltaSCF calculation                           : off
 unlimited duration calculation
 timing information                             : on
 memory usage estimate                          : on
 write extra output files                       : on
 write final potential to formatted file        : off
 write final density to formatted file          : off
 write BibTeX reference list                    : on
 write OTFG pseudopotential files               : on
 write electrostatic potential file             : on
 write bands file                               : on
 checkpoint writing                             : off
  
 output         length unit                     : A
 output           mass unit                     : amu
 output           time unit                     : ps
 output         charge unit                     : e
 output           spin unit                     : hbar/2
 output         energy unit                     : eV
 output          force unit                     : eV/A
 output       velocity unit                     : A/ps
 output       pressure unit                     : GPa
 output     inv_length unit                     : 1/A
 output      frequency unit                     : cm-1
 output force constant unit                     : eV/A**2
 output         volume unit                     : A**3
 output   IR intensity unit                     : (D/A)**2/amu
 output         dipole unit                     : D
 output         efield unit                     : eV/A/e
 output        entropy unit                     : J/mol/K
 output    efield chi2 unit                     : pm/V
  
 wavefunctions paging                           : none
 random number generator seed                   : randomised (121715714)
 data distribution                              : optimal for this architecture
 optimization strategy                          : balance speed and memory

 *********************** Exchange-Correlation Parameters ***********************
  
 using functional                               : RSCAN
 relativistic treatment                         : Koelling-Harmon
 DFT+D: Semi-empirical dispersion correction    : off

 ************************* Pseudopotential Parameters **************************
  
 pseudopotential representation                 : reciprocal space
 <beta|phi> representation                      : reciprocal space
 spin-orbit coupling                            : off

 **************************** Basis Set Parameters *****************************
  
 plane wave basis set cut-off                   :   900.0000   eV
 size of standard grid                          :     1.7500
 size of   fine   gmax                          :    26.8966   1/A
 finite basis set correction                    : automatic
 number of sample energies                      :          3
           sample  spacing                      :     5.0000   eV

 **************************** Electronic Parameters ****************************
  
 number of  electrons                           :  36.00    
 net charge of system                           :  0.000    
 treating system as non-spin-polarized
 number of bands                                :         22

 ********************* Electronic Minimization Parameters **********************
  
 Method: Treating system as metallic with density mixing treatment of electrons,
         and number of  SD  steps               :          1
         and number of  CG  steps               :          4
  
 total energy / atom convergence tol.           : 0.1000E-07   eV
 eigen-energy convergence tolerance             : 0.2222E-08   eV
 max force / atom convergence tol.              : ignored
 convergence tolerance window                   :          3   cycles
 max. number of SCF cycles                      :         30
 number of fixed-spin iterations                :         10
 smearing scheme                                : Gaussian
 smearing width                                 : 0.2000       eV
 Fermi energy convergence tolerance             : 0.2721E-13   eV
 periodic dipole correction                     : NONE

 ************************** Density Mixing Parameters **************************
  
 density-mixing scheme                          : Broyden
 max. length of mixing history                  :         20
 charge density mixing amplitude                : 0.8000    
 cut-off energy for mixing                      :  900.0       eV

 *********************** Population Analysis Parameters ************************
  
 Population analysis with cutoff                :  3.000       A
 Population analysis output                     : summary and pdos components

 *******************************************************************************
  
 
                           -------------------------------
                                      Unit Cell
                           -------------------------------
        Real Lattice(A)                      Reciprocal Lattice(1/A)
     3.0006980    -0.0000310     0.0000000        2.093895431  -1.208882217   0.000000000
     1.5003220     2.5986960     0.0000000        0.000024978   2.417807944   0.000000000
     0.0000000     0.0000000     4.9277950        0.000000000   0.000000000   1.275050059
 
                       Lattice parameters(A)       Cell Angles
                    a =      3.000698          alpha =   90.000000
                    b =      3.000698          beta  =   90.000000
                    c =      4.927795          gamma =   60.001184
 
                       Current cell volume =            38.426691       A**3
                                   density =             7.588047   AMU/A**3
                                           =            12.600247     g/cm^3
 
                           -------------------------------
                                     Cell Contents
                           -------------------------------
                         Total number of ions in cell =    4
                      Total number of species in cell =    2
                        Max number of any one species =    2
 
            xxxxxxxxxxxxxxxxxxxxxxxxxxxxxxxxxxxxxxxxxxxxxxxxxxxxxxxxxxxx
            x  Element    Atom        Fractional coordinates of atoms  x
            x            Number           u          v          w      x
            x----------------------------------------------------------x
            x  P            1         0.333329   0.333331  -0.000013   x 
            x  P            2         0.666669   0.666671   0.499987   x 
            x  In           1         0.333331   0.333333   0.374443   x 
            x  In           2         0.666667   0.666669   0.874443   x 
            xxxxxxxxxxxxxxxxxxxxxxxxxxxxxxxxxxxxxxxxxxxxxxxxxxxxxxxxxxxx
 
 
                         No user defined ionic velocities
 
                           -------------------------------
                                   Details of Species
                           -------------------------------
 
                               Mass of species in AMU
                                    P   30.9737600
                                    In  114.8180000
 
                          Electric Quadrupole Moment (Barn)
                                    P    1.0000000 No Isotope Defined
                                    In    0.7700000 Isotope115
 
                          Files used for pseudopotentials:
                                    P 3|1.8|4|4|5|30:31:32
                                    In 3|2.5|2.5|1.5|7|8|9|50:51:42U2.2U2.2
 
                           -------------------------------
                              k-Points For BZ Sampling
                           -------------------------------
                       MP grid size for SCF calculation is 13 13  7
                            with an offset of   0.038  0.038  0.071
                       Number of kpoints used =           592
 
                           -------------------------------
                               Symmetry and Constraints
                           -------------------------------
 
                      Maximum deviation from symmetry =  0.00000         ANG
 
                      Number of symmetry operations   =           1
                      Number of ionic constraints     =           3
                      Point group of crystal =     1: C1, 1, 1
                      Space group of crystal =   186: P6_3mc, P 6c -2c
 
             Set iprint > 1 for details on symmetry rotations/translations
 
                         Centre of mass is constrained
             Set iprint > 1 for details of linear ionic constraints
 
                         Number of cell constraints= 0
                         Cell constraints are:  1 2 3 4 5 6
 
                         External pressure/stress (GPa)
                          0.00000   0.00000   0.00000
                                    0.00000   0.00000
                                              0.00000
  
+---------------- MEMORY AND SCRATCH DISK ESTIMATES PER PROCESS --------------+
|                                                     Memory          Disk    |
| Baseline code, static data and system overhead      394.0 MB         0.0 MB |
| BLAS internal memory storage                          0.0 MB         0.0 MB |
| Model and support data                              207.1 MB       171.3 MB |
| Electronic energy minimisation requirements          43.6 MB         0.0 MB |
| Force calculation requirements                        4.8 MB         0.0 MB |
| Stress calculation requirements                       5.3 MB         0.0 MB |
|                                               ----------------------------- |
| Approx. total storage required per process          644.7 MB       171.3 MB |
|                                                                             |
| Requirements will fluctuate during execution and may exceed these estimates |
+-----------------------------------------------------------------------------+
Calculating finite basis set correction with  3 cut-off energies.
Calculating total energy with cut-off of  890.000 eV.
------------------------------------------------------------------------ <-- SCF
SCF loop      Energy           Fermi           Energy gain       Timer   <-- SCF
                               energy          per atom          (sec)   <-- SCF
------------------------------------------------------------------------ <-- SCF
Initial  -3.13510390E+003  0.00000000E+000                        18.09  <-- SCF
      1  -3.80429809E+003  1.73955647E+001   1.67298547E+002      28.56  <-- SCF
      2  -3.87118089E+003  1.71144621E+001   1.67207007E+001      36.27  <-- SCF
      3  -3.87237223E+003  1.70046496E+001   2.97835173E-001      44.14  <-- SCF
      4  -3.88522701E+003  1.73770433E+001   3.21369519E+000      53.30  <-- SCF
      5  -3.88523228E+003  1.73766929E+001   1.31722830E-003      61.00  <-- SCF
      6  -3.88485008E+003  1.74579707E+001  -9.55491865E-002      70.18  <-- SCF
      7  -3.88387262E+003  1.75818401E+001  -2.44364704E-001      80.04  <-- SCF
      8  -3.88390012E+003  1.76068496E+001   6.87382588E-003      90.16  <-- SCF
      9  -3.88390085E+003  1.76125462E+001   1.83005362E-004      99.59  <-- SCF
     10  -3.88390104E+003  1.76167034E+001   4.79293300E-005     109.27  <-- SCF
     11  -3.88390104E+003  1.76167449E+001   2.71732406E-007     119.01  <-- SCF
     12  -3.88390104E+003  1.76169056E+001   1.15629380E-007     126.85  <-- SCF
     13  -3.88390104E+003  1.76169415E+001   6.98858250E-009     133.28  <-- SCF
     14  -3.88390104E+003  1.76169446E+001   3.66202110E-010     139.48  <-- SCF
------------------------------------------------------------------------ <-- SCF
 
Final energy, E             =  -3883.893254157     eV
Final free energy (E-TS)    =  -3883.901044672     eV
(energies not corrected for finite basis set)
 
NB est. 0K energy (E-0.5TS)      =  -3883.897149414     eV
 
Calculating total energy with cut-off of  895.000 eV.
------------------------------------------------------------------------ <-- SCF
SCF loop      Energy           Fermi           Energy gain       Timer   <-- SCF
                               energy          per atom          (sec)   <-- SCF
------------------------------------------------------------------------ <-- SCF
Initial  -3.88389325E+003  0.00000000E+000                       141.14  <-- SCF
      1  -3.88390106E+003  1.76169458E+001   1.95082904E-003     149.98  <-- SCF
      2  -3.88390106E+003  1.76169458E+001   1.72080189E-011     156.28  <-- SCF
      3  -3.88390106E+003  1.76169453E+001   9.47987826E-010     162.69  <-- SCF
      4  -3.88390106E+003  1.76169455E+001   5.45242845E-011     169.22  <-- SCF
------------------------------------------------------------------------ <-- SCF
 
Final energy, E             =  -3883.893266965     eV
Final free energy (E-TS)    =  -3883.901057477     eV
(energies not corrected for finite basis set)
 
NB est. 0K energy (E-0.5TS)      =  -3883.897162221     eV
 
Calculating total energy with cut-off of  900.000 eV.
------------------------------------------------------------------------ <-- SCF
SCF loop      Energy           Fermi           Energy gain       Timer   <-- SCF
                               energy          per atom          (sec)   <-- SCF
------------------------------------------------------------------------ <-- SCF
Initial  -3.88389327E+003  0.00000000E+000                       170.97  <-- SCF
      1  -3.88390107E+003  1.76169451E+001   1.95045221E-003     179.56  <-- SCF
      2  -3.88390107E+003  1.76169451E+001   1.06341690E-011     185.87  <-- SCF
      3  -3.88390107E+003  1.76169450E+001   8.32945453E-010     191.91  <-- SCF
      4  -3.88390107E+003  1.76169449E+001   4.46635097E-011     198.59  <-- SCF
------------------------------------------------------------------------ <-- SCF
 
Final energy, E             =  -3883.893278266     eV
Final free energy (E-TS)    =  -3883.901068777     eV
(energies not corrected for finite basis set)
 
NB est. 0K energy (E-0.5TS)      =  -3883.897173522     eV
 
 For future reference: finite basis dEtot/dlog(Ecut) =      -0.002157eV
 Total energy corrected for finite basis set =   -3883.901069 eV
 
 ************************** Forces **************************
 *                                                          *
 *               Cartesian components (eV/A)                *
 * -------------------------------------------------------- *
 *                         x            y            z      *
 *                                                          *
 * P               1      0.00183      0.00100      1.29061 *
 * P               2     -0.00183     -0.00100      1.30718 *
 * In              1     -0.00081     -0.00053     -1.29863 *
 * In              2      0.00081      0.00053     -1.29917 *
 *                                                          *
 ************************************************************
 
 ***************** Stress Tensor *****************
 *                                               *
 *          Cartesian components (GPa)           *
 * --------------------------------------------- *
 *             x             y             z     *
 *                                               *
 *  x   -528.863693     -0.082323     -0.000027  *
 *  y     -0.082323   -528.767378     -0.000016  *
 *  z     -0.000027     -0.000016   -545.242783  *
 *                                               *
 *  Pressure:  534.2913                          *
 *                                               *
 *************************************************
 
 Pseudo atomic calculation performed for P 3s2 3p3
 
 Converged in 23 iterations to a total energy of -208.0292 eV
 
 Pseudo atomic calculation performed for In 4d10 5s2 5p1
 
 Converged in 42 iterations to a total energy of -1747.4504 eV
Charge spilling parameter for spin component 1 = 0.79%
 
            Orbital Populations       
     Ion    Atom   Orbital             Charge
  -------------------------------------------
      P     1      S                    1.445
      P     1      Px                   1.406
      P     1      Py                   1.406
      P     1      Pz                   1.432
      P     2      S                    1.445
      P     2      Px                   1.406
      P     2      Py                   1.406
      P     2      Pz                   1.432
     In     1      Dzz                  1.958
     In     1      Dzy                  1.976
     In     1      Dzx                  1.976
     In     1      Dxx-yy               1.966
     In     1      Dxy                  1.966
     In     1      S                    1.665
     In     1      Px                   0.696
     In     1      Py                   0.696
     In     1      Pz                   0.657
     In     1      S                   -1.247
     In     2      Dzz                  1.958
     In     2      Dzy                  1.976
     In     2      Dzx                  1.976
     In     2      Dxx-yy               1.966
     In     2      Dxy                  1.966
     In     2      S                    1.665
     In     2      Px                   0.696
     In     2      Py                   0.696
     In     2      Pz                   0.658
     In     2      S                   -1.247
  -------------------------------------------
                           Total:      35.999
  -------------------------------------------
 
     Atomic Populations (Mulliken)
     -----------------------------
Species          Ion     s      p      d      f     Total  Charge (e)
=====================================================================
  P               1     1.45   4.24   0.00   0.00   5.69    -0.69
  P               2     1.45   4.24   0.00   0.00   5.69    -0.69
  In              1     0.42   2.05   9.84   0.00  12.31     0.69
  In              2     0.42   2.05   9.84   0.00  12.31     0.69
=====================================================================
 
                 Bond                   Population      Length (A)
======================================================================
               P 2 -- In 1                   3.17        1.83961
               P 1 -- In 2                   3.17        1.83961
               P 1 -- In 1                  -1.33        1.84524
               P 2 -- In 2                  -1.33        1.84524
======================================================================
 
 
 A BibTeX formatted list of references used in this run has been written to 
 WZ_EOS_0.7205.bib
 
Initialisation time =     16.02 s
Calculation time    =    193.32 s
Finalisation time   =      0.17 s
Total time          =    209.51 s
Peak Memory Use     = 1160968 kB
  
Overall parallel efficiency rating: Excellent (90%)                             
  
Data was distributed by:-
k-point (32-way); efficiency rating: Excellent (91%)                            
  
Parallel notes:
1) Calculation only took 209.4 s, so efficiency estimates may be inaccurate.    
