 +-------------------------------------------------+
 |                                                 |
 |      CCC   AA    SSS  TTTTT  EEEEE  PPPP        |
 |     C     A  A  S       T    E      P   P       |
 |     C     AAAA   SS     T    EEE    PPPP        |
 |     C     A  A     S    T    E      P           |
 |      CCC  A  A  SSS     T    EEEEE  P           |
 |                                                 |
 +-------------------------------------------------+
 |                                                 |
 | Welcome to Academic Release CASTEP version 24.1 |
 | Ab Initio Total Energy Program                  |
 |                                                 |
 | Authors:                                        |
 | M. Segall, M. Probert, C. Pickard, P. Hasnip,   |
 | S. Clark, K. Refson, J. R. Yates,               |
 | A. Bartok-Partay, M. Payne                      |
 |                                                 |
 | Contributors:                                   |
 | P. Lindan, P. Haynes, J. White, V. Milman,      |
 | N. Govind, M. Gibson, P. Tulip, V. Cocula,      |
 | B. Montanari, D. Quigley, M. Glover,            |
 | L. Bernasconi, A. Perlov, M. Plummer,           |
 | E. McNellis, J. Meyer, J. Gale, D. Jochym       |
 | J. Aarons, B. Walker, R. Gillen, D. Jones       |
 | T. Green, I. J. Bush, C. J. Armstrong,          |
 | E. J. Higgins, E. L. Brown, M. S. McFly,        |
 | J. Wilkins, B-C. Shih, P. J. P. Byrne,          |
 | R. J. Maurer, J. C. Womack, J. Dziedzic,        |
 | L. LeBlanc, T. K. Stenczel, J. Kermode,         |
 | S. Sturniolo, B. Shi, B. Durham, M. Evans,      |
 | M. J. Smith, A. Tamerus, Z. Hawkhead,           |
 | V. Ravindran, T. Hollins, S. A. Joyce,          |
 | R. T. Strong, A. M. Reilly, S. J. Donaldson     |
 |                                                 |
 | Copyright (c) 2000 - 2023                       |
 |                                                 |
 |     Distributed under license from Cambridge    |
 |     Enterprise for academic use only.           |
 |                                                 |
 | Please cite                                     |
 |                                                 |
 |     "First principles methods using CASTEP"     |
 |                                                 |
 |         Zeitschrift fuer Kristallographie       |
 |           220(5-6) pp. 567-570 (2005)           |
 |                                                 |
 | S. J. Clark, M. D. Segall, C. J. Pickard,       |
 | P. J. Hasnip, M. J. Probert, K. Refson,         |
 | M. C. Payne                                     |
 |                                                 |
 |       in all publications arising from          |
 |              your use of CASTEP                 |
 |                                                 |
 +-------------------------------------------------+
 |                                                 |
 |              http://www.castep.org              |
 |                                                 |
 +-------------------------------------------------+



 Compiled for  GNU 11.2.0 on 04-04-2024 18:39:17
 from code version 6355fd106 Castep241_branch Thu Mar 7 17:56:19 2024 +0000
 Compiler: GNU Fortran 11.2.0; Optimisation: FAST
 Comms   : MPI VERSION : CRAY MPICH version 8.1.23.14 (ANL base 3.4a2)
 MATHLIBS: default (LAPACK version 3.10.1)
 FFT Lib : fftw3 version commercial-fftw-3.3.10-sse2-avx-avx2-avx2_128
 Fundamental constants values: CODATA 2018

 Run started: Tue, 29 Apr 2025 13:52:50 +0100

 Atomic calculation performed for P: 1s2 2s2 2p6 3s2 3p3

 Converged in 47 iterations to an ae energy of -9309.074 eV

   ============================================================                
   | Pseudopotential Report - Date of generation 29-04-2025   |                
   ------------------------------------------------------------                
   | Element: P Ionic charge:  5.00 Level of theory: RSCAN    |                
   | Atomic Solver: Koelling-Harmon                           |                
   |                                                          |                
   |               Reference Electronic Structure             |                
   |         Orbital         Occupation         Energy        |                
   |            3s              2.000           -0.535        |                
   |            3p              3.000           -0.209        |                
   |                                                          |                
   |                 Pseudopotential Definition               |                
   |        Beta     l      e      Rc     scheme   norm       |                
   |          1      0   -0.535   1.807     qc      0         |                
   |          2      0    0.250   1.807     qc      0         |                
   |          3      1   -0.209   1.807     qc      0         |                
   |          4      1    0.250   1.807     qc      0         |                
   |          5      2    0.000   1.807     qc      0         |                
   |          6      2    0.250   1.807     qc      0         |                
   |         loc     3    0.000   1.807     pn      0         |                
   |                                                          |                
   | Augmentation charge Rinner = 1.263                       |                
   | Partial core correction Rc = 1.263                       |                
   ------------------------------------------------------------                
   | "3|1.8|4|4|5|30:31:32"                                   |                
   ------------------------------------------------------------                
   |      Author: Chris J. Pickard, Cambridge University      |                
   ============================================================                
 Warning: otfg_output_psp cannot write out meta-GGA pseudopotentials presently.

 Atomic calculation performed for In:
 1s2 2s2 2p6 3s2 3p6 3d10 4s2 4p6 4d10 5s2 5p1

 Converged in 84 iterations to an ae energy of -160093.328 eV

   ============================================================                
   | Pseudopotential Report - Date of generation 29-04-2025   |                
   ------------------------------------------------------------                
   | Element: In Ionic charge: 13.00 Level of theory: RSCAN   |                
   | Atomic Solver: Koelling-Harmon                           |                
   |                                                          |                
   |               Reference Electronic Structure             |                
   |         Orbital         Occupation         Energy        |                
   |            4d             10.000           -0.711        |                
   |            5s              2.000           -0.313        |                
   |            5p              1.000           -0.095        |                
   |                                                          |                
   |                 Pseudopotential Definition               |                
   |        Beta     l      e      Rc     scheme   norm       |                
   |          1      0   -0.313   2.501     qc      0         |                
   |          2      0    0.250   2.501     qc      0         |                
   |          3      1   -0.095   2.501     qc      0         |                
   |          4      1    0.250   2.501     qc      0         |                
   |          5      2   -0.711   2.207     qc      0         |                
   |          6      2    0.250   2.207     qc      0         |                
   |         loc     3    0.000   2.501     pn      0         |                
   |                                                          |                
   | Augmentation charge Rinner = 1.504                       |                
   | Partial core correction Rc = 1.504                       |                
   ------------------------------------------------------------                
   | "3|2.5|2.5|1.5|7|8|9|50:51:42U2.2U2.2"                   |                
   ------------------------------------------------------------                
   |      Author: Chris J. Pickard, Cambridge University      |                
   ============================================================                
 Warning: otfg_output_psp cannot write out meta-GGA pseudopotentials presently.

 Pseudo atomic calculation performed for P 3s2 3p3

 Converged in 23 iterations to a total energy of -208.0292 eV

 Pseudo atomic calculation performed for In 4d10 5s2 5p1

 Converged in 42 iterations to a total energy of -1747.4501 eV
 Calculation parallelised over 108 processes.
 Data is distributed by G-vector(3-way) and k-point(36-way)
 Each process may use up to 16 threads.

 ************************************ Title ************************************
 

 ***************************** General Parameters ******************************
  
 output verbosity                               : normal  (1)
 write checkpoint data to                       : P_Interstitial_Migration_Dumbbell#_Dumbbell+_Singlepoints_2.check
 type of calculation                            : single point energy
 stress calculation                             : off
 density difference calculation                 : off
 electron localisation func (ELF) calculation   : off
 Hirshfeld analysis                             : on
 polarisation (Berry phase) analysis            : off
 molecular orbital projected DOS                : off
 deltaSCF calculation                           : off
 unlimited duration calculation
 timing information                             : on
 memory usage estimate                          : on
 write extra output files                       : on
 write final potential to formatted file        : off
 write final density to formatted file          : off
 write BibTeX reference list                    : on
 write OTFG pseudopotential files               : on
 write electrostatic potential file             : on
 write bands file                               : on
 checkpoint writing                             : off
  
 output         length unit                     : A
 output           mass unit                     : amu
 output           time unit                     : ps
 output         charge unit                     : e
 output           spin unit                     : hbar/2
 output         energy unit                     : eV
 output          force unit                     : eV/A
 output       velocity unit                     : A/ps
 output       pressure unit                     : GPa
 output     inv_length unit                     : 1/A
 output      frequency unit                     : cm-1
 output force constant unit                     : eV/A**2
 output         volume unit                     : A**3
 output   IR intensity unit                     : (D/A)**2/amu
 output         dipole unit                     : D
 output         efield unit                     : eV/A/e
 output        entropy unit                     : J/mol/K
 output    efield chi2 unit                     : pm/V
  
 wavefunctions paging                           : none
 random number generator seed                   :  135250498
 data distribution                              : optimal for this architecture
 optimization strategy                          : balance speed and memory

 *********************** Exchange-Correlation Parameters ***********************
  
 using functional                               : RSCAN
 relativistic treatment                         : Koelling-Harmon
 DFT+D: Semi-empirical dispersion correction    : off

 ************************* Pseudopotential Parameters **************************
  
 pseudopotential representation                 : reciprocal space
 <beta|phi> representation                      : reciprocal space
 spin-orbit coupling                            : off

 **************************** Basis Set Parameters *****************************
  
 plane wave basis set cut-off                   :   900.0000   eV
 size of standard grid                          :     2.0000
 size of   fine   gmax                          :    30.7390   1/A
 finite basis set correction                    : none

 **************************** Electronic Parameters ****************************
  
 number of  electrons                           :  581.0    
 net charge of system                           :  0.000    
 net spin   of system                           :  1.000    
 number of  up  spins                           :  291.0    
 number of down spins                           :  290.0    
 treating system as spin-polarized
 number of bands                                :        349

 ********************* Electronic Minimization Parameters **********************
  
 Method: Treating system as metallic with density mixing treatment of electrons,
         and number of  SD  steps               :          1
         and number of  CG  steps               :          4
  
 total energy / atom convergence tol.           : 0.1000E-07   eV
 eigen-energy convergence tolerance             : 0.2234E-08   eV
 max force / atom convergence tol.              : ignored
 convergence tolerance window                   :          3   cycles
 max. number of SCF cycles                      :        100
 number of fixed-spin iterations                :         10
 smearing scheme                                : Gaussian
 smearing width                                 : 0.2000       eV
 Fermi energy convergence tolerance             : 0.2721E-13   eV
 periodic dipole correction                     : NONE

 ************************** Density Mixing Parameters **************************
  
 density-mixing scheme                          : Pulay
 max. length of mixing history                  :         20
 charge density mixing amplitude                : 0.5000    
   spin density mixing amplitude                :  2.000    
 cut-off energy for mixing                      :  900.0       eV

 *********************** Population Analysis Parameters ************************
  
 Population analysis with cutoff                :  3.000       A
 Population analysis output                     : summary and pdos components

 *******************************************************************************
  

                           -------------------------------
                                      Unit Cell
                           -------------------------------
        Real Lattice(A)                      Reciprocal Lattice(1/A)
    11.8016820    -0.0000080    -0.0000080        0.532397442   0.000000361   0.000000361
    -0.0000080    11.8016820    -0.0000080        0.000000361   0.532397442   0.000000361
    -0.0000080    -0.0000080    11.8016820        0.000000361   0.000000361   0.532397442

                       Lattice parameters(A)       Cell Angles
                    a =     11.801682          alpha =   90.000078
                    b =     11.801682          beta  =   90.000078
                    c =     11.801682          gamma =   90.000078

                       Current cell volume =          1643.734705       A**3
                                   density =             2.857097   AMU/A**3
                                           =             4.744322     g/cm^3

                           -------------------------------
                                     Cell Contents
                           -------------------------------
                         Total number of ions in cell =   65
                      Total number of species in cell =    2
                        Max number of any one species =   33

            xxxxxxxxxxxxxxxxxxxxxxxxxxxxxxxxxxxxxxxxxxxxxxxxxxxxxxxxxxxx
            x  Element    Atom        Fractional coordinates of atoms  x
            x            Number           u          v          w      x
            x----------------------------------------------------------x
            x  P            1         0.123317   0.117854   0.370006   x 
            x  P            2         0.376204   0.103173   0.103075   x 
            x  P            3         0.123317   0.370104   0.117755   x 
            x  P            4         0.337462   0.403648   0.403549   x 
            x  P            5         0.122217   0.119116   0.868976   x 
            x  P            6         0.373238   0.120253   0.619559   x 
            x  P            7         0.116688   0.372749   0.626629   x 
            x  P            8         0.373144   0.369036   0.869224   x 
            x  P            9         0.116688   0.626727   0.372651   x 
            x  P           10         0.373238   0.619658   0.120154   x 
            x  P           11         0.122217   0.869075   0.119018   x 
            x  P           12         0.373144   0.869323   0.368937   x 
            x  P           13         0.122539   0.620414   0.870028   x 
            x  P           14         0.374468   0.619381   0.619283   x 
            x  P           15         0.122539   0.870127   0.620315   x 
            x  P           16         0.372409   0.866858   0.866759   x 
            x  P           17         0.635688   0.112868   0.372810   x 
            x  P           18         0.876230   0.119851   0.119753   x 
            x  P           19         0.635688   0.372909   0.112770   x 
            x  P           20         0.876144   0.369960   0.369862   x 
            x  P           21         0.625469   0.119416   0.867271   x 
            x  P           22         0.874629   0.117715   0.620535   x 
            x  P           23         0.625646   0.368175   0.620313   x 
            x  P           24         0.872941   0.371199   0.867699   x 
            x  P           25         0.625646   0.620412   0.368076   x 
            x  P           26         0.874629   0.620633   0.117617   x 
            x  P           27         0.625469   0.867369   0.119317   x 
            x  P           28         0.872941   0.867797   0.371100   x 
            x  P           29         0.620304   0.618931   0.870166   x 
            x  P           30         0.871243   0.621134   0.621035   x 
            x  P           31         0.620304   0.870264   0.618832   x 
            x  P           32         0.872137   0.869308   0.869210   x 
            x  P           33         0.339533   0.275710   0.275612   x 
            x  In           1        -0.001710  -0.006274  -0.006372   x 
            x  In           2         0.249810  -0.006080   0.242101   x 
            x  In           3         0.002017   0.245301   0.245202   x 
            x  In           4         0.249810   0.242199  -0.006178   x 
            x  In           5        -0.002129  -0.006299   0.493208   x 
            x  In           6         0.248088  -0.005561   0.744697   x 
            x  In           7        -0.004280   0.243738   0.746841   x 
            x  In           8         0.236139   0.241915   0.506685   x 
            x  In           9        -0.002129   0.493307  -0.006398   x 
            x  In          10         0.236139   0.506783   0.241816   x 
            x  In          11        -0.004280   0.746939   0.243639   x 
            x  In          12         0.248088   0.744795  -0.005659   x 
            x  In          13        -0.003520   0.496858   0.496760   x 
            x  In          14         0.248614   0.497108   0.745829   x 
            x  In          15        -0.001976   0.745025   0.744927   x 
            x  In          16         0.248614   0.745928   0.497010   x 
            x  In          17         0.504741  -0.014142  -0.014240   x 
            x  In          18         0.754370  -0.009970   0.241784   x 
            x  In          19         0.531556   0.224708   0.224610   x 
            x  In          20         0.754370   0.241883  -0.010068   x 
            x  In          21         0.496691  -0.003940   0.491967   x 
            x  In          22         0.747718  -0.006963   0.742717   x 
            x  In          23         0.498347   0.244745   0.744283   x 
            x  In          24         0.753803   0.245899   0.496893   x 
            x  In          25         0.496691   0.492065  -0.004039   x 
            x  In          26         0.753803   0.496992   0.245801   x 
            x  In          27         0.498347   0.744381   0.244646   x 
            x  In          28         0.747718   0.742815  -0.007062   x 
            x  In          29         0.505602   0.496610   0.496512   x 
            x  In          30         0.746917   0.496286   0.745548   x 
            x  In          31         0.496436   0.743574   0.743475   x 
            x  In          32         0.746917   0.745647   0.496188   x 
            xxxxxxxxxxxxxxxxxxxxxxxxxxxxxxxxxxxxxxxxxxxxxxxxxxxxxxxxxxxx


                         No user defined ionic velocities

                           -------------------------------
                                   Details of Species
                           -------------------------------

                               Mass of species in AMU
                                    P   30.9737600
                                    In  114.8180000

                          Electric Quadrupole Moment (Barn)
                                    P    1.0000000 No Isotope Defined
                                    In    0.7700000 Isotope115

                          Files used for pseudopotentials:
                                    P 3|1.8|4|4|5|30:31:32
                                    In 3|2.5|2.5|1.5|7|8|9|50:51:42U2.2U2.2

                           -------------------------------
                              k-Points For BZ Sampling
                           -------------------------------
                       MP grid size for SCF calculation is  4  4  4
                            with an offset of   0.125  0.125  0.125
                       Number of kpoints used =            36

                           -------------------------------
                               Symmetry and Constraints
                           -------------------------------

                      Maximum deviation from symmetry =  0.00000         ANG

                      Number of symmetry operations   =           1
                      Number of ionic constraints     =           3
                      Point group of crystal =     1: C1, 1, 1
                      Space group of crystal =     8: Cm, C -2y

             Set iprint > 1 for details on symmetry rotations/translations

                         Centre of mass is constrained
             Set iprint > 1 for details of linear ionic constraints

                         Number of cell constraints= 0
                         Cell constraints are:  1 2 3 4 5 6

                         External pressure/stress (GPa)
                          0.00000   0.00000   0.00000
                                    0.00000   0.00000
                                              0.00000
 
+---------------- MEMORY AND SCRATCH DISK ESTIMATES PER PROCESS --------------+
|                                                     Memory          Disk    |
| Baseline code, static data and system overhead      368.0 MB         0.0 MB |
| BLAS internal memory storage                          0.0 MB         0.0 MB |
| Model and support data                             4327.0 MB         0.0 MB |
| Electronic energy minimisation requirements        1337.1 MB         0.0 MB |
| Force calculation requirements                      127.4 MB         0.0 MB |
|                                               ----------------------------- |
| Approx. total storage required per process         6032.2 MB         0.0 MB |
|                                                                             |
| Requirements will fluctuate during execution and may exceed these estimates |
+-----------------------------------------------------------------------------+
Calculating approximate eigenstates for fixed initial Hamiltonian
Cut-off for approx. calculation is   89.988 eV
Improving approx. states at cut-off of  450.000 eV
Resetting cut-off to  900.000 eV
Calculating total energy with cut-off of  900.000 eV.
------------------------------------------------------------------------ <-- SCF
SCF loop      Energy           Fermi           Energy gain       Timer   <-- SCF
                               energy          per atom          (sec)   <-- SCF
------------------------------------------------------------------------ <-- SCF
Initial  -6.32542290E+004  0.00000000E+000                       449.28  <-- SCF
      1  -6.30178529E+004  2.85118519E+000  -3.63655497E+000     900.28  <-- SCF
      2  -6.30181326E+004  2.85090370E+000   4.30271905E-003    1211.86  <-- SCF
      3  -6.30840693E+004  3.15184743E+000   1.01440996E+000    1557.97  <-- SCF
      4  -6.30956327E+004  3.23512000E+000   1.77899526E-001    2058.87  <-- SCF
      5  -6.31015049E+004  3.41010224E+000   9.03414372E-002    2426.54  <-- SCF
      6  -6.30901890E+004  3.60402929E+000  -1.74091226E-001    2770.99  <-- SCF
      7  -6.30888573E+004  3.65483573E+000  -2.04879523E-002    3132.12  <-- SCF
      8  -6.30890087E+004  3.69676435E+000   2.32910137E-003    3496.07  <-- SCF
      9  -6.30898274E+004  3.72050949E+000   1.25950087E-002    3846.15  <-- SCF
     10  -6.30900980E+004  3.70624550E+000   4.16390937E-003    4209.25  <-- SCF
     11  -6.30901052E+004  3.69881796E+000   1.10311950E-004    4567.27  <-- SCF
     12  -6.30901079E+004  3.69270011E+000   4.23936189E-005    4922.15  <-- SCF
     13  -6.30901092E+004  3.69228370E+000   1.90919798E-005    5286.91  <-- SCF
     14  -6.30901094E+004  3.69146324E+000   4.19962979E-006    5647.46  <-- SCF
     15  -6.30901095E+004  3.69076677E+000   1.10874713E-006    5999.82  <-- SCF
     16  -6.30901095E+004  3.69074030E+000   3.17897820E-007    6312.81  <-- SCF
     17  -6.30901095E+004  3.69061762E+000   8.20869564E-008    6600.39  <-- SCF
     18  -6.30901095E+004  3.69067932E+000   3.03553144E-008    6848.15  <-- SCF
     19  -6.30901095E+004  3.69074102E+000   1.00035792E-008    7103.80  <-- SCF
     20  -6.30901095E+004  3.69075405E+000   2.98525368E-009    7348.03  <-- SCF
     21  -6.30901095E+004  3.69075722E+000   8.07185486E-010    7591.47  <-- SCF
------------------------------------------------------------------------ <-- SCF
 
Integrated Spin Density     =    0.999505     hbar/2
Integrated |Spin Density|   =     1.20612     hbar/2
 
Final energy, E             =  -63090.10792436     eV
Final free energy (E-TS)    =  -63090.10954996     eV
(energies not corrected for finite basis set)
 
NB est. 0K energy (E-0.5TS)      =  -63090.10873716     eV
 

 ************************** Forces **************************
 *                                                          *
 *               Cartesian components (eV/A)                *
 * -------------------------------------------------------- *
 *                         x            y            z      *
 *                                                          *
 * P               1      0.00691     -0.07467      0.02097 *
 * P               2      0.27386      0.15059      0.15079 *
 * P               3      0.00689      0.02074     -0.07502 *
 * P               4      0.04416      0.11206      0.11232 *
 * P               5      0.01669      0.03336      0.00547 *
 * P               6      0.00782      0.00277     -0.02550 *
 * P               7     -0.05828     -0.02410      0.09806 *
 * P               8     -0.03368      0.02253     -0.01214 *
 * P               9     -0.05828      0.09832     -0.02421 *
 * P              10      0.00782     -0.02568      0.00311 *
 * P              11      0.01670      0.00545      0.03341 *
 * P              12     -0.03369     -0.01229      0.02260 *
 * P              13      0.00294     -0.01817      0.02325 *
 * P              14     -0.01056     -0.01758     -0.01741 *
 * P              15      0.00294      0.02292     -0.01778 *
 * P              16      0.00947     -0.13049     -0.13091 *
 * P              17     -0.09736      0.05642     -0.06939 *
 * P              18      0.03088     -0.01201     -0.01176 *
 * P              19     -0.09736     -0.06929      0.05677 *
 * P              20      0.01227      0.01784      0.01812 *
 * P              21      0.00155     -0.02070     -0.03483 *
 * P              22      0.01546      0.01089     -0.02276 *
 * P              23     -0.00839      0.01471     -0.04217 *
 * P              24      0.00589     -0.03013     -0.00093 *
 * P              25     -0.00836     -0.04240      0.01446 *
 * P              26      0.01548     -0.02296      0.01054 *
 * P              27      0.00151     -0.03447     -0.02062 *
 * P              28      0.00584     -0.00051     -0.02989 *
 * P              29      0.01342      0.01609     -0.00600 *
 * P              30     -0.00151      0.00120      0.00163 *
 * P              31      0.01341     -0.00635      0.01603 *
 * P              32     -0.00167     -0.00005      0.00005 *
 * P              33      0.03946      0.21673      0.21688 *
 * In              1      0.02832     -0.01249     -0.01256 *
 * In              2      0.10408      0.08819     -0.09571 *
 * In              3     -0.07540     -0.02333     -0.02340 *
 * In              4      0.10407     -0.09563      0.08811 *
 * In              5     -0.01208     -0.01595      0.03108 *
 * In              6     -0.00687     -0.00773      0.04020 *
 * In              7     -0.00646      0.01186      0.02309 *
 * In              8     -0.11537     -0.02041      0.10958 *
 * In              9     -0.01207      0.03116     -0.01602 *
 * In             10     -0.11537      0.10965     -0.02049 *
 * In             11     -0.00646      0.02316      0.01178 *
 * In             12     -0.00687      0.04027     -0.00780 *
 * In             13      0.04690     -0.03136     -0.03143 *
 * In             14      0.02252     -0.07583     -0.03706 *
 * In             15     -0.00489      0.01873      0.01866 *
 * In             16      0.02252     -0.03700     -0.07590 *
 * In             17     -0.10435     -0.06567     -0.06574 *
 * In             18     -0.01508      0.01810      0.07345 *
 * In             19     -0.18235     -0.22570     -0.22579 *
 * In             20     -0.01508      0.07353      0.01802 *
 * In             21      0.07060     -0.00568     -0.02457 *
 * In             22      0.02776      0.01310     -0.02440 *
 * In             23      0.02472     -0.00567      0.05097 *
 * In             24     -0.02177     -0.08580     -0.06022 *
 * In             25      0.07060     -0.02449     -0.00576 *
 * In             26     -0.02177     -0.06016     -0.08587 *
 * In             27      0.02472      0.05104     -0.00574 *
 * In             28      0.02776     -0.02432      0.01301 *
 * In             29      0.00735      0.08152      0.08147 *
 * In             30     -0.00720     -0.02938      0.02228 *
 * In             31      0.01248      0.00316      0.00308 *
 * In             32     -0.00720      0.02235     -0.02945 *
 *                                                          *
 ************************************************************

 Pseudo atomic calculation performed for P 3s2 3p3

 Converged in 23 iterations to a total energy of -208.0292 eV

 Pseudo atomic calculation performed for In 4d10 5s2 5p1

 Converged in 42 iterations to a total energy of -1747.4501 eV
Charge spilling parameter for spin component 1 = 0.18%
Charge spilling parameter for spin component 2 = 0.18%

                   Orbital Populations                  
  ---------------------------------------------------------------
     Ion    Atom   Orbital              Up        Down      Spin
  ---------------------------------------------------------------
      P     1      S                    0.872     0.868     0.005
      P     1      Px                   0.656     0.644     0.012
      P     1      Py                   0.651     0.650     0.001
      P     1      Pz                   0.648     0.647     0.001
      P     2      S                    0.872     0.871     0.001
      P     2      Px                   0.642     0.642    -0.000
      P     2      Py                   0.662     0.652     0.010
      P     2      Pz                   0.662     0.652     0.010
      P     3      S                    0.872     0.868     0.005
      P     3      Px                   0.656     0.644     0.012
      P     3      Py                   0.648     0.647     0.001
      P     3      Pz                   0.651     0.650     0.001
      P     4      S                    0.864     0.861     0.003
      P     4      Px                   0.695     0.694     0.001
      P     4      Py                   0.631     0.566     0.065
      P     4      Pz                   0.631     0.566     0.065
      P     5      S                    0.867     0.867     0.001
      P     5      Px                   0.656     0.655     0.001
      P     5      Py                   0.658     0.657     0.001
      P     5      Pz                   0.657     0.656     0.001
      P     6      S                    0.868     0.868    -0.000
      P     6      Px                   0.654     0.653     0.000
      P     6      Py                   0.658     0.657     0.001
      P     6      Pz                   0.658     0.658    -0.000
      P     7      S                    0.869     0.865     0.004
      P     7      Px                   0.663     0.651     0.012
      P     7      Py                   0.655     0.647     0.008
      P     7      Pz                   0.663     0.652     0.011
      P     8      S                    0.867     0.867    -0.000
      P     8      Px                   0.658     0.658     0.000
      P     8      Py                   0.657     0.657    -0.000
      P     8      Pz                   0.656     0.656    -0.000
      P     9      S                    0.869     0.865     0.004
      P     9      Px                   0.663     0.651     0.012
      P     9      Py                   0.663     0.652     0.011
      P     9      Pz                   0.655     0.647     0.008
      P    10      S                    0.868     0.868    -0.000
      P    10      Px                   0.654     0.653     0.000
      P    10      Py                   0.658     0.658    -0.000
      P    10      Pz                   0.658     0.657     0.001
      P    11      S                    0.867     0.867     0.001
      P    11      Px                   0.656     0.655     0.001
      P    11      Py                   0.657     0.656     0.001
      P    11      Pz                   0.658     0.657     0.001
      P    12      S                    0.867     0.867    -0.000
      P    12      Px                   0.658     0.658     0.000
      P    12      Py                   0.656     0.656    -0.000
      P    12      Pz                   0.657     0.657    -0.000
      P    13      S                    0.867     0.867    -0.000
      P    13      Px                   0.656     0.656    -0.000
      P    13      Py                   0.657     0.657    -0.000
      P    13      Pz                   0.657     0.657    -0.000
      P    14      S                    0.866     0.866    -0.000
      P    14      Px                   0.653     0.653    -0.000
      P    14      Py                   0.657     0.658    -0.000
      P    14      Pz                   0.657     0.658    -0.000
      P    15      S                    0.867     0.867    -0.000
      P    15      Px                   0.656     0.656    -0.000
      P    15      Py                   0.657     0.657    -0.000
      P    15      Pz                   0.657     0.657    -0.000
      P    16      S                    0.865     0.865    -0.000
      P    16      Px                   0.653     0.654    -0.000
      P    16      Py                   0.659     0.660    -0.001
      P    16      Pz                   0.660     0.660    -0.001
      P    17      S                    0.868     0.866     0.002
      P    17      Px                   0.668     0.660     0.009
      P    17      Py                   0.664     0.661     0.003
      P    17      Pz                   0.645     0.641     0.003
      P    18      S                    0.867     0.867    -0.000
      P    18      Px                   0.658     0.658    -0.000
      P    18      Py                   0.656     0.656    -0.000
      P    18      Pz                   0.656     0.656    -0.000
      P    19      S                    0.868     0.866     0.002
      P    19      Px                   0.668     0.660     0.009
      P    19      Py                   0.645     0.641     0.003
      P    19      Pz                   0.664     0.661     0.003
      P    20      S                    0.866     0.866    -0.000
      P    20      Px                   0.658     0.659    -0.000
      P    20      Py                   0.657     0.657    -0.000
      P    20      Pz                   0.657     0.657    -0.000
      P    21      S                    0.866     0.866     0.000
      P    21      Px                   0.658     0.658     0.000
      P    21      Py                   0.654     0.654     0.000
      P    21      Pz                   0.659     0.659     0.000
      P    22      S                    0.866     0.866     0.000
      P    22      Px                   0.659     0.658     0.000
      P    22      Py                   0.656     0.656     0.000
      P    22      Pz                   0.658     0.657     0.001
      P    23      S                    0.868     0.867     0.001
      P    23      Px                   0.659     0.657     0.002
      P    23      Py                   0.656     0.655     0.001
      P    23      Pz                   0.657     0.656     0.001
      P    24      S                    0.864     0.864     0.000
      P    24      Px                   0.661     0.659     0.002
      P    24      Py                   0.655     0.654     0.001
      P    24      Pz                   0.662     0.660     0.002
      P    25      S                    0.868     0.867     0.001
      P    25      Px                   0.659     0.657     0.002
      P    25      Py                   0.657     0.656     0.001
      P    25      Pz                   0.656     0.655     0.001
      P    26      S                    0.866     0.866     0.000
      P    26      Px                   0.659     0.658     0.001
      P    26      Py                   0.658     0.657     0.001
      P    26      Pz                   0.656     0.656     0.001
      P    27      S                    0.866     0.866     0.000
      P    27      Px                   0.658     0.658     0.000
      P    27      Py                   0.659     0.659     0.000
      P    27      Pz                   0.654     0.654     0.000
      P    28      S                    0.864     0.864     0.000
      P    28      Px                   0.661     0.659     0.002
      P    28      Py                   0.662     0.660     0.002
      P    28      Pz                   0.655     0.654     0.001
      P    29      S                    0.867     0.867     0.000
      P    29      Px                   0.657     0.657     0.000
      P    29      Py                   0.657     0.657     0.000
      P    29      Pz                   0.656     0.656     0.000
      P    30      S                    0.866     0.866    -0.000
      P    30      Px                   0.656     0.656    -0.000
      P    30      Py                   0.658     0.658    -0.000
      P    30      Pz                   0.658     0.658    -0.000
      P    31      S                    0.867     0.867     0.000
      P    31      Px                   0.657     0.657     0.000
      P    31      Py                   0.656     0.656     0.000
      P    31      Pz                   0.657     0.657     0.000
      P    32      S                    0.867     0.867    -0.000
      P    32      Px                   0.656     0.656    -0.000
      P    32      Py                   0.657     0.657    -0.000
      P    32      Pz                   0.657     0.657    -0.000
      P    33      S                    0.925     0.910     0.015
      P    33      Px                   0.713     0.698     0.015
      P    33      Py                   0.691     0.367     0.323
      P    33      Pz                   0.691     0.367     0.323
     In     1      Dzz                  1.000     1.000    -0.000
     In     1      Dzy                  0.998     0.998     0.000
     In     1      Dzx                  0.998     0.998    -0.000
     In     1      Dxx-yy               1.000     1.000    -0.000
     In     1      Dxy                  0.998     0.998     0.000
     In     1      S                    0.705     0.705    -0.000
     In     1      Px                   0.241     0.241    -0.000
     In     1      Py                   0.242     0.241     0.000
     In     1      Pz                   0.242     0.241     0.000
     In     1      S                   -0.265    -0.265    -0.001
     In     2      Dzz                  1.000     1.000     0.000
     In     2      Dzy                  0.999     0.999     0.000
     In     2      Dzx                  0.999     0.998     0.000
     In     2      Dxx-yy               1.000     1.000     0.000
     In     2      Dxy                  0.999     0.999     0.000
     In     2      S                    0.702     0.702    -0.000
     In     2      Px                   0.239     0.240    -0.001
     In     2      Py                   0.228     0.230    -0.002
     In     2      Pz                   0.244     0.242     0.002
     In     2      S                   -0.252    -0.255     0.003
     In     3      Dzz                  1.000     1.000    -0.000
     In     3      Dzy                  0.998     0.998    -0.000
     In     3      Dzx                  0.998     0.998     0.000
     In     3      Dxx-yy               1.000     1.000     0.000
     In     3      Dxy                  0.998     0.998    -0.000
     In     3      S                    0.705     0.706    -0.001
     In     3      Px                   0.234     0.234    -0.000
     In     3      Py                   0.242     0.240     0.002
     In     3      Pz                   0.242     0.240     0.002
     In     3      S                   -0.252    -0.261     0.009
     In     4      Dzz                  1.000     1.000     0.000
     In     4      Dzy                  0.999     0.999     0.000
     In     4      Dzx                  0.999     0.999     0.000
     In     4      Dxx-yy               1.000     1.000    -0.000
     In     4      Dxy                  0.999     0.998     0.000
     In     4      S                    0.702     0.702    -0.000
     In     4      Px                   0.239     0.240    -0.001
     In     4      Py                   0.244     0.242     0.002
     In     4      Pz                   0.228     0.230    -0.002
     In     4      S                   -0.252    -0.255     0.003
     In     5      Dzz                  1.000     1.000    -0.000
     In     5      Dzy                  0.998     0.998     0.000
     In     5      Dzx                  0.998     0.998    -0.000
     In     5      Dxx-yy               1.000     1.000    -0.000
     In     5      Dxy                  0.998     0.998    -0.000
     In     5      S                    0.717     0.715     0.002
     In     5      Px                   0.240     0.240     0.000
     In     5      Py                   0.244     0.241     0.003
     In     5      Pz                   0.247     0.243     0.004
     In     5      S                   -0.268    -0.269     0.001
     In     6      Dzz                  1.000     1.000    -0.000
     In     6      Dzy                  0.998     0.998    -0.000
     In     6      Dzx                  0.998     0.998     0.000
     In     6      Dxx-yy               1.000     1.000    -0.000
     In     6      Dxy                  0.998     0.998    -0.000
     In     6      S                    0.707     0.707     0.000
     In     6      Px                   0.242     0.242    -0.000
     In     6      Py                   0.240     0.241    -0.000
     In     6      Pz                   0.239     0.238     0.000
     In     6      S                   -0.266    -0.266     0.000
     In     7      Dzz                  0.999     0.999     0.000
     In     7      Dzy                  0.998     0.998     0.000
     In     7      Dzx                  0.998     0.998     0.000
     In     7      Dxx-yy               1.000     0.999     0.000
     In     7      Dxy                  0.998     0.998     0.000
     In     7      S                    0.713     0.713     0.000
     In     7      Px                   0.241     0.241    -0.000
     In     7      Py                   0.253     0.250     0.003
     In     7      Pz                   0.240     0.240     0.000
     In     7      S                   -0.266    -0.266    -0.000
     In     8      Dzz                  1.000     0.999     0.000
     In     8      Dzy                  0.998     0.998     0.000
     In     8      Dzx                  0.999     0.999     0.000
     In     8      Dxx-yy               1.000     0.999     0.000
     In     8      Dxy                  0.999     0.998     0.001
     In     8      S                    0.696     0.698    -0.003
     In     8      Px                   0.234     0.237    -0.003
     In     8      Py                   0.254     0.245     0.008
     In     8      Pz                   0.221     0.233    -0.012
     In     8      S                   -0.263    -0.260    -0.003
     In     9      Dzz                  1.000     1.000    -0.000
     In     9      Dzy                  0.998     0.998     0.000
     In     9      Dzx                  0.998     0.998    -0.000
     In     9      Dxx-yy               1.000     1.000     0.000
     In     9      Dxy                  0.998     0.998    -0.000
     In     9      S                    0.717     0.715     0.002
     In     9      Px                   0.240     0.240     0.000
     In     9      Py                   0.247     0.243     0.004
     In     9      Pz                   0.244     0.241     0.003
     In     9      S                   -0.268    -0.269     0.001
     In    10      Dzz                  1.000     0.999     0.000
     In    10      Dzy                  0.998     0.998     0.000
     In    10      Dzx                  0.999     0.998     0.001
     In    10      Dxx-yy               1.000     1.000     0.000
     In    10      Dxy                  0.999     0.999     0.000
     In    10      S                    0.696     0.698    -0.003
     In    10      Px                   0.234     0.237    -0.003
     In    10      Py                   0.221     0.233    -0.012
     In    10      Pz                   0.254     0.245     0.008
     In    10      S                   -0.263    -0.260    -0.003
     In    11      Dzz                  1.000     0.999     0.000
     In    11      Dzy                  0.998     0.998     0.000
     In    11      Dzx                  0.998     0.998     0.000
     In    11      Dxx-yy               0.999     0.999     0.000
     In    11      Dxy                  0.998     0.998     0.000
     In    11      S                    0.713     0.713     0.000
     In    11      Px                   0.241     0.241    -0.000
     In    11      Py                   0.240     0.240     0.000
     In    11      Pz                   0.253     0.250     0.003
     In    11      S                   -0.266    -0.266    -0.000
     In    12      Dzz                  1.000     1.000    -0.000
     In    12      Dzy                  0.998     0.998     0.000
     In    12      Dzx                  0.998     0.998    -0.000
     In    12      Dxx-yy               1.000     1.000    -0.000
     In    12      Dxy                  0.998     0.998     0.000
     In    12      S                    0.707     0.707     0.000
     In    12      Px                   0.242     0.242    -0.000
     In    12      Py                   0.239     0.238     0.000
     In    12      Pz                   0.240     0.241    -0.000
     In    12      S                   -0.266    -0.266     0.000
     In    13      Dzz                  1.000     1.000     0.000
     In    13      Dzy                  0.998     0.998     0.000
     In    13      Dzx                  0.998     0.998     0.000
     In    13      Dxx-yy               1.000     1.000     0.000
     In    13      Dxy                  0.998     0.998     0.000
     In    13      S                    0.707     0.708    -0.001
     In    13      Px                   0.235     0.236    -0.001
     In    13      Py                   0.242     0.241     0.001
     In    13      Pz                   0.242     0.241     0.001
     In    13      S                   -0.259    -0.258    -0.001
     In    14      Dzz                  1.000     1.000     0.000
     In    14      Dzy                  0.999     0.999     0.000
     In    14      Dzx                  0.998     0.998     0.000
     In    14      Dxx-yy               1.000     1.000     0.000
     In    14      Dxy                  0.998     0.998     0.000
     In    14      S                    0.706     0.707    -0.001
     In    14      Px                   0.242     0.242    -0.000
     In    14      Py                   0.240     0.240     0.000
     In    14      Pz                   0.238     0.238    -0.000
     In    14      S                   -0.261    -0.260    -0.001
     In    15      Dzz                  1.000     1.000    -0.000
     In    15      Dzy                  0.998     0.998    -0.000
     In    15      Dzx                  0.998     0.998     0.000
     In    15      Dxx-yy               1.000     1.000    -0.000
     In    15      Dxy                  0.998     0.998     0.000
     In    15      S                    0.707     0.707    -0.000
     In    15      Px                   0.242     0.242     0.000
     In    15      Py                   0.240     0.240    -0.000
     In    15      Pz                   0.240     0.240    -0.000
     In    15      S                   -0.266    -0.267     0.001
     In    16      Dzz                  1.000     1.000    -0.000
     In    16      Dzy                  0.999     0.999     0.000
     In    16      Dzx                  0.998     0.998     0.000
     In    16      Dxx-yy               1.000     1.000     0.000
     In    16      Dxy                  0.998     0.998     0.000
     In    16      S                    0.706     0.707    -0.001
     In    16      Px                   0.242     0.242    -0.000
     In    16      Py                   0.238     0.238    -0.000
     In    16      Pz                   0.240     0.240     0.000
     In    16      S                   -0.261    -0.260    -0.001
     In    17      Dzz                  0.999     0.999     0.000
     In    17      Dzy                  0.998     0.998    -0.000
     In    17      Dzx                  0.998     0.998     0.000
     In    17      Dxx-yy               0.999     0.999     0.000
     In    17      Dxy                  0.998     0.998     0.000
     In    17      S                    0.712     0.713    -0.002
     In    17      Px                   0.254     0.256    -0.002
     In    17      Py                   0.240     0.240     0.000
     In    17      Pz                   0.240     0.240     0.000
     In    17      S                   -0.268    -0.270     0.001
     In    18      Dzz                  1.000     1.000    -0.000
     In    18      Dzy                  0.998     0.998     0.000
     In    18      Dzx                  0.998     0.998    -0.000
     In    18      Dxx-yy               1.000     1.000    -0.000
     In    18      Dxy                  0.998     0.998    -0.000
     In    18      S                    0.707     0.706     0.001
     In    18      Px                   0.237     0.238    -0.000
     In    18      Py                   0.240     0.240     0.000
     In    18      Pz                   0.248     0.247     0.001
     In    18      S                   -0.265    -0.265    -0.000
     In    19      Dzz                  0.999     0.999     0.000
     In    19      Dzy                  0.998     0.998     0.000
     In    19      Dzx                  0.999     0.998     0.001
     In    19      Dxx-yy               0.999     0.999     0.000
     In    19      Dxy                  0.999     0.998     0.001
     In    19      S                    0.696     0.709    -0.013
     In    19      Px                   0.243     0.256    -0.013
     In    19      Py                   0.245     0.249    -0.004
     In    19      Pz                   0.245     0.249    -0.004
     In    19      S                   -0.246    -0.245    -0.001
     In    20      Dzz                  1.000     1.000    -0.000
     In    20      Dzy                  0.998     0.998     0.000
     In    20      Dzx                  0.998     0.998    -0.000
     In    20      Dxx-yy               1.000     1.000     0.000
     In    20      Dxy                  0.998     0.998    -0.000
     In    20      S                    0.707     0.706     0.001
     In    20      Px                   0.237     0.238    -0.000
     In    20      Py                   0.248     0.247     0.001
     In    20      Pz                   0.240     0.240     0.000
     In    20      S                   -0.265    -0.265    -0.000
     In    21      Dzz                  1.000     1.000     0.000
     In    21      Dzy                  0.999     0.999     0.000
     In    21      Dzx                  0.999     0.998     0.000
     In    21      Dxx-yy               1.000     1.000     0.000
     In    21      Dxy                  0.998     0.998     0.000
     In    21      S                    0.712     0.713    -0.000
     In    21      Px                   0.240     0.240    -0.000
     In    21      Py                   0.239     0.238     0.000
     In    21      Pz                   0.239     0.238     0.000
     In    21      S                   -0.267    -0.272     0.005
     In    22      Dzz                  1.000     1.000    -0.000
     In    22      Dzy                  0.998     0.998     0.000
     In    22      Dzx                  0.998     0.998     0.000
     In    22      Dxx-yy               1.000     1.000    -0.000
     In    22      Dxy                  0.998     0.998     0.000
     In    22      S                    0.707     0.707     0.000
     In    22      Px                   0.241     0.241    -0.000
     In    22      Py                   0.243     0.242     0.000
     In    22      Pz                   0.241     0.241    -0.000
     In    22      S                   -0.265    -0.266     0.000
     In    23      Dzz                  1.000     1.000     0.000
     In    23      Dzy                  0.999     0.999     0.000
     In    23      Dzx                  0.998     0.998     0.000
     In    23      Dxx-yy               1.000     1.000     0.000
     In    23      Dxy                  0.998     0.998     0.000
     In    23      S                    0.710     0.711    -0.000
     In    23      Px                   0.240     0.240    -0.000
     In    23      Py                   0.240     0.240     0.000
     In    23      Pz                   0.239     0.239    -0.000
     In    23      S                   -0.266    -0.267     0.001
     In    24      Dzz                  1.000     1.000    -0.000
     In    24      Dzy                  0.998     0.998     0.000
     In    24      Dzx                  0.998     0.998    -0.000
     In    24      Dxx-yy               1.000     1.000    -0.000
     In    24      Dxy                  0.998     0.998    -0.000
     In    24      S                    0.712     0.712    -0.000
     In    24      Px                   0.238     0.238    -0.000
     In    24      Py                   0.243     0.242     0.001
     In    24      Pz                   0.241     0.241     0.001
     In    24      S                   -0.270    -0.270     0.000
     In    25      Dzz                  1.000     1.000    -0.000
     In    25      Dzy                  0.999     0.999     0.000
     In    25      Dzx                  0.998     0.998     0.000
     In    25      Dxx-yy               1.000     1.000     0.000
     In    25      Dxy                  0.999     0.998     0.000
     In    25      S                    0.712     0.713    -0.000
     In    25      Px                   0.240     0.240    -0.000
     In    25      Py                   0.239     0.238     0.000
     In    25      Pz                   0.239     0.238     0.000
     In    25      S                   -0.267    -0.272     0.005
     In    26      Dzz                  1.000     1.000     0.000
     In    26      Dzy                  0.998     0.998     0.000
     In    26      Dzx                  0.998     0.998     0.000
     In    26      Dxx-yy               1.000     1.000    -0.000
     In    26      Dxy                  0.998     0.998     0.000
     In    26      S                    0.712     0.712    -0.000
     In    26      Px                   0.238     0.238    -0.000
     In    26      Py                   0.241     0.241     0.001
     In    26      Pz                   0.243     0.242     0.001
     In    26      S                   -0.270    -0.270     0.000
     In    27      Dzz                  1.000     1.000    -0.000
     In    27      Dzy                  0.999     0.999     0.000
     In    27      Dzx                  0.998     0.998     0.000
     In    27      Dxx-yy               1.000     1.000    -0.000
     In    27      Dxy                  0.998     0.998    -0.000
     In    27      S                    0.710     0.711    -0.000
     In    27      Px                   0.240     0.240    -0.000
     In    27      Py                   0.239     0.239    -0.000
     In    27      Pz                   0.240     0.240     0.000
     In    27      S                   -0.266    -0.267     0.001
     In    28      Dzz                  1.000     1.000    -0.000
     In    28      Dzy                  0.998     0.998     0.000
     In    28      Dzx                  0.998     0.998     0.000
     In    28      Dxx-yy               1.000     1.000    -0.000
     In    28      Dxy                  0.998     0.998     0.000
     In    28      S                    0.707     0.707     0.000
     In    28      Px                   0.241     0.241    -0.000
     In    28      Py                   0.241     0.241    -0.000
     In    28      Pz                   0.243     0.242     0.000
     In    28      S                   -0.265    -0.266     0.000
     In    29      Dzz                  0.999     0.999     0.000
     In    29      Dzy                  0.999     0.999     0.000
     In    29      Dzx                  0.998     0.998     0.000
     In    29      Dxx-yy               0.999     0.999     0.000
     In    29      Dxy                  0.998     0.998     0.000
     In    29      S                    0.722     0.727    -0.005
     In    29      Px                   0.244     0.247    -0.003
     In    29      Py                   0.242     0.240     0.001
     In    29      Pz                   0.242     0.240     0.001
     In    29      S                   -0.274    -0.278     0.004
     In    30      Dzz                  1.000     1.000     0.000
     In    30      Dzy                  0.998     0.998     0.000
     In    30      Dzx                  0.998     0.998     0.000
     In    30      Dxx-yy               1.000     1.000    -0.000
     In    30      Dxy                  0.998     0.998    -0.000
     In    30      S                    0.709     0.708     0.000
     In    30      Px                   0.240     0.240    -0.000
     In    30      Py                   0.243     0.242     0.001
     In    30      Pz                   0.240     0.240     0.000
     In    30      S                   -0.266    -0.265    -0.001
     In    31      Dzz                  1.000     1.000    -0.000
     In    31      Dzy                  0.998     0.998     0.000
     In    31      Dzx                  0.998     0.998    -0.000
     In    31      Dxx-yy               1.000     1.000    -0.000
     In    31      Dxy                  0.998     0.998    -0.000
     In    31      S                    0.708     0.709    -0.000
     In    31      Px                   0.246     0.247    -0.001
     In    31      Py                   0.242     0.242    -0.000
     In    31      Pz                   0.242     0.242    -0.000
     In    31      S                   -0.265    -0.265     0.000
     In    32      Dzz                  1.000     1.000    -0.000
     In    32      Dzy                  0.998     0.998     0.000
     In    32      Dzx                  0.998     0.998     0.000
     In    32      Dxx-yy               1.000     1.000    -0.000
     In    32      Dxy                  0.998     0.998     0.000
     In    32      S                    0.709     0.708     0.000
     In    32      Px                   0.240     0.240    -0.000
     In    32      Py                   0.240     0.240     0.000
     In    32      Pz                   0.243     0.242     0.001
     In    32      S                   -0.266    -0.265    -0.001
  ---------------------------------------------------------------
                           Total:     290.999   290.000     0.999
  ---------------------------------------------------------------

     Atomic Populations (Mulliken)
     -----------------------------
Species          Ion Spin      s       p       d       f      Total   Charge(e)   Spin(hbar/2)
==============================================================================================
  P               1   up:     0.872   1.955   0.000   0.000   2.827    -0.636        0.019
                  1   dn:     0.868   1.941   0.000   0.000   2.809
  P               2   up:     0.872   1.966   0.000   0.000   2.838    -0.656        0.020
                  2   dn:     0.871   1.947   0.000   0.000   2.818
  P               3   up:     0.872   1.955   0.000   0.000   2.827    -0.636        0.019
                  3   dn:     0.868   1.941   0.000   0.000   2.809
  P               4   up:     0.864   1.958   0.000   0.000   2.822    -0.510        0.134
                  4   dn:     0.861   1.826   0.000   0.000   2.688
  P               5   up:     0.867   1.972   0.000   0.000   2.839    -0.674        0.005
                  5   dn:     0.867   1.968   0.000   0.000   2.835
  P               6   up:     0.868   1.969   0.000   0.000   2.837    -0.674        0.000
                  6   dn:     0.868   1.969   0.000   0.000   2.837
  P               7   up:     0.869   1.981   0.000   0.000   2.849    -0.664        0.034
                  7   dn:     0.865   1.950   0.000   0.000   2.815
  P               8   up:     0.867   1.971   0.000   0.000   2.838    -0.676       -0.000
                  8   dn:     0.867   1.971   0.000   0.000   2.838
  P               9   up:     0.869   1.981   0.000   0.000   2.849    -0.664        0.034
                  9   dn:     0.865   1.950   0.000   0.000   2.815
  P              10   up:     0.868   1.969   0.000   0.000   2.837    -0.674        0.000
                 10   dn:     0.868   1.969   0.000   0.000   2.837
  P              11   up:     0.867   1.972   0.000   0.000   2.839    -0.674        0.005
                 11   dn:     0.867   1.968   0.000   0.000   2.835
  P              12   up:     0.867   1.971   0.000   0.000   2.838    -0.676       -0.000
                 12   dn:     0.867   1.971   0.000   0.000   2.838
  P              13   up:     0.867   1.970   0.000   0.000   2.837    -0.674       -0.000
                 13   dn:     0.867   1.971   0.000   0.000   2.837
  P              14   up:     0.866   1.968   0.000   0.000   2.834    -0.669       -0.002
                 14   dn:     0.866   1.969   0.000   0.000   2.836
  P              15   up:     0.867   1.970   0.000   0.000   2.837    -0.674       -0.000
                 15   dn:     0.867   1.970   0.000   0.000   2.837
  P              16   up:     0.865   1.972   0.000   0.000   2.837    -0.676       -0.002
                 16   dn:     0.865   1.974   0.000   0.000   2.839
  P              17   up:     0.868   1.977   0.000   0.000   2.845    -0.673        0.017
                 17   dn:     0.866   1.962   0.000   0.000   2.828
  P              18   up:     0.867   1.970   0.000   0.000   2.837    -0.674       -0.001
                 18   dn:     0.867   1.970   0.000   0.000   2.837
  P              19   up:     0.868   1.977   0.000   0.000   2.845    -0.673        0.017
                 19   dn:     0.866   1.962   0.000   0.000   2.828
  P              20   up:     0.866   1.972   0.000   0.000   2.838    -0.678       -0.001
                 20   dn:     0.866   1.973   0.000   0.000   2.839
  P              21   up:     0.866   1.971   0.000   0.000   2.838    -0.675        0.001
                 21   dn:     0.866   1.971   0.000   0.000   2.837
  P              22   up:     0.866   1.973   0.000   0.000   2.839    -0.675        0.002
                 22   dn:     0.866   1.971   0.000   0.000   2.837
  P              23   up:     0.868   1.973   0.000   0.000   2.840    -0.676        0.005
                 23   dn:     0.867   1.969   0.000   0.000   2.836
  P              24   up:     0.864   1.978   0.000   0.000   2.842    -0.679        0.006
                 24   dn:     0.864   1.973   0.000   0.000   2.837
  P              25   up:     0.868   1.973   0.000   0.000   2.840    -0.676        0.005
                 25   dn:     0.867   1.969   0.000   0.000   2.836
  P              26   up:     0.866   1.973   0.000   0.000   2.839    -0.675        0.002
                 26   dn:     0.866   1.971   0.000   0.000   2.837
  P              27   up:     0.866   1.971   0.000   0.000   2.838    -0.675        0.001
                 27   dn:     0.866   1.971   0.000   0.000   2.837
  P              28   up:     0.864   1.978   0.000   0.000   2.842    -0.679        0.006
                 28   dn:     0.864   1.973   0.000   0.000   2.837
  P              29   up:     0.867   1.970   0.000   0.000   2.837    -0.674        0.000
                 29   dn:     0.867   1.970   0.000   0.000   2.837
  P              30   up:     0.866   1.971   0.000   0.000   2.838    -0.676       -0.000
                 30   dn:     0.866   1.972   0.000   0.000   2.838
  P              31   up:     0.867   1.970   0.000   0.000   2.837    -0.674        0.000
                 31   dn:     0.867   1.970   0.000   0.000   2.837
  P              32   up:     0.867   1.970   0.000   0.000   2.837    -0.675       -0.000
                 32   dn:     0.867   1.970   0.000   0.000   2.838
  P              33   up:     0.925   2.094   0.000   0.000   3.019    -0.361        0.677
                 33   dn:     0.910   1.432   0.000   0.000   2.342
  In              1   up:     0.440   0.724   4.995   0.000   6.158     0.682       -0.001
                  1   dn:     0.441   0.724   4.995   0.000   6.159
  In              2   up:     0.449   0.710   4.995   0.000   6.154     0.693        0.001
                  2   dn:     0.447   0.711   4.995   0.000   6.153
  In              3   up:     0.453   0.718   4.995   0.000   6.166     0.680        0.012
                  3   dn:     0.445   0.714   4.995   0.000   6.154
  In              4   up:     0.449   0.710   4.995   0.000   6.154     0.693        0.001
                  4   dn:     0.447   0.711   4.995   0.000   6.153
  In              5   up:     0.449   0.731   4.994   0.000   6.175     0.660        0.010
                  5   dn:     0.446   0.724   4.994   0.000   6.165
  In              6   up:     0.442   0.720   4.995   0.000   6.157     0.687        0.000
                  6   dn:     0.441   0.721   4.995   0.000   6.156
  In              7   up:     0.447   0.734   4.994   0.000   6.175     0.654        0.003
                  7   dn:     0.447   0.731   4.994   0.000   6.172
  In              8   up:     0.433   0.708   4.995   0.000   6.136     0.717       -0.011
                  8   dn:     0.438   0.715   4.994   0.000   6.147
  In              9   up:     0.449   0.731   4.994   0.000   6.175     0.660        0.010
                  9   dn:     0.446   0.724   4.994   0.000   6.165
  In             10   up:     0.433   0.708   4.995   0.000   6.136     0.717       -0.011
                 10   dn:     0.438   0.715   4.994   0.000   6.147
  In             11   up:     0.447   0.734   4.994   0.000   6.175     0.654        0.003
                 11   dn:     0.447   0.731   4.994   0.000   6.172
  In             12   up:     0.442   0.720   4.995   0.000   6.157     0.687        0.000
                 12   dn:     0.441   0.721   4.995   0.000   6.156
  In             13   up:     0.448   0.719   4.995   0.000   6.162     0.674       -0.001
                 13   dn:     0.450   0.719   4.995   0.000   6.164
  In             14   up:     0.446   0.719   4.995   0.000   6.160     0.679       -0.002
                 14   dn:     0.447   0.720   4.995   0.000   6.162
  In             15   up:     0.441   0.723   4.995   0.000   6.159     0.683        0.000
                 15   dn:     0.441   0.723   4.995   0.000   6.158
  In             16   up:     0.446   0.719   4.995   0.000   6.160     0.679       -0.002
                 16   dn:     0.447   0.720   4.995   0.000   6.162
  In             17   up:     0.443   0.735   4.994   0.000   6.172     0.655       -0.002
                 17   dn:     0.444   0.737   4.994   0.000   6.174
  In             18   up:     0.442   0.726   4.994   0.000   6.163     0.677        0.002
                 18   dn:     0.442   0.724   4.994   0.000   6.160
  In             19   up:     0.450   0.733   4.993   0.000   6.176     0.614       -0.034
                 19   dn:     0.464   0.753   4.992   0.000   6.210
  In             20   up:     0.442   0.726   4.994   0.000   6.163     0.677        0.002
                 20   dn:     0.442   0.724   4.994   0.000   6.160
  In             21   up:     0.446   0.718   4.995   0.000   6.158     0.689        0.005
                 21   dn:     0.441   0.717   4.995   0.000   6.153
  In             22   up:     0.442   0.725   4.994   0.000   6.161     0.680        0.001
                 22   dn:     0.441   0.724   4.994   0.000   6.160
  In             23   up:     0.444   0.719   4.995   0.000   6.158     0.684        0.000
                 23   dn:     0.444   0.720   4.995   0.000   6.158
  In             24   up:     0.442   0.723   4.995   0.000   6.159     0.683        0.001
                 24   dn:     0.442   0.721   4.995   0.000   6.158
  In             25   up:     0.446   0.718   4.995   0.000   6.158     0.689        0.005
                 25   dn:     0.441   0.717   4.995   0.000   6.153
  In             26   up:     0.442   0.723   4.995   0.000   6.159     0.683        0.001
                 26   dn:     0.442   0.721   4.995   0.000   6.158
  In             27   up:     0.444   0.719   4.995   0.000   6.158     0.683        0.000
                 27   dn:     0.444   0.720   4.995   0.000   6.158
  In             28   up:     0.442   0.725   4.994   0.000   6.161     0.680        0.001
                 28   dn:     0.441   0.724   4.994   0.000   6.160
  In             29   up:     0.448   0.728   4.994   0.000   6.170     0.659       -0.001
                 29   dn:     0.449   0.728   4.994   0.000   6.171
  In             30   up:     0.443   0.723   4.994   0.000   6.160     0.680        0.000
                 30   dn:     0.444   0.722   4.994   0.000   6.160
  In             31   up:     0.443   0.730   4.994   0.000   6.167     0.665       -0.001
                 31   dn:     0.444   0.730   4.994   0.000   6.168
  In             32   up:     0.443   0.723   4.994   0.000   6.160     0.680        0.001
                 32   dn:     0.444   0.722   4.994   0.000   6.160
==============================================================================================

                 Bond                   Population        Spin       Length (A)
================================================================================
              P 4  -- P 33                   0.38        -0.10          2.13543
              P 33 -- In 19                  0.91        -0.02          2.42079
              P 2  -- In 17                  0.72         0.00          2.47687
              P 17 -- In 19                  0.66        -0.00          2.51226
              P 19 -- In 19                  0.66        -0.00          2.51226
              P 4  -- In 29                  0.67        -0.00          2.51891
              P 28 -- In 18                  0.68        -0.00          2.52354
              P 24 -- In 20                  0.68        -0.00          2.52354
              P 14 -- In 31                  0.67         0.00          2.52356
              P 9  -- In 11                  0.65        -0.00          2.52369
              P 7  -- In 7                   0.65        -0.00          2.52369
              P 9  -- In 10                  0.66        -0.02          2.52493
              P 7  -- In 8                   0.66        -0.02          2.52493
              P 16 -- In 31                  0.66         0.00          2.52514
              P 16 -- In 17                  0.63         0.00          2.52660
              P 28 -- In 11                  0.65        -0.00          2.52919
              P 24 -- In 7                   0.65        -0.00          2.52919
              P 25 -- In 29                  0.65        -0.00          2.53758
              P 23 -- In 29                  0.65        -0.00          2.53758
              P 22 -- In 24                  0.67         0.00          2.53989
              P 26 -- In 26                  0.67         0.00          2.53989
              P 1  -- In 5                   0.64        -0.00          2.54023
              P 3  -- In 9                   0.64        -0.00          2.54023
              P 10 -- In 10                  0.68         0.00          2.54047
              P 6  -- In 8                   0.68         0.00          2.54048
              P 19 -- In 20                  0.63        -0.00          2.54058
              P 17 -- In 18                  0.63        -0.00          2.54059
              P 24 -- In 9                   0.66        -0.00          2.54132
              P 28 -- In 5                   0.66        -0.00          2.54132
              P 21 -- In 22                  0.66        -0.00          2.54299
              P 27 -- In 28                  0.66        -0.00          2.54299
              P 11 -- In 11                  0.65        -0.00          2.54350
              P 5  -- In 7                   0.65        -0.00          2.54350
              P 24 -- In 30                  0.67         0.00          2.54351
              P 28 -- In 32                  0.67         0.00          2.54351
              P 27 -- In 17                  0.65        -0.00          2.54360
              P 21 -- In 17                  0.65        -0.00          2.54360
              P 12 -- In 21                  0.66         0.00          2.54386
              P 8  -- In 25                  0.66         0.00          2.54386
              P 20 -- In 26                  0.66         0.00          2.54477
              P 20 -- In 24                  0.66         0.00          2.54477
              P 22 -- In 7                   0.65        -0.00          2.54485
              P 26 -- In 11                  0.65        -0.00          2.54485
              P 13 -- In 14                  0.66         0.00          2.54557
              P 15 -- In 16                  0.66         0.00          2.54557
              P 3  -- In 3                   0.67        -0.00          2.54578
              P 1  -- In 3                   0.67        -0.00          2.54578
              P 30 -- In 30                  0.67         0.00          2.54619
              P 30 -- In 32                  0.67         0.00          2.54619
              P 30 -- In 13                  0.66         0.00          2.54690
              P 26 -- In 28                  0.67         0.00          2.54707
              P 22 -- In 22                  0.67         0.00          2.54707
              P 18 -- In 20                  0.67         0.00          2.54750
              P 18 -- In 18                  0.67         0.00          2.54750
              P 31 -- In 32                  0.67        -0.00          2.54769
              P 29 -- In 30                  0.67        -0.00          2.54769
              P 25 -- In 26                  0.65         0.00          2.54786
              P 23 -- In 24                  0.65         0.00          2.54786
              P 5  -- In 1                   0.68        -0.00          2.54814
              P 11 -- In 1                   0.68        -0.00          2.54814
              P 16 -- In 12                  0.68         0.00          2.54851
              P 16 -- In 6                   0.68         0.00          2.54851
              P 29 -- In 28                  0.67         0.00          2.54913
              P 31 -- In 22                  0.67         0.00          2.54913
              P 27 -- In 18                  0.67         0.00          2.54925
              P 21 -- In 20                  0.67         0.00          2.54925
              P 13 -- In 15                  0.67        -0.00          2.54988
              P 15 -- In 15                  0.67        -0.00          2.54988
              P 20 -- In 13                  0.65         0.00          2.55000
              P 15 -- In 6                   0.67         0.00          2.55001
              P 13 -- In 12                  0.67         0.00          2.55001
              P 6  -- In 23                  0.66         0.00          2.55054
              P 10 -- In 27                  0.66         0.00          2.55054
              P 18 -- In 1                   0.66         0.00          2.55074
              P 9  -- In 13                  0.67        -0.00          2.55088
              P 7  -- In 13                  0.67        -0.00          2.55088
              P 12 -- In 27                  0.66         0.00          2.55130
              P 8  -- In 23                  0.66         0.00          2.55130
              P 32 -- In 15                  0.65         0.00          2.55146
              P 30 -- In 15                  0.66        -0.00          2.55232
              P 26 -- In 9                   0.65        -0.00          2.55256
              P 22 -- In 5                   0.65        -0.00          2.55256
              P 32 -- In 22                  0.66         0.00          2.55280
              P 32 -- In 28                  0.66         0.00          2.55280
              P 1  -- In 8                   0.64         0.00          2.55312
              P 3  -- In 10                  0.64         0.00          2.55312
              P 25 -- In 32                  0.64        -0.00          2.55318
              P 23 -- In 30                  0.64        -0.00          2.55318
              P 14 -- In 16                  0.67         0.00          2.55320
              P 14 -- In 14                  0.67         0.00          2.55320
              P 25 -- In 27                  0.67         0.00          2.55333
              P 23 -- In 23                  0.67         0.00          2.55333
              P 8  -- In 4                   0.65         0.00          2.55373
              P 12 -- In 2                   0.65         0.00          2.55373
              P 11 -- In 12                  0.66         0.00          2.55400
              P 5  -- In 6                   0.66         0.00          2.55400
              P 32 -- In 1                   0.66         0.00          2.55511
              P 20 -- In 3                   0.65         0.00          2.55648
              P 31 -- In 31                  0.65         0.00          2.55663
              P 29 -- In 31                  0.65         0.00          2.55663
              P 10 -- In 25                  0.66         0.00          2.55703
              P 6  -- In 21                  0.66         0.00          2.55703
              P 13 -- In 9                   0.65        -0.00          2.55770
              P 15 -- In 5                   0.65        -0.00          2.55770
              P 21 -- In 23                  0.67         0.00          2.55837
              P 27 -- In 27                  0.67         0.00          2.55837
              P 5  -- In 4                   0.64        -0.01          2.55898
              P 11 -- In 2                   0.64        -0.01          2.55898
              P 17 -- In 24                  0.64        -0.00          2.55976
              P 19 -- In 26                  0.64        -0.00          2.55976
              P 4  -- In 8                   0.55         0.02          2.56020
              P 4  -- In 10                  0.55         0.02          2.56020
              P 9  -- In 16                  0.65         0.00          2.56068
              P 7  -- In 14                  0.65         0.00          2.56068
              P 12 -- In 16                  0.65         0.00          2.56226
              P 8  -- In 14                  0.65         0.00          2.56226
              P 6  -- In 6                   0.64         0.00          2.56265
              P 10 -- In 12                  0.64         0.00          2.56265
              P 17 -- In 21                  0.67         0.00          2.56297
              P 19 -- In 25                  0.67         0.00          2.56297
              P 29 -- In 25                  0.64        -0.00          2.56397
              P 31 -- In 21                  0.64        -0.00          2.56397
              P 2  -- In 4                   0.66         0.00          2.56506
              P 2  -- In 2                   0.66         0.00          2.56506
              P 18 -- In 3                   0.66         0.00          2.56662
              P 14 -- In 29                  0.59         0.00          2.56782
              P 3  -- In 4                   0.63         0.00          2.57806
              P 1  -- In 2                   0.63         0.00          2.57806
              P 2  -- In 19                  0.33         0.01          2.73422
              P 2  -- P 33                  -0.26        -0.02          2.91200
================================================================================

 Hirshfeld supercell size:           2           2           2
Standard grid dimensions: 240 240 240
Fine grid dimensions:     240 240 240


     Hirshfeld Analysis
     ------------------
Species   Ion     Hirshfeld Charge (e)  Spin (hbar/2)
===================================================
  P        1                -0.23        0.02
  P        2                -0.25        0.02
  P        3                -0.23        0.02
  P        4                -0.18        0.14
  P        5                -0.24        0.00
  P        6                -0.23        0.00
  P        7                -0.24        0.02
  P        8                -0.24        0.00
  P        9                -0.24        0.02
  P       10                -0.23        0.00
  P       11                -0.24        0.00
  P       12                -0.24        0.00
  P       13                -0.24        0.00
  P       14                -0.24       -0.00
  P       15                -0.24        0.00
  P       16                -0.24       -0.00
  P       17                -0.24        0.01
  P       18                -0.24        0.00
  P       19                -0.24        0.01
  P       20                -0.24        0.00
  P       21                -0.24        0.00
  P       22                -0.24        0.00
  P       23                -0.23        0.00
  P       24                -0.24        0.01
  P       25                -0.23        0.00
  P       26                -0.24        0.00
  P       27                -0.24        0.00
  P       28                -0.24        0.01
  P       29                -0.24        0.00
  P       30                -0.24        0.00
  P       31                -0.24        0.00
  P       32                -0.24        0.00
  P       33                -0.13        0.49
  In       1                 0.24        0.00
  In       2                 0.25        0.01
  In       3                 0.25        0.00
  In       4                 0.25        0.01
  In       5                 0.23        0.01
  In       6                 0.24        0.00
  In       7                 0.23        0.01
  In       8                 0.25        0.03
  In       9                 0.23        0.01
  In      10                 0.25        0.03
  In      11                 0.23        0.01
  In      12                 0.24        0.00
  In      13                 0.24        0.00
  In      14                 0.24        0.00
  In      15                 0.24        0.00
  In      16                 0.24        0.00
  In      17                 0.22        0.00
  In      18                 0.23        0.00
  In      19                 0.21        0.03
  In      20                 0.23        0.00
  In      21                 0.25        0.00
  In      22                 0.24        0.00
  In      23                 0.24        0.00
  In      24                 0.24        0.00
  In      25                 0.25        0.00
  In      26                 0.24        0.00
  In      27                 0.24        0.00
  In      28                 0.24        0.00
  In      29                 0.24        0.01
  In      30                 0.24        0.00
  In      31                 0.23       -0.00
  In      32                 0.24        0.00
===================================================

 
 A BibTeX formatted list of references used in this run has been written to 
 P_Interstitial_Migration_Dumbbell#_Dumbbell+_Singlepoints_2.bib
 
Initialisation time =     32.19 s
Calculation time    =   7844.22 s
Finalisation time   =    171.62 s
Total time          =   8048.03 s
Peak Memory Use     = 9605172 kB
 
Overall parallel efficiency rating: Terrible (34%)
 
Data was distributed by:-
G-vector (3-way); efficiency rating: Poor (37%)
k-point (36-way); efficiency rating: Very good (81%)
