 +-------------------------------------------------+
 |                                                 |
 |      CCC   AA    SSS  TTTTT  EEEEE  PPPP        |
 |     C     A  A  S       T    E      P   P       |
 |     C     AAAA   SS     T    EEE    PPPP        |
 |     C     A  A     S    T    E      P           |
 |      CCC  A  A  SSS     T    EEEEE  P           |
 |                                                 |
 +-------------------------------------------------+
 |                                                 |
 | Welcome to Academic Release CASTEP version 24.1 |
 | Ab Initio Total Energy Program                  |
 |                                                 |
 | Authors:                                        |
 | M. Segall, M. Probert, C. Pickard, P. Hasnip,   |
 | S. Clark, K. Refson, J. R. Yates,               |
 | A. Bartok-Partay, M. Payne                      |
 |                                                 |
 | Contributors:                                   |
 | P. Lindan, P. Haynes, J. White, V. Milman,      |
 | N. Govind, M. Gibson, P. Tulip, V. Cocula,      |
 | B. Montanari, D. Quigley, M. Glover,            |
 | L. Bernasconi, A. Perlov, M. Plummer,           |
 | E. McNellis, J. Meyer, J. Gale, D. Jochym       |
 | J. Aarons, B. Walker, R. Gillen, D. Jones       |
 | T. Green, I. J. Bush, C. J. Armstrong,          |
 | E. J. Higgins, E. L. Brown, M. S. McFly,        |
 | J. Wilkins, B-C. Shih, P. J. P. Byrne,          |
 | R. J. Maurer, J. C. Womack, J. Dziedzic,        |
 | L. LeBlanc, T. K. Stenczel, J. Kermode,         |
 | S. Sturniolo, B. Shi, B. Durham, M. Evans,      |
 | M. J. Smith, A. Tamerus, Z. Hawkhead,           |
 | V. Ravindran, T. Hollins, S. A. Joyce,          |
 | R. T. Strong, A. M. Reilly, S. J. Donaldson     |
 |                                                 |
 | Copyright (c) 2000 - 2023                       |
 |                                                 |
 |     Distributed under license from Cambridge    |
 |     Enterprise for academic use only.           |
 |                                                 |
 | Please cite                                     |
 |                                                 |
 |     "First principles methods using CASTEP"     |
 |                                                 |
 |         Zeitschrift fuer Kristallographie       |
 |           220(5-6) pp. 567-570 (2005)           |
 |                                                 |
 | S. J. Clark, M. D. Segall, C. J. Pickard,       |
 | P. J. Hasnip, M. J. Probert, K. Refson,         |
 | M. C. Payne                                     |
 |                                                 |
 |       in all publications arising from          |
 |              your use of CASTEP                 |
 |                                                 |
 +-------------------------------------------------+
 |                                                 |
 |              http://www.castep.org              |
 |                                                 |
 +-------------------------------------------------+



 Compiled for  GNU 11.2.0 on 04-04-2024 18:39:17
 from code version 6355fd106 Castep241_branch Thu Mar 7 17:56:19 2024 +0000
 Compiler: GNU Fortran 11.2.0; Optimisation: FAST
 Comms   : MPI VERSION : CRAY MPICH version 8.1.23.14 (ANL base 3.4a2)
 MATHLIBS: default (LAPACK version 3.10.1)
 FFT Lib : fftw3 version commercial-fftw-3.3.10-sse2-avx-avx2-avx2_128
 Fundamental constants values: CODATA 2018

 Run started: Wed, 30 Jul 2025 13:45:29 +0100

 Atomic calculation performed for P: 1s2 2s2 2p6 3s2 3p3

 Converged in 47 iterations to an ae energy of -9309.074 eV

   ============================================================                
   | Pseudopotential Report - Date of generation 30-07-2025   |                
   ------------------------------------------------------------                
   | Element: P Ionic charge:  5.00 Level of theory: RSCAN    |                
   | Atomic Solver: Koelling-Harmon                           |                
   |                                                          |                
   |               Reference Electronic Structure             |                
   |         Orbital         Occupation         Energy        |                
   |            3s              2.000           -0.535        |                
   |            3p              3.000           -0.209        |                
   |                                                          |                
   |                 Pseudopotential Definition               |                
   |        Beta     l      e      Rc     scheme   norm       |                
   |          1      0   -0.535   1.807     qc      0         |                
   |          2      0    0.250   1.807     qc      0         |                
   |          3      1   -0.209   1.807     qc      0         |                
   |          4      1    0.250   1.807     qc      0         |                
   |          5      2    0.000   1.807     qc      0         |                
   |          6      2    0.250   1.807     qc      0         |                
   |         loc     3    0.000   1.807     pn      0         |                
   |                                                          |                
   | Augmentation charge Rinner = 1.263                       |                
   | Partial core correction Rc = 1.263                       |                
   ------------------------------------------------------------                
   | "3|1.8|4|4|5|30:31:32"                                   |                
   ------------------------------------------------------------                
   |      Author: Chris J. Pickard, Cambridge University      |                
   ============================================================                
 Warning: otfg_output_psp cannot write out meta-GGA pseudopotentials presently.

 Atomic calculation performed for In:
 1s2 2s2 2p6 3s2 3p6 3d10 4s2 4p6 4d10 5s2 5p1

 Converged in 84 iterations to an ae energy of -160093.328 eV

   ============================================================                
   | Pseudopotential Report - Date of generation 30-07-2025   |                
   ------------------------------------------------------------                
   | Element: In Ionic charge: 13.00 Level of theory: RSCAN   |                
   | Atomic Solver: Koelling-Harmon                           |                
   |                                                          |                
   |               Reference Electronic Structure             |                
   |         Orbital         Occupation         Energy        |                
   |            4d             10.000           -0.711        |                
   |            5s              2.000           -0.313        |                
   |            5p              1.000           -0.095        |                
   |                                                          |                
   |                 Pseudopotential Definition               |                
   |        Beta     l      e      Rc     scheme   norm       |                
   |          1      0   -0.313   2.501     qc      0         |                
   |          2      0    0.250   2.501     qc      0         |                
   |          3      1   -0.095   2.501     qc      0         |                
   |          4      1    0.250   2.501     qc      0         |                
   |          5      2   -0.711   2.207     qc      0         |                
   |          6      2    0.250   2.207     qc      0         |                
   |         loc     3    0.000   2.501     pn      0         |                
   |                                                          |                
   | Augmentation charge Rinner = 1.504                       |                
   | Partial core correction Rc = 1.504                       |                
   ------------------------------------------------------------                
   | "3|2.5|2.5|1.5|7|8|9|50:51:42U2.2U2.2"                   |                
   ------------------------------------------------------------                
   |      Author: Chris J. Pickard, Cambridge University      |                
   ============================================================                
 Warning: otfg_output_psp cannot write out meta-GGA pseudopotentials presently.

 Pseudo atomic calculation performed for P 3s2 3p3

 Converged in 23 iterations to a total energy of -208.0292 eV

 Pseudo atomic calculation performed for In 4d10 5s2 5p1

 Converged in 42 iterations to a total energy of -1747.4501 eV
 Calculation parallelised over 108 processes.
 Data is distributed by G-vector(3-way) and k-point(36-way)
 Each process may use up to 16 threads.

 ************************************ Title ************************************
 

 ***************************** General Parameters ******************************
  
 output verbosity                               : normal  (1)
 write checkpoint data to                       : P_Interstitial_Migration_Dumbbell#_Dumbbell+_Singlepoints_2.check
 type of calculation                            : single point energy
 stress calculation                             : off
 density difference calculation                 : off
 electron localisation func (ELF) calculation   : off
 Hirshfeld analysis                             : on
 polarisation (Berry phase) analysis            : off
 molecular orbital projected DOS                : off
 deltaSCF calculation                           : off
 unlimited duration calculation
 timing information                             : on
 memory usage estimate                          : on
 write extra output files                       : on
 write final potential to formatted file        : off
 write final density to formatted file          : off
 write BibTeX reference list                    : on
 write OTFG pseudopotential files               : on
 write electrostatic potential file             : on
 write bands file                               : on
 checkpoint writing                             : off
  
 output         length unit                     : A
 output           mass unit                     : amu
 output           time unit                     : ps
 output         charge unit                     : e
 output           spin unit                     : hbar/2
 output         energy unit                     : eV
 output          force unit                     : eV/A
 output       velocity unit                     : A/ps
 output       pressure unit                     : GPa
 output     inv_length unit                     : 1/A
 output      frequency unit                     : cm-1
 output force constant unit                     : eV/A**2
 output         volume unit                     : A**3
 output   IR intensity unit                     : (D/A)**2/amu
 output         dipole unit                     : D
 output         efield unit                     : eV/A/e
 output        entropy unit                     : J/mol/K
 output    efield chi2 unit                     : pm/V
  
 wavefunctions paging                           : none
 random number generator seed                   :  134529186
 data distribution                              : optimal for this architecture
 optimization strategy                          : balance speed and memory

 *********************** Exchange-Correlation Parameters ***********************
  
 using functional                               : RSCAN
 relativistic treatment                         : Koelling-Harmon
 DFT+D: Semi-empirical dispersion correction    : off

 ************************* Pseudopotential Parameters **************************
  
 pseudopotential representation                 : reciprocal space
 <beta|phi> representation                      : reciprocal space
 spin-orbit coupling                            : off

 **************************** Basis Set Parameters *****************************
  
 plane wave basis set cut-off                   :   900.0000   eV
 size of standard grid                          :     2.0000
 size of   fine   gmax                          :    30.7390   1/A
 finite basis set correction                    : none

 **************************** Electronic Parameters ****************************
  
 number of  electrons                           :  581.0    
 net charge of system                           :  0.000    
 net spin   of system                           :  1.000    
 number of  up  spins                           :  291.0    
 number of down spins                           :  290.0    
 treating system as spin-polarized
 number of bands                                :        349

 ********************* Electronic Minimization Parameters **********************
  
 Method: Treating system as metallic with density mixing treatment of electrons,
         and number of  SD  steps               :          1
         and number of  CG  steps               :          4
  
 total energy / atom convergence tol.           : 0.1000E-07   eV
 eigen-energy convergence tolerance             : 0.2234E-08   eV
 max force / atom convergence tol.              : ignored
 convergence tolerance window                   :          3   cycles
 max. number of SCF cycles                      :        100
 number of fixed-spin iterations                :         10
 smearing scheme                                : Gaussian
 smearing width                                 : 0.2000       eV
 Fermi energy convergence tolerance             : 0.2721E-13   eV
 periodic dipole correction                     : NONE

 ************************** Density Mixing Parameters **************************
  
 density-mixing scheme                          : Pulay
 max. length of mixing history                  :         20
 charge density mixing amplitude                : 0.5000    
   spin density mixing amplitude                :  2.000    
 cut-off energy for mixing                      :  900.0       eV

 *********************** Population Analysis Parameters ************************
  
 Population analysis with cutoff                :  3.000       A
 Population analysis output                     : summary and pdos components

 *******************************************************************************
  

                           -------------------------------
                                      Unit Cell
                           -------------------------------
        Real Lattice(A)                      Reciprocal Lattice(1/A)
    11.8016820    -0.0000080    -0.0000080        0.532397442   0.000000361   0.000000361
    -0.0000080    11.8016820    -0.0000080        0.000000361   0.532397442   0.000000361
    -0.0000080    -0.0000080    11.8016820        0.000000361   0.000000361   0.532397442

                       Lattice parameters(A)       Cell Angles
                    a =     11.801682          alpha =   90.000078
                    b =     11.801682          beta  =   90.000078
                    c =     11.801682          gamma =   90.000078

                       Current cell volume =          1643.734705       A**3
                                   density =             2.857097   AMU/A**3
                                           =             4.744322     g/cm^3

                           -------------------------------
                                     Cell Contents
                           -------------------------------
                         Total number of ions in cell =   65
                      Total number of species in cell =    2
                        Max number of any one species =   33

            xxxxxxxxxxxxxxxxxxxxxxxxxxxxxxxxxxxxxxxxxxxxxxxxxxxxxxxxxxxx
            x  Element    Atom        Fractional coordinates of atoms  x
            x            Number           u          v          w      x
            x----------------------------------------------------------x
            x  P            1         0.123256   0.117901   0.370024   x 
            x  P            2         0.376254   0.103183   0.103085   x 
            x  P            3         0.123256   0.370123   0.117803   x 
            x  P            4         0.337045   0.403698   0.403600   x 
            x  P            5         0.122326   0.119116   0.868958   x 
            x  P            6         0.373302   0.120298   0.619517   x 
            x  P            7         0.116702   0.372736   0.626747   x 
            x  P            8         0.373159   0.368988   0.869320   x 
            x  P            9         0.116702   0.626845   0.372637   x 
            x  P           10         0.373302   0.619615   0.120199   x 
            x  P           11         0.122326   0.869056   0.119018   x 
            x  P           12         0.373159   0.869419   0.368889   x 
            x  P           13         0.122524   0.620428   0.870055   x 
            x  P           14         0.374489   0.619451   0.619353   x 
            x  P           15         0.122524   0.870154   0.620330   x 
            x  P           16         0.372412   0.866823   0.866724   x 
            x  P           17         0.635722   0.112866   0.372726   x 
            x  P           18         0.876208   0.119803   0.119705   x 
            x  P           19         0.635722   0.372825   0.112768   x 
            x  P           20         0.876235   0.369998   0.369900   x 
            x  P           21         0.625481   0.119359   0.867339   x 
            x  P           22         0.874617   0.117679   0.620532   x 
            x  P           23         0.625555   0.368183   0.620254   x 
            x  P           24         0.872907   0.371178   0.867704   x 
            x  P           25         0.625555   0.620353   0.368085   x 
            x  P           26         0.874617   0.620630   0.117581   x 
            x  P           27         0.625481   0.867438   0.119260   x 
            x  P           28         0.872907   0.867803   0.371080   x 
            x  P           29         0.620315   0.618865   0.870223   x 
            x  P           30         0.871261   0.621113   0.621015   x 
            x  P           31         0.620315   0.870322   0.618767   x 
            x  P           32         0.872182   0.869337   0.869238   x 
            x  P           33         0.339422   0.275528   0.275430   x 
            x  In           1        -0.001570  -0.006270  -0.006369   x 
            x  In           2         0.249809  -0.005952   0.242103   x 
            x  In           3         0.001924   0.245260   0.245162   x 
            x  In           4         0.249809   0.242202  -0.006050   x 
            x  In           5        -0.002095  -0.006310   0.493169   x 
            x  In           6         0.248158  -0.005560   0.744624   x 
            x  In           7        -0.004299   0.243695   0.746890   x 
            x  In           8         0.236125   0.241848   0.506674   x 
            x  In           9        -0.002095   0.493268  -0.006409   x 
            x  In          10         0.236125   0.506773   0.241749   x 
            x  In          11        -0.004299   0.746989   0.243596   x 
            x  In          12         0.248158   0.744722  -0.005658   x 
            x  In          13        -0.003403   0.496890   0.496791   x 
            x  In          14         0.248642   0.497130   0.745888   x 
            x  In          15        -0.002013   0.745028   0.744929   x 
            x  In          16         0.248642   0.745986   0.497031   x 
            x  In          17         0.504657  -0.014134  -0.014232   x 
            x  In          18         0.754336  -0.009972   0.241733   x 
            x  In          19         0.531477   0.224870   0.224771   x 
            x  In          20         0.754336   0.241831  -0.010071   x 
            x  In          21         0.496704  -0.003849   0.491856   x 
            x  In          22         0.747738  -0.006993   0.742744   x 
            x  In          23         0.498442   0.244691   0.744426   x 
            x  In          24         0.753824   0.245910   0.496893   x 
            x  In          25         0.496704   0.491954  -0.003947   x 
            x  In          26         0.753824   0.496991   0.245811   x 
            x  In          27         0.498442   0.744525   0.244593   x 
            x  In          28         0.747738   0.742842  -0.007092   x 
            x  In          29         0.505347   0.496483   0.496385   x 
            x  In          30         0.746914   0.496262   0.745494   x 
            x  In          31         0.496541   0.743602   0.743504   x 
            x  In          32         0.746914   0.745592   0.496163   x 
            xxxxxxxxxxxxxxxxxxxxxxxxxxxxxxxxxxxxxxxxxxxxxxxxxxxxxxxxxxxx


                         No user defined ionic velocities

                           -------------------------------
                                   Details of Species
                           -------------------------------

                               Mass of species in AMU
                                    P   30.9737600
                                    In  114.8180000

                          Electric Quadrupole Moment (Barn)
                                    P    1.0000000 No Isotope Defined
                                    In    0.7700000 Isotope115

                          Files used for pseudopotentials:
                                    P 3|1.8|4|4|5|30:31:32
                                    In 3|2.5|2.5|1.5|7|8|9|50:51:42U2.2U2.2

                           -------------------------------
                              k-Points For BZ Sampling
                           -------------------------------
                       MP grid size for SCF calculation is  4  4  4
                            with an offset of   0.125  0.125  0.125
                       Number of kpoints used =            36

                           -------------------------------
                               Symmetry and Constraints
                           -------------------------------

                      Maximum deviation from symmetry =  0.00000         ANG

                      Number of symmetry operations   =           1
                      Number of ionic constraints     =           3
                      Point group of crystal =     1: C1, 1, 1
                      Space group of crystal =     8: Cm, C -2y

             Set iprint > 1 for details on symmetry rotations/translations

                         Centre of mass is constrained
             Set iprint > 1 for details of linear ionic constraints

                         Number of cell constraints= 0
                         Cell constraints are:  1 2 3 4 5 6

                         External pressure/stress (GPa)
                          0.00000   0.00000   0.00000
                                    0.00000   0.00000
                                              0.00000
 
+---------------- MEMORY AND SCRATCH DISK ESTIMATES PER PROCESS --------------+
|                                                     Memory          Disk    |
| Baseline code, static data and system overhead      368.0 MB         0.0 MB |
| BLAS internal memory storage                          0.0 MB         0.0 MB |
| Model and support data                             4327.0 MB         0.0 MB |
| Electronic energy minimisation requirements        1337.1 MB         0.0 MB |
| Force calculation requirements                      127.4 MB         0.0 MB |
|                                               ----------------------------- |
| Approx. total storage required per process         6032.2 MB         0.0 MB |
|                                                                             |
| Requirements will fluctuate during execution and may exceed these estimates |
+-----------------------------------------------------------------------------+
Calculating approximate eigenstates for fixed initial Hamiltonian
Cut-off for approx. calculation is   89.988 eV
Improving approx. states at cut-off of  450.000 eV
Resetting cut-off to  900.000 eV
Calculating total energy with cut-off of  900.000 eV.
------------------------------------------------------------------------ <-- SCF
SCF loop      Energy           Fermi           Energy gain       Timer   <-- SCF
                               energy          per atom          (sec)   <-- SCF
------------------------------------------------------------------------ <-- SCF
Initial  -6.32546082E+004  0.00000000E+000                       469.36  <-- SCF
      1  -6.30178457E+004  2.84314216E+000  -3.64250094E+000     928.51  <-- SCF
      2  -6.30181202E+004  2.84288033E+000   4.22320780E-003    1249.64  <-- SCF
      3  -6.30840662E+004  3.14677698E+000   1.01455458E+000    1598.92  <-- SCF
      4  -6.30956347E+004  3.23009434E+000   1.77976181E-001    2103.34  <-- SCF
      5  -6.31017292E+004  3.39871942E+000   9.37614386E-002    2455.18  <-- SCF
      6  -6.30901934E+004  3.59904428E+000  -1.77473181E-001    2804.48  <-- SCF
      7  -6.30888651E+004  3.65013607E+000  -2.04360801E-002    3146.07  <-- SCF
      8  -6.30889916E+004  3.69156315E+000   1.94666833E-003    3503.95  <-- SCF
      9  -6.30898205E+004  3.71606287E+000   1.27517960E-002    3860.61  <-- SCF
     10  -6.30900979E+004  3.70120789E+000   4.26880282E-003    4212.45  <-- SCF
     11  -6.30901044E+004  3.69378107E+000   9.91559431E-005    4581.89  <-- SCF
     12  -6.30901069E+004  3.68733821E+000   3.92942456E-005    4937.14  <-- SCF
     13  -6.30901081E+004  3.68706623E+000   1.80304447E-005    5298.85  <-- SCF
     14  -6.30901084E+004  3.68627005E+000   3.91950729E-006    5667.42  <-- SCF
     15  -6.30901084E+004  3.68553160E+000   1.03204071E-006    6027.61  <-- SCF
     16  -6.30901085E+004  3.68554504E+000   3.05280406E-007    6350.75  <-- SCF
     17  -6.30901085E+004  3.68540292E+000   8.59488821E-008    6652.14  <-- SCF
     18  -6.30901085E+004  3.68546891E+000   3.02890642E-008    6909.64  <-- SCF
     19  -6.30901085E+004  3.68552979E+000   1.00692582E-008    7160.94  <-- SCF
     20  -6.30901085E+004  3.68554316E+000   2.83352565E-009    7422.74  <-- SCF
     21  -6.30901085E+004  3.68554680E+000   7.67016585E-010    7679.05  <-- SCF
------------------------------------------------------------------------ <-- SCF
 
Integrated Spin Density     =    0.999469     hbar/2
Integrated |Spin Density|   =     1.20622     hbar/2
 
Final energy, E             =  -63090.10684288     eV
Final free energy (E-TS)    =  -63090.10846111     eV
(energies not corrected for finite basis set)
 
NB est. 0K energy (E-0.5TS)      =  -63090.10765200     eV
 

 ************************** Forces **************************
 *                                                          *
 *               Cartesian components (eV/A)                *
 * -------------------------------------------------------- *
 *                         x            y            z      *
 *                                                          *
 * P               1      0.00849     -0.07747      0.01491 *
 * P               2      0.26871      0.15572      0.15591 *
 * P               3      0.00847      0.01468     -0.07781 *
 * P               4      0.06011      0.08115      0.08132 *
 * P               5      0.01390      0.03419      0.00701 *
 * P               6      0.00946      0.00211     -0.02078 *
 * P               7     -0.05603     -0.02696      0.09221 *
 * P               8     -0.03530      0.02395     -0.01680 *
 * P               9     -0.05604      0.09245     -0.02709 *
 * P              10      0.00946     -0.02095      0.00247 *
 * P              11      0.01390      0.00699      0.03424 *
 * P              12     -0.03530     -0.01696      0.02401 *
 * P              13      0.00340     -0.01892      0.02145 *
 * P              14     -0.01129     -0.02196     -0.02178 *
 * P              15      0.00340      0.02111     -0.01853 *
 * P              16      0.00962     -0.12861     -0.12903 *
 * P              17     -0.09629      0.06299     -0.06420 *
 * P              18      0.03506     -0.01236     -0.01211 *
 * P              19     -0.09630     -0.06413      0.06333 *
 * P              20      0.00686      0.01718      0.01746 *
 * P              21      0.00264     -0.02392     -0.03760 *
 * P              22      0.01756      0.01272     -0.02266 *
 * P              23     -0.00837      0.01295     -0.04174 *
 * P              24      0.00545     -0.03092     -0.00017 *
 * P              25     -0.00835     -0.04198      0.01270 *
 * P              26      0.01758     -0.02285      0.01235 *
 * P              27      0.00260     -0.03725     -0.02384 *
 * P              28      0.00540      0.00025     -0.03068 *
 * P              29      0.01362      0.01741     -0.00854 *
 * P              30     -0.00196      0.00229      0.00271 *
 * P              31      0.01361     -0.00891      0.01733 *
 * P              32     -0.00160      0.00008      0.00020 *
 * P              33      0.02406      0.25488      0.25508 *
 * In              1      0.02659     -0.01329     -0.01337 *
 * In              2      0.10213      0.08221     -0.09499 *
 * In              3     -0.07526     -0.02103     -0.02110 *
 * In              4      0.10213     -0.09491      0.08214 *
 * In              5     -0.01830     -0.01758      0.03466 *
 * In              6     -0.00706     -0.00688      0.04134 *
 * In              7     -0.00620      0.01127      0.02198 *
 * In              8     -0.12150     -0.01707      0.11916 *
 * In              9     -0.01831      0.03474     -0.01765 *
 * In             10     -0.12150      0.11924     -0.01715 *
 * In             11     -0.00619      0.02205      0.01120 *
 * In             12     -0.00706      0.04141     -0.00696 *
 * In             13      0.04872     -0.03201     -0.03208 *
 * In             14      0.02457     -0.07705     -0.03652 *
 * In             15     -0.00297      0.01857      0.01849 *
 * In             16      0.02457     -0.03646     -0.07712 *
 * In             17     -0.10070     -0.07010     -0.07018 *
 * In             18     -0.01050      0.01728      0.07500 *
 * In             19     -0.16439     -0.23116     -0.23124 *
 * In             20     -0.01050      0.07508      0.01720 *
 * In             21      0.07187     -0.00920     -0.01921 *
 * In             22      0.02672      0.01308     -0.02718 *
 * In             23      0.01892     -0.00132      0.04266 *
 * In             24     -0.02276     -0.08500     -0.06040 *
 * In             25      0.07187     -0.01912     -0.00927 *
 * In             26     -0.02276     -0.06033     -0.08507 *
 * In             27      0.01891      0.04274     -0.00139 *
 * In             28      0.02672     -0.02711      0.01299 *
 * In             29      0.01128      0.08722      0.08715 *
 * In             30     -0.01010     -0.02873      0.02296 *
 * In             31      0.01459      0.00149      0.00141 *
 * In             32     -0.01010      0.02304     -0.02879 *
 *                                                          *
 ************************************************************

 Pseudo atomic calculation performed for P 3s2 3p3

 Converged in 23 iterations to a total energy of -208.0292 eV

 Pseudo atomic calculation performed for In 4d10 5s2 5p1

 Converged in 42 iterations to a total energy of -1747.4501 eV
Charge spilling parameter for spin component 1 = 0.18%
Charge spilling parameter for spin component 2 = 0.18%

                   Orbital Populations                  
  ---------------------------------------------------------------
     Ion    Atom   Orbital              Up        Down      Spin
  ---------------------------------------------------------------
      P     1      S                    0.872     0.868     0.005
      P     1      Px                   0.656     0.644     0.012
      P     1      Py                   0.651     0.650     0.001
      P     1      Pz                   0.648     0.647     0.001
      P     2      S                    0.872     0.871     0.001
      P     2      Px                   0.642     0.642    -0.000
      P     2      Py                   0.662     0.652     0.010
      P     2      Pz                   0.662     0.652     0.010
      P     3      S                    0.872     0.868     0.005
      P     3      Px                   0.656     0.644     0.012
      P     3      Py                   0.648     0.647     0.001
      P     3      Pz                   0.651     0.650     0.001
      P     4      S                    0.865     0.862     0.003
      P     4      Px                   0.695     0.694     0.001
      P     4      Py                   0.631     0.566     0.065
      P     4      Pz                   0.631     0.566     0.065
      P     5      S                    0.867     0.867     0.001
      P     5      Px                   0.656     0.655     0.002
      P     5      Py                   0.658     0.657     0.001
      P     5      Pz                   0.657     0.656     0.001
      P     6      S                    0.868     0.868    -0.000
      P     6      Px                   0.654     0.653     0.000
      P     6      Py                   0.658     0.657     0.001
      P     6      Pz                   0.658     0.658    -0.000
      P     7      S                    0.869     0.865     0.004
      P     7      Px                   0.663     0.651     0.012
      P     7      Py                   0.655     0.647     0.008
      P     7      Pz                   0.663     0.652     0.011
      P     8      S                    0.867     0.867    -0.000
      P     8      Px                   0.658     0.658     0.000
      P     8      Py                   0.657     0.657    -0.000
      P     8      Pz                   0.656     0.656    -0.000
      P     9      S                    0.869     0.865     0.004
      P     9      Px                   0.663     0.651     0.012
      P     9      Py                   0.663     0.652     0.011
      P     9      Pz                   0.655     0.647     0.008
      P    10      S                    0.868     0.868    -0.000
      P    10      Px                   0.654     0.653     0.000
      P    10      Py                   0.658     0.658    -0.000
      P    10      Pz                   0.658     0.657     0.001
      P    11      S                    0.867     0.867     0.001
      P    11      Px                   0.656     0.655     0.002
      P    11      Py                   0.657     0.656     0.001
      P    11      Pz                   0.658     0.657     0.001
      P    12      S                    0.867     0.867    -0.000
      P    12      Px                   0.658     0.658     0.000
      P    12      Py                   0.656     0.656    -0.000
      P    12      Pz                   0.657     0.657    -0.000
      P    13      S                    0.867     0.867    -0.000
      P    13      Px                   0.656     0.656    -0.000
      P    13      Py                   0.657     0.658    -0.000
      P    13      Pz                   0.657     0.657    -0.000
      P    14      S                    0.866     0.867    -0.000
      P    14      Px                   0.653     0.653    -0.000
      P    14      Py                   0.657     0.658    -0.000
      P    14      Pz                   0.657     0.658    -0.000
      P    15      S                    0.867     0.867    -0.000
      P    15      Px                   0.656     0.656    -0.000
      P    15      Py                   0.657     0.657    -0.000
      P    15      Pz                   0.657     0.658    -0.000
      P    16      S                    0.865     0.865    -0.000
      P    16      Px                   0.653     0.654    -0.000
      P    16      Py                   0.660     0.660    -0.001
      P    16      Pz                   0.660     0.660    -0.001
      P    17      S                    0.868     0.866     0.002
      P    17      Px                   0.668     0.660     0.009
      P    17      Py                   0.664     0.661     0.003
      P    17      Pz                   0.645     0.641     0.003
      P    18      S                    0.867     0.867    -0.000
      P    18      Px                   0.658     0.658    -0.000
      P    18      Py                   0.656     0.656    -0.000
      P    18      Pz                   0.656     0.656    -0.000
      P    19      S                    0.868     0.866     0.002
      P    19      Px                   0.668     0.660     0.009
      P    19      Py                   0.645     0.641     0.003
      P    19      Pz                   0.664     0.661     0.003
      P    20      S                    0.866     0.867    -0.000
      P    20      Px                   0.658     0.659    -0.000
      P    20      Py                   0.657     0.657    -0.000
      P    20      Pz                   0.657     0.657    -0.000
      P    21      S                    0.866     0.866     0.000
      P    21      Px                   0.658     0.658     0.000
      P    21      Py                   0.654     0.654     0.000
      P    21      Pz                   0.659     0.659     0.000
      P    22      S                    0.866     0.866     0.000
      P    22      Px                   0.659     0.658     0.000
      P    22      Py                   0.656     0.656     0.001
      P    22      Pz                   0.658     0.657     0.001
      P    23      S                    0.868     0.867     0.001
      P    23      Px                   0.659     0.657     0.002
      P    23      Py                   0.656     0.655     0.001
      P    23      Pz                   0.657     0.656     0.001
      P    24      S                    0.864     0.864     0.000
      P    24      Px                   0.661     0.659     0.002
      P    24      Py                   0.655     0.654     0.001
      P    24      Pz                   0.662     0.660     0.002
      P    25      S                    0.868     0.867     0.001
      P    25      Px                   0.659     0.657     0.002
      P    25      Py                   0.657     0.656     0.001
      P    25      Pz                   0.656     0.655     0.001
      P    26      S                    0.866     0.866     0.000
      P    26      Px                   0.659     0.658     0.000
      P    26      Py                   0.658     0.657     0.001
      P    26      Pz                   0.656     0.656     0.001
      P    27      S                    0.866     0.866     0.000
      P    27      Px                   0.658     0.658     0.000
      P    27      Py                   0.659     0.659     0.000
      P    27      Pz                   0.654     0.654     0.000
      P    28      S                    0.864     0.864     0.000
      P    28      Px                   0.661     0.659     0.002
      P    28      Py                   0.662     0.660     0.002
      P    28      Pz                   0.655     0.654     0.001
      P    29      S                    0.867     0.867     0.000
      P    29      Px                   0.657     0.657     0.000
      P    29      Py                   0.657     0.657     0.000
      P    29      Pz                   0.656     0.656    -0.000
      P    30      S                    0.866     0.866    -0.000
      P    30      Px                   0.656     0.656    -0.000
      P    30      Py                   0.658     0.658    -0.000
      P    30      Pz                   0.658     0.658    -0.000
      P    31      S                    0.867     0.867     0.000
      P    31      Px                   0.657     0.657     0.000
      P    31      Py                   0.656     0.656    -0.000
      P    31      Pz                   0.657     0.657     0.000
      P    32      S                    0.867     0.867    -0.000
      P    32      Px                   0.656     0.656    -0.000
      P    32      Py                   0.657     0.657     0.000
      P    32      Pz                   0.657     0.657     0.000
      P    33      S                    0.925     0.910     0.015
      P    33      Px                   0.713     0.698     0.015
      P    33      Py                   0.690     0.367     0.324
      P    33      Pz                   0.690     0.367     0.324
     In     1      Dzz                  1.000     1.000    -0.000
     In     1      Dzy                  0.998     0.998    -0.000
     In     1      Dzx                  0.998     0.998     0.000
     In     1      Dxx-yy               1.000     1.000    -0.000
     In     1      Dxy                  0.998     0.998     0.000
     In     1      S                    0.705     0.705    -0.000
     In     1      Px                   0.241     0.241    -0.000
     In     1      Py                   0.242     0.241     0.000
     In     1      Pz                   0.242     0.241     0.000
     In     1      S                   -0.265    -0.265    -0.001
     In     2      Dzz                  1.000     1.000     0.000
     In     2      Dzy                  0.999     0.999     0.000
     In     2      Dzx                  0.999     0.998     0.000
     In     2      Dxx-yy               1.000     1.000     0.000
     In     2      Dxy                  0.999     0.999     0.000
     In     2      S                    0.701     0.702    -0.000
     In     2      Px                   0.239     0.240    -0.001
     In     2      Py                   0.228     0.230    -0.002
     In     2      Pz                   0.244     0.242     0.002
     In     2      S                   -0.252    -0.255     0.003
     In     3      Dzz                  1.000     1.000     0.000
     In     3      Dzy                  0.998     0.998    -0.000
     In     3      Dzx                  0.998     0.998     0.000
     In     3      Dxx-yy               1.000     1.000     0.000
     In     3      Dxy                  0.998     0.998     0.000
     In     3      S                    0.705     0.706    -0.001
     In     3      Px                   0.234     0.234    -0.000
     In     3      Py                   0.242     0.240     0.003
     In     3      Pz                   0.242     0.240     0.003
     In     3      S                   -0.252    -0.261     0.009
     In     4      Dzz                  1.000     1.000     0.000
     In     4      Dzy                  0.999     0.999     0.000
     In     4      Dzx                  0.999     0.999     0.000
     In     4      Dxx-yy               1.000     1.000     0.000
     In     4      Dxy                  0.999     0.998     0.000
     In     4      S                    0.701     0.702    -0.000
     In     4      Px                   0.239     0.240    -0.001
     In     4      Py                   0.244     0.242     0.002
     In     4      Pz                   0.228     0.230    -0.002
     In     4      S                   -0.252    -0.255     0.003
     In     5      Dzz                  1.000     1.000     0.000
     In     5      Dzy                  0.998     0.998     0.000
     In     5      Dzx                  0.998     0.998    -0.000
     In     5      Dxx-yy               1.000     1.000    -0.000
     In     5      Dxy                  0.998     0.998    -0.000
     In     5      S                    0.717     0.715     0.002
     In     5      Px                   0.240     0.240     0.000
     In     5      Py                   0.244     0.241     0.003
     In     5      Pz                   0.247     0.243     0.004
     In     5      S                   -0.268    -0.269     0.001
     In     6      Dzz                  1.000     1.000    -0.000
     In     6      Dzy                  0.998     0.998     0.000
     In     6      Dzx                  0.998     0.998     0.000
     In     6      Dxx-yy               1.000     1.000    -0.000
     In     6      Dxy                  0.998     0.998    -0.000
     In     6      S                    0.707     0.707     0.000
     In     6      Px                   0.242     0.242    -0.000
     In     6      Py                   0.240     0.241    -0.000
     In     6      Pz                   0.239     0.238     0.000
     In     6      S                   -0.266    -0.266     0.000
     In     7      Dzz                  0.999     0.999     0.000
     In     7      Dzy                  0.998     0.998     0.000
     In     7      Dzx                  0.998     0.998     0.000
     In     7      Dxx-yy               1.000     0.999     0.000
     In     7      Dxy                  0.998     0.998     0.000
     In     7      S                    0.713     0.713     0.000
     In     7      Px                   0.241     0.241    -0.000
     In     7      Py                   0.253     0.250     0.003
     In     7      Pz                   0.240     0.240     0.000
     In     7      S                   -0.266    -0.266    -0.000
     In     8      Dzz                  1.000     0.999     0.000
     In     8      Dzy                  0.998     0.998     0.000
     In     8      Dzx                  0.999     0.999     0.000
     In     8      Dxx-yy               1.000     0.999     0.000
     In     8      Dxy                  0.999     0.998     0.001
     In     8      S                    0.696     0.699    -0.003
     In     8      Px                   0.234     0.237    -0.003
     In     8      Py                   0.254     0.245     0.008
     In     8      Pz                   0.221     0.233    -0.012
     In     8      S                   -0.263    -0.260    -0.003
     In     9      Dzz                  1.000     1.000    -0.000
     In     9      Dzy                  0.998     0.998     0.000
     In     9      Dzx                  0.998     0.998    -0.000
     In     9      Dxx-yy               1.000     1.000     0.000
     In     9      Dxy                  0.998     0.998    -0.000
     In     9      S                    0.717     0.715     0.002
     In     9      Px                   0.240     0.240     0.000
     In     9      Py                   0.247     0.243     0.004
     In     9      Pz                   0.244     0.241     0.003
     In     9      S                   -0.268    -0.269     0.001
     In    10      Dzz                  1.000     0.999     0.000
     In    10      Dzy                  0.998     0.998     0.000
     In    10      Dzx                  0.999     0.998     0.001
     In    10      Dxx-yy               1.000     1.000     0.000
     In    10      Dxy                  0.999     0.999     0.000
     In    10      S                    0.696     0.699    -0.003
     In    10      Px                   0.234     0.237    -0.003
     In    10      Py                   0.221     0.233    -0.012
     In    10      Pz                   0.254     0.245     0.008
     In    10      S                   -0.263    -0.260    -0.003
     In    11      Dzz                  1.000     0.999     0.000
     In    11      Dzy                  0.998     0.998     0.000
     In    11      Dzx                  0.998     0.998     0.000
     In    11      Dxx-yy               0.999     0.999     0.000
     In    11      Dxy                  0.998     0.998     0.000
     In    11      S                    0.713     0.713     0.000
     In    11      Px                   0.241     0.241    -0.000
     In    11      Py                   0.240     0.240     0.000
     In    11      Pz                   0.253     0.250     0.003
     In    11      S                   -0.266    -0.266    -0.000
     In    12      Dzz                  1.000     1.000    -0.000
     In    12      Dzy                  0.998     0.998    -0.000
     In    12      Dzx                  0.998     0.998    -0.000
     In    12      Dxx-yy               1.000     1.000    -0.000
     In    12      Dxy                  0.998     0.998     0.000
     In    12      S                    0.707     0.707     0.000
     In    12      Px                   0.242     0.242    -0.000
     In    12      Py                   0.239     0.238     0.000
     In    12      Pz                   0.240     0.241    -0.000
     In    12      S                   -0.266    -0.266     0.000
     In    13      Dzz                  1.000     1.000     0.000
     In    13      Dzy                  0.998     0.998     0.000
     In    13      Dzx                  0.998     0.998     0.000
     In    13      Dxx-yy               1.000     1.000     0.000
     In    13      Dxy                  0.998     0.998     0.000
     In    13      S                    0.707     0.708    -0.001
     In    13      Px                   0.235     0.236    -0.001
     In    13      Py                   0.242     0.241     0.000
     In    13      Pz                   0.242     0.241     0.000
     In    13      S                   -0.258    -0.258    -0.001
     In    14      Dzz                  1.000     1.000    -0.000
     In    14      Dzy                  0.999     0.999     0.000
     In    14      Dzx                  0.998     0.998    -0.000
     In    14      Dxx-yy               1.000     1.000     0.000
     In    14      Dxy                  0.998     0.998     0.000
     In    14      S                    0.706     0.707    -0.001
     In    14      Px                   0.242     0.242    -0.000
     In    14      Py                   0.240     0.240     0.000
     In    14      Pz                   0.238     0.238    -0.000
     In    14      S                   -0.261    -0.260    -0.001
     In    15      Dzz                  1.000     1.000     0.000
     In    15      Dzy                  0.998     0.998     0.000
     In    15      Dzx                  0.998     0.998     0.000
     In    15      Dxx-yy               1.000     1.000     0.000
     In    15      Dxy                  0.998     0.998     0.000
     In    15      S                    0.707     0.707    -0.000
     In    15      Px                   0.242     0.242     0.000
     In    15      Py                   0.240     0.240    -0.000
     In    15      Pz                   0.240     0.240    -0.000
     In    15      S                   -0.266    -0.267     0.001
     In    16      Dzz                  1.000     1.000    -0.000
     In    16      Dzy                  0.999     0.999    -0.000
     In    16      Dzx                  0.998     0.998     0.000
     In    16      Dxx-yy               1.000     1.000     0.000
     In    16      Dxy                  0.998     0.998     0.000
     In    16      S                    0.706     0.707    -0.001
     In    16      Px                   0.242     0.242    -0.000
     In    16      Py                   0.238     0.238    -0.000
     In    16      Pz                   0.240     0.240     0.000
     In    16      S                   -0.261    -0.260    -0.001
     In    17      Dzz                  0.999     0.999     0.000
     In    17      Dzy                  0.998     0.998    -0.000
     In    17      Dzx                  0.998     0.998     0.000
     In    17      Dxx-yy               0.999     0.999    -0.000
     In    17      Dxy                  0.998     0.998     0.000
     In    17      S                    0.712     0.713    -0.002
     In    17      Px                   0.254     0.256    -0.002
     In    17      Py                   0.240     0.240     0.000
     In    17      Pz                   0.240     0.240     0.000
     In    17      S                   -0.268    -0.270     0.001
     In    18      Dzz                  1.000     1.000     0.000
     In    18      Dzy                  0.998     0.998     0.000
     In    18      Dzx                  0.998     0.998    -0.000
     In    18      Dxx-yy               1.000     1.000    -0.000
     In    18      Dxy                  0.998     0.998    -0.000
     In    18      S                    0.707     0.707     0.001
     In    18      Px                   0.237     0.238    -0.000
     In    18      Py                   0.240     0.240     0.000
     In    18      Pz                   0.248     0.247     0.001
     In    18      S                   -0.265    -0.265    -0.000
     In    19      Dzz                  0.999     0.999     0.000
     In    19      Dzy                  0.998     0.998     0.000
     In    19      Dzx                  0.999     0.998     0.001
     In    19      Dxx-yy               0.999     0.999     0.000
     In    19      Dxy                  0.999     0.998     0.001
     In    19      S                    0.696     0.709    -0.013
     In    19      Px                   0.243     0.256    -0.013
     In    19      Py                   0.245     0.249    -0.004
     In    19      Pz                   0.245     0.249    -0.004
     In    19      S                   -0.246    -0.245    -0.001
     In    20      Dzz                  1.000     1.000    -0.000
     In    20      Dzy                  0.998     0.998     0.000
     In    20      Dzx                  0.998     0.998    -0.000
     In    20      Dxx-yy               1.000     1.000     0.000
     In    20      Dxy                  0.998     0.998    -0.000
     In    20      S                    0.707     0.707     0.001
     In    20      Px                   0.237     0.238    -0.000
     In    20      Py                   0.248     0.247     0.001
     In    20      Pz                   0.240     0.240     0.000
     In    20      S                   -0.265    -0.265    -0.000
     In    21      Dzz                  1.000     1.000     0.000
     In    21      Dzy                  0.999     0.999     0.000
     In    21      Dzx                  0.999     0.998     0.000
     In    21      Dxx-yy               1.000     1.000     0.000
     In    21      Dxy                  0.998     0.998     0.000
     In    21      S                    0.712     0.713    -0.000
     In    21      Px                   0.240     0.240    -0.000
     In    21      Py                   0.239     0.238     0.000
     In    21      Pz                   0.239     0.238     0.000
     In    21      S                   -0.267    -0.272     0.005
     In    22      Dzz                  1.000     1.000     0.000
     In    22      Dzy                  0.998     0.998     0.000
     In    22      Dzx                  0.998     0.998    -0.000
     In    22      Dxx-yy               1.000     1.000    -0.000
     In    22      Dxy                  0.998     0.998     0.000
     In    22      S                    0.707     0.707     0.000
     In    22      Px                   0.241     0.241    -0.000
     In    22      Py                   0.243     0.242     0.000
     In    22      Pz                   0.241     0.241    -0.000
     In    22      S                   -0.265    -0.266     0.000
     In    23      Dzz                  1.000     1.000     0.000
     In    23      Dzy                  0.999     0.999    -0.000
     In    23      Dzx                  0.998     0.998    -0.000
     In    23      Dxx-yy               1.000     1.000    -0.000
     In    23      Dxy                  0.998     0.998     0.000
     In    23      S                    0.710     0.711    -0.000
     In    23      Px                   0.240     0.240    -0.000
     In    23      Py                   0.240     0.240     0.000
     In    23      Pz                   0.239     0.239    -0.000
     In    23      S                   -0.266    -0.267     0.001
     In    24      Dzz                  1.000     1.000    -0.000
     In    24      Dzy                  0.998     0.998     0.000
     In    24      Dzx                  0.998     0.998     0.000
     In    24      Dxx-yy               1.000     1.000    -0.000
     In    24      Dxy                  0.998     0.998    -0.000
     In    24      S                    0.712     0.712    -0.000
     In    24      Px                   0.238     0.238    -0.000
     In    24      Py                   0.243     0.242     0.001
     In    24      Pz                   0.241     0.241     0.001
     In    24      S                   -0.270    -0.270     0.000
     In    25      Dzz                  1.000     1.000     0.000
     In    25      Dzy                  0.999     0.999     0.000
     In    25      Dzx                  0.998     0.998     0.000
     In    25      Dxx-yy               1.000     1.000     0.000
     In    25      Dxy                  0.999     0.998     0.000
     In    25      S                    0.712     0.713    -0.000
     In    25      Px                   0.240     0.240    -0.000
     In    25      Py                   0.239     0.238     0.000
     In    25      Pz                   0.239     0.238     0.000
     In    25      S                   -0.267    -0.272     0.005
     In    26      Dzz                  1.000     1.000    -0.000
     In    26      Dzy                  0.998     0.998     0.000
     In    26      Dzx                  0.998     0.998    -0.000
     In    26      Dxx-yy               1.000     1.000    -0.000
     In    26      Dxy                  0.998     0.998    -0.000
     In    26      S                    0.712     0.712    -0.000
     In    26      Px                   0.238     0.238    -0.000
     In    26      Py                   0.241     0.241     0.001
     In    26      Pz                   0.243     0.242     0.001
     In    26      S                   -0.270    -0.270     0.000
     In    27      Dzz                  1.000     1.000     0.000
     In    27      Dzy                  0.999     0.999     0.000
     In    27      Dzx                  0.998     0.998     0.000
     In    27      Dxx-yy               1.000     1.000     0.000
     In    27      Dxy                  0.998     0.998    -0.000
     In    27      S                    0.710     0.711    -0.000
     In    27      Px                   0.240     0.240    -0.000
     In    27      Py                   0.239     0.239    -0.000
     In    27      Pz                   0.240     0.240     0.000
     In    27      S                   -0.266    -0.267     0.001
     In    28      Dzz                  1.000     1.000    -0.000
     In    28      Dzy                  0.998     0.998    -0.000
     In    28      Dzx                  0.998     0.998     0.000
     In    28      Dxx-yy               1.000     1.000    -0.000
     In    28      Dxy                  0.998     0.998     0.000
     In    28      S                    0.707     0.707     0.000
     In    28      Px                   0.241     0.241    -0.000
     In    28      Py                   0.241     0.241    -0.000
     In    28      Pz                   0.243     0.242     0.000
     In    28      S                   -0.265    -0.266     0.000
     In    29      Dzz                  0.999     0.999     0.000
     In    29      Dzy                  0.999     0.999     0.000
     In    29      Dzx                  0.998     0.998     0.000
     In    29      Dxx-yy               0.999     0.999     0.000
     In    29      Dxy                  0.998     0.998     0.000
     In    29      S                    0.722     0.727    -0.005
     In    29      Px                   0.244     0.247    -0.003
     In    29      Py                   0.242     0.240     0.001
     In    29      Pz                   0.242     0.240     0.001
     In    29      S                   -0.274    -0.278     0.004
     In    30      Dzz                  1.000     1.000     0.000
     In    30      Dzy                  0.998     0.998     0.000
     In    30      Dzx                  0.998     0.998     0.000
     In    30      Dxx-yy               1.000     1.000     0.000
     In    30      Dxy                  0.998     0.998     0.000
     In    30      S                    0.709     0.708     0.000
     In    30      Px                   0.240     0.240    -0.000
     In    30      Py                   0.243     0.242     0.001
     In    30      Pz                   0.240     0.240     0.000
     In    30      S                   -0.265    -0.265    -0.001
     In    31      Dzz                  1.000     1.000    -0.000
     In    31      Dzy                  0.998     0.998    -0.000
     In    31      Dzx                  0.998     0.998     0.000
     In    31      Dxx-yy               1.000     1.000    -0.000
     In    31      Dxy                  0.998     0.998     0.000
     In    31      S                    0.708     0.709    -0.000
     In    31      Px                   0.246     0.247    -0.001
     In    31      Py                   0.242     0.242    -0.000
     In    31      Pz                   0.242     0.242    -0.000
     In    31      S                   -0.265    -0.265     0.000
     In    32      Dzz                  1.000     1.000    -0.000
     In    32      Dzy                  0.998     0.998     0.000
     In    32      Dzx                  0.998     0.998     0.000
     In    32      Dxx-yy               1.000     1.000     0.000
     In    32      Dxy                  0.998     0.998     0.000
     In    32      S                    0.709     0.708     0.000
     In    32      Px                   0.240     0.240    -0.000
     In    32      Py                   0.240     0.240     0.000
     In    32      Pz                   0.243     0.242     0.001
     In    32      S                   -0.265    -0.265    -0.001
  ---------------------------------------------------------------
                           Total:     290.999   290.000     0.999
  ---------------------------------------------------------------

     Atomic Populations (Mulliken)
     -----------------------------
Species          Ion Spin      s       p       d       f      Total   Charge(e)   Spin(hbar/2)
==============================================================================================
  P               1   up:     0.872   1.955   0.000   0.000   2.827    -0.636        0.019
                  1   dn:     0.868   1.941   0.000   0.000   2.809
  P               2   up:     0.872   1.966   0.000   0.000   2.838    -0.656        0.020
                  2   dn:     0.871   1.947   0.000   0.000   2.818
  P               3   up:     0.872   1.955   0.000   0.000   2.827    -0.636        0.019
                  3   dn:     0.868   1.941   0.000   0.000   2.809
  P               4   up:     0.865   1.957   0.000   0.000   2.822    -0.511        0.133
                  4   dn:     0.862   1.827   0.000   0.000   2.689
  P               5   up:     0.867   1.972   0.000   0.000   2.839    -0.674        0.005
                  5   dn:     0.867   1.968   0.000   0.000   2.835
  P               6   up:     0.868   1.969   0.000   0.000   2.837    -0.674        0.000
                  6   dn:     0.868   1.969   0.000   0.000   2.837
  P               7   up:     0.869   1.981   0.000   0.000   2.849    -0.664        0.035
                  7   dn:     0.865   1.950   0.000   0.000   2.815
  P               8   up:     0.867   1.971   0.000   0.000   2.838    -0.676       -0.000
                  8   dn:     0.867   1.971   0.000   0.000   2.838
  P               9   up:     0.869   1.981   0.000   0.000   2.849    -0.664        0.034
                  9   dn:     0.865   1.950   0.000   0.000   2.815
  P              10   up:     0.868   1.969   0.000   0.000   2.837    -0.674        0.000
                 10   dn:     0.868   1.969   0.000   0.000   2.837
  P              11   up:     0.867   1.972   0.000   0.000   2.839    -0.674        0.005
                 11   dn:     0.867   1.968   0.000   0.000   2.835
  P              12   up:     0.867   1.971   0.000   0.000   2.838    -0.676       -0.000
                 12   dn:     0.867   1.971   0.000   0.000   2.838
  P              13   up:     0.867   1.970   0.000   0.000   2.837    -0.674       -0.000
                 13   dn:     0.867   1.971   0.000   0.000   2.837
  P              14   up:     0.866   1.968   0.000   0.000   2.834    -0.669       -0.002
                 14   dn:     0.867   1.969   0.000   0.000   2.836
  P              15   up:     0.867   1.970   0.000   0.000   2.837    -0.674       -0.000
                 15   dn:     0.867   1.971   0.000   0.000   2.837
  P              16   up:     0.865   1.972   0.000   0.000   2.837    -0.676       -0.002
                 16   dn:     0.865   1.974   0.000   0.000   2.839
  P              17   up:     0.868   1.977   0.000   0.000   2.845    -0.674        0.017
                 17   dn:     0.866   1.962   0.000   0.000   2.828
  P              18   up:     0.867   1.970   0.000   0.000   2.837    -0.674       -0.001
                 18   dn:     0.867   1.970   0.000   0.000   2.837
  P              19   up:     0.868   1.977   0.000   0.000   2.845    -0.674        0.017
                 19   dn:     0.866   1.962   0.000   0.000   2.828
  P              20   up:     0.866   1.972   0.000   0.000   2.838    -0.678       -0.001
                 20   dn:     0.867   1.973   0.000   0.000   2.839
  P              21   up:     0.866   1.972   0.000   0.000   2.838    -0.675        0.001
                 21   dn:     0.866   1.971   0.000   0.000   2.837
  P              22   up:     0.866   1.973   0.000   0.000   2.839    -0.675        0.002
                 22   dn:     0.866   1.971   0.000   0.000   2.837
  P              23   up:     0.868   1.972   0.000   0.000   2.840    -0.676        0.005
                 23   dn:     0.867   1.969   0.000   0.000   2.836
  P              24   up:     0.864   1.978   0.000   0.000   2.842    -0.679        0.006
                 24   dn:     0.864   1.973   0.000   0.000   2.836
  P              25   up:     0.868   1.972   0.000   0.000   2.840    -0.676        0.005
                 25   dn:     0.867   1.969   0.000   0.000   2.836
  P              26   up:     0.866   1.973   0.000   0.000   2.839    -0.675        0.002
                 26   dn:     0.866   1.971   0.000   0.000   2.837
  P              27   up:     0.866   1.972   0.000   0.000   2.838    -0.675        0.001
                 27   dn:     0.866   1.971   0.000   0.000   2.837
  P              28   up:     0.864   1.978   0.000   0.000   2.842    -0.679        0.006
                 28   dn:     0.864   1.972   0.000   0.000   2.836
  P              29   up:     0.867   1.970   0.000   0.000   2.837    -0.674        0.000
                 29   dn:     0.867   1.970   0.000   0.000   2.837
  P              30   up:     0.866   1.971   0.000   0.000   2.838    -0.676       -0.000
                 30   dn:     0.866   1.972   0.000   0.000   2.838
  P              31   up:     0.867   1.970   0.000   0.000   2.837    -0.674        0.000
                 31   dn:     0.867   1.970   0.000   0.000   2.837
  P              32   up:     0.867   1.970   0.000   0.000   2.838    -0.675       -0.000
                 32   dn:     0.867   1.970   0.000   0.000   2.838
  P              33   up:     0.925   2.094   0.000   0.000   3.019    -0.360        0.678
                 33   dn:     0.910   1.431   0.000   0.000   2.341
  In              1   up:     0.440   0.724   4.995   0.000   6.158     0.682       -0.001
                  1   dn:     0.441   0.724   4.995   0.000   6.159
  In              2   up:     0.449   0.710   4.995   0.000   6.154     0.693        0.001
                  2   dn:     0.447   0.711   4.995   0.000   6.153
  In              3   up:     0.453   0.718   4.995   0.000   6.166     0.680        0.012
                  3   dn:     0.445   0.714   4.995   0.000   6.154
  In              4   up:     0.449   0.710   4.995   0.000   6.154     0.693        0.001
                  4   dn:     0.447   0.711   4.995   0.000   6.153
  In              5   up:     0.449   0.731   4.994   0.000   6.175     0.661        0.010
                  5   dn:     0.446   0.724   4.994   0.000   6.165
  In              6   up:     0.442   0.720   4.995   0.000   6.157     0.687        0.000
                  6   dn:     0.441   0.721   4.995   0.000   6.156
  In              7   up:     0.447   0.734   4.994   0.000   6.175     0.653        0.003
                  7   dn:     0.447   0.731   4.994   0.000   6.172
  In              8   up:     0.433   0.708   4.995   0.000   6.136     0.716       -0.011
                  8   dn:     0.439   0.715   4.994   0.000   6.147
  In              9   up:     0.449   0.731   4.994   0.000   6.175     0.661        0.010
                  9   dn:     0.446   0.724   4.994   0.000   6.165
  In             10   up:     0.433   0.708   4.995   0.000   6.136     0.716       -0.011
                 10   dn:     0.439   0.715   4.994   0.000   6.147
  In             11   up:     0.447   0.734   4.994   0.000   6.175     0.653        0.003
                 11   dn:     0.447   0.731   4.994   0.000   6.172
  In             12   up:     0.442   0.720   4.995   0.000   6.157     0.687        0.000
                 12   dn:     0.441   0.721   4.995   0.000   6.156
  In             13   up:     0.448   0.719   4.995   0.000   6.162     0.674       -0.001
                 13   dn:     0.450   0.719   4.995   0.000   6.164
  In             14   up:     0.446   0.719   4.995   0.000   6.160     0.679       -0.002
                 14   dn:     0.447   0.720   4.995   0.000   6.162
  In             15   up:     0.441   0.723   4.995   0.000   6.159     0.683        0.000
                 15   dn:     0.441   0.723   4.995   0.000   6.158
  In             16   up:     0.446   0.719   4.995   0.000   6.160     0.679       -0.002
                 16   dn:     0.447   0.720   4.995   0.000   6.162
  In             17   up:     0.443   0.735   4.994   0.000   6.171     0.655       -0.002
                 17   dn:     0.444   0.737   4.994   0.000   6.174
  In             18   up:     0.442   0.726   4.994   0.000   6.163     0.677        0.002
                 18   dn:     0.442   0.724   4.994   0.000   6.160
  In             19   up:     0.450   0.733   4.993   0.000   6.176     0.615       -0.034
                 19   dn:     0.464   0.753   4.992   0.000   6.210
  In             20   up:     0.442   0.726   4.994   0.000   6.163     0.677        0.002
                 20   dn:     0.442   0.724   4.994   0.000   6.160
  In             21   up:     0.446   0.718   4.995   0.000   6.158     0.689        0.005
                 21   dn:     0.441   0.717   4.995   0.000   6.153
  In             22   up:     0.442   0.725   4.994   0.000   6.161     0.680        0.001
                 22   dn:     0.441   0.724   4.994   0.000   6.160
  In             23   up:     0.444   0.719   4.995   0.000   6.158     0.684        0.000
                 23   dn:     0.444   0.720   4.995   0.000   6.158
  In             24   up:     0.442   0.723   4.995   0.000   6.159     0.683        0.001
                 24   dn:     0.442   0.721   4.995   0.000   6.158
  In             25   up:     0.446   0.718   4.995   0.000   6.158     0.689        0.005
                 25   dn:     0.441   0.717   4.995   0.000   6.153
  In             26   up:     0.442   0.723   4.995   0.000   6.159     0.683        0.001
                 26   dn:     0.442   0.721   4.995   0.000   6.158
  In             27   up:     0.444   0.719   4.995   0.000   6.158     0.684        0.000
                 27   dn:     0.444   0.720   4.995   0.000   6.158
  In             28   up:     0.442   0.725   4.994   0.000   6.161     0.680        0.001
                 28   dn:     0.441   0.724   4.994   0.000   6.160
  In             29   up:     0.448   0.728   4.994   0.000   6.170     0.660       -0.001
                 29   dn:     0.449   0.728   4.994   0.000   6.171
  In             30   up:     0.443   0.723   4.994   0.000   6.160     0.680        0.000
                 30   dn:     0.444   0.722   4.994   0.000   6.160
  In             31   up:     0.443   0.730   4.994   0.000   6.167     0.665       -0.001
                 31   dn:     0.444   0.730   4.994   0.000   6.168
  In             32   up:     0.443   0.723   4.994   0.000   6.160     0.680        0.000
                 32   dn:     0.444   0.722   4.994   0.000   6.160
==============================================================================================

                 Bond                   Population        Spin       Length (A)
================================================================================
              P 4  -- P 33                   0.38        -0.10          2.13935
              P 33 -- In 19                  0.91        -0.02          2.41913
              P 2  -- In 17                  0.72         0.00          2.47594
              P 19 -- In 19                  0.66        -0.00          2.51192
              P 17 -- In 19                  0.66        -0.00          2.51192
              P 4  -- In 29                  0.67        -0.00          2.51859
              P 14 -- In 31                  0.67         0.00          2.52356
              P 7  -- In 7                   0.65        -0.00          2.52366
              P 9  -- In 11                  0.65        -0.00          2.52366
              P 28 -- In 18                  0.68        -0.00          2.52370
              P 24 -- In 20                  0.68        -0.00          2.52370
              P 16 -- In 31                  0.66         0.00          2.52497
              P 9  -- In 10                  0.66        -0.02          2.52598
              P 7  -- In 8                   0.66        -0.02          2.52598
              P 16 -- In 17                  0.63         0.00          2.52653
              P 28 -- In 11                  0.65        -0.00          2.52916
              P 24 -- In 7                   0.65        -0.00          2.52916
              P 23 -- In 29                  0.65        -0.00          2.53817
              P 25 -- In 29                  0.65        -0.00          2.53817
              P 3  -- In 9                   0.64        -0.00          2.53958
              P 1  -- In 5                   0.64        -0.00          2.53958
              P 17 -- In 18                  0.63        -0.00          2.53992
              P 19 -- In 20                  0.63        -0.00          2.53992
              P 26 -- In 26                  0.67         0.00          2.53998
              P 22 -- In 24                  0.67         0.00          2.53998
              P 6  -- In 8                   0.68         0.00          2.54011
              P 10 -- In 10                  0.68         0.00          2.54011
              P 28 -- In 5                   0.66        -0.00          2.54155
              P 24 -- In 9                   0.66        -0.00          2.54155
              P 21 -- In 22                  0.66        -0.00          2.54313
              P 27 -- In 28                  0.66        -0.00          2.54313
              P 27 -- In 17                  0.65        -0.00          2.54337
              P 21 -- In 17                  0.65        -0.00          2.54337
              P 8  -- In 25                  0.66         0.00          2.54340
              P 12 -- In 21                  0.66         0.00          2.54340
              P 11 -- In 11                  0.65        -0.00          2.54364
              P 5  -- In 7                   0.65        -0.00          2.54364
              P 28 -- In 32                  0.67         0.00          2.54369
              P 24 -- In 30                  0.67         0.00          2.54369
              P 22 -- In 7                   0.65        -0.00          2.54510
              P 26 -- In 11                  0.65        -0.00          2.54511
              P 20 -- In 24                  0.66         0.00          2.54516
              P 20 -- In 26                  0.66         0.00          2.54516
              P 13 -- In 14                  0.66         0.00          2.54560
              P 15 -- In 16                  0.66         0.00          2.54560
              P 1  -- In 3                   0.67        -0.00          2.54578
              P 3  -- In 3                   0.67        -0.00          2.54578
              P 30 -- In 30                  0.67         0.00          2.54613
              P 30 -- In 32                  0.67         0.00          2.54613
              P 30 -- In 13                  0.66         0.00          2.54687
              P 26 -- In 28                  0.67         0.00          2.54702
              P 22 -- In 22                  0.67         0.00          2.54702
              P 18 -- In 18                  0.67         0.00          2.54723
              P 18 -- In 20                  0.67         0.00          2.54723
              P 5  -- In 1                   0.68        -0.00          2.54806
              P 11 -- In 1                   0.68        -0.00          2.54806
              P 29 -- In 30                  0.67        -0.00          2.54808
              P 31 -- In 32                  0.67        -0.00          2.54808
              P 23 -- In 24                  0.65         0.00          2.54823
              P 25 -- In 26                  0.65         0.00          2.54823
              P 27 -- In 18                  0.67         0.00          2.54849
              P 21 -- In 20                  0.67         0.00          2.54849
              P 16 -- In 12                  0.68         0.00          2.54856
              P 16 -- In 6                   0.68         0.00          2.54856
              P 31 -- In 22                  0.67         0.00          2.54923
              P 29 -- In 28                  0.67         0.00          2.54923
              P 15 -- In 6                   0.67         0.00          2.54982
              P 13 -- In 12                  0.67         0.00          2.54982
              P 20 -- In 13                  0.65         0.00          2.55009
              P 15 -- In 15                  0.67        -0.00          2.55012
              P 13 -- In 15                  0.67        -0.00          2.55012
              P 18 -- In 1                   0.66         0.00          2.55111
              P 9  -- In 13                  0.67        -0.00          2.55112
              P 7  -- In 13                  0.67        -0.00          2.55112
              P 32 -- In 15                  0.65         0.00          2.55126
              P 6  -- In 23                  0.66         0.00          2.55135
              P 10 -- In 27                  0.66         0.00          2.55135
              P 12 -- In 27                  0.66         0.00          2.55156
              P 8  -- In 23                  0.66         0.00          2.55156
              P 30 -- In 15                  0.66        -0.00          2.55225
              P 1  -- In 8                   0.64         0.00          2.55242
              P 3  -- In 10                  0.64         0.00          2.55242
              P 32 -- In 28                  0.66         0.00          2.55259
              P 32 -- In 22                  0.66         0.00          2.55259
              P 22 -- In 5                   0.65        -0.00          2.55295
              P 26 -- In 9                   0.65        -0.00          2.55295
              P 14 -- In 16                  0.67         0.00          2.55340
              P 14 -- In 14                  0.67         0.00          2.55340
              P 25 -- In 32                  0.64        -0.00          2.55355
              P 23 -- In 30                  0.64        -0.00          2.55355
              P 8  -- In 4                   0.65         0.00          2.55371
              P 12 -- In 2                   0.65         0.00          2.55371
              P 25 -- In 27                  0.67         0.00          2.55383
              P 23 -- In 23                  0.67         0.00          2.55383
              P 11 -- In 12                  0.66         0.00          2.55410
              P 5  -- In 6                   0.66         0.00          2.55410
              P 32 -- In 1                   0.66         0.00          2.55543
              P 20 -- In 3                   0.65         0.00          2.55628
              P 29 -- In 31                  0.65         0.00          2.55683
              P 31 -- In 31                  0.65         0.00          2.55683
              P 10 -- In 25                  0.66         0.00          2.55685
              P 6  -- In 21                  0.66         0.00          2.55685
              P 21 -- In 23                  0.67         0.00          2.55732
              P 27 -- In 27                  0.67         0.00          2.55732
              P 13 -- In 9                   0.65        -0.00          2.55748
              P 15 -- In 5                   0.65        -0.00          2.55748
              P 4  -- In 8                   0.55         0.02          2.55867
              P 4  -- In 10                  0.55         0.02          2.55867
              P 11 -- In 2                   0.64        -0.01          2.55922
              P 5  -- In 4                   0.64        -0.01          2.55922
              P 17 -- In 24                  0.64        -0.00          2.56033
              P 19 -- In 26                  0.64        -0.00          2.56033
              P 9  -- In 16                  0.65         0.00          2.56063
              P 7  -- In 14                  0.65         0.00          2.56063
              P 17 -- In 21                  0.67         0.00          2.56236
              P 19 -- In 25                  0.67         0.00          2.56236
              P 10 -- In 12                  0.64         0.00          2.56270
              P 6  -- In 6                   0.64         0.00          2.56270
              P 12 -- In 16                  0.64         0.00          2.56290
              P 8  -- In 14                  0.64         0.00          2.56290
              P 29 -- In 25                  0.64        -0.00          2.56450
              P 31 -- In 21                  0.64        -0.00          2.56450
              P 2  -- In 2                   0.66         0.00          2.56465
              P 2  -- In 4                   0.66         0.00          2.56465
              P 18 -- In 3                   0.66         0.00          2.56625
              P 14 -- In 29                  0.59         0.00          2.56849
              P 3  -- In 4                   0.63         0.00          2.57804
              P 1  -- In 2                   0.63         0.00          2.57804
              P 2  -- In 19                  0.33         0.01          2.73507
              P 2  -- P 33                  -0.26        -0.02          2.90911
================================================================================

 Hirshfeld supercell size:           2           2           2
Standard grid dimensions: 240 240 240
Fine grid dimensions:     240 240 240


     Hirshfeld Analysis
     ------------------
Species   Ion     Hirshfeld Charge (e)  Spin (hbar/2)
===================================================
  P        1                -0.23        0.02
  P        2                -0.25        0.02
  P        3                -0.23        0.02
  P        4                -0.18        0.14
  P        5                -0.24        0.00
  P        6                -0.23        0.00
  P        7                -0.24        0.02
  P        8                -0.24        0.00
  P        9                -0.24        0.02
  P       10                -0.23        0.00
  P       11                -0.24        0.00
  P       12                -0.24        0.00
  P       13                -0.24        0.00
  P       14                -0.24       -0.00
  P       15                -0.24        0.00
  P       16                -0.24       -0.00
  P       17                -0.24        0.01
  P       18                -0.24        0.00
  P       19                -0.24        0.01
  P       20                -0.24        0.00
  P       21                -0.24        0.00
  P       22                -0.24        0.00
  P       23                -0.23        0.00
  P       24                -0.24        0.01
  P       25                -0.23        0.00
  P       26                -0.24        0.00
  P       27                -0.24        0.00
  P       28                -0.24        0.01
  P       29                -0.24        0.00
  P       30                -0.24        0.00
  P       31                -0.24        0.00
  P       32                -0.24        0.00
  P       33                -0.13        0.50
  In       1                 0.24        0.00
  In       2                 0.25        0.01
  In       3                 0.25        0.00
  In       4                 0.25        0.01
  In       5                 0.23        0.01
  In       6                 0.24        0.00
  In       7                 0.23        0.01
  In       8                 0.25        0.03
  In       9                 0.23        0.01
  In      10                 0.25        0.03
  In      11                 0.23        0.01
  In      12                 0.24        0.00
  In      13                 0.24        0.00
  In      14                 0.24        0.00
  In      15                 0.24        0.00
  In      16                 0.24        0.00
  In      17                 0.22        0.00
  In      18                 0.23        0.00
  In      19                 0.21        0.03
  In      20                 0.23        0.00
  In      21                 0.25        0.00
  In      22                 0.24        0.00
  In      23                 0.24        0.00
  In      24                 0.24        0.00
  In      25                 0.25        0.00
  In      26                 0.24        0.00
  In      27                 0.24        0.00
  In      28                 0.24        0.00
  In      29                 0.24        0.01
  In      30                 0.24        0.00
  In      31                 0.23       -0.00
  In      32                 0.24        0.00
===================================================

 
 A BibTeX formatted list of references used in this run has been written to 
 P_Interstitial_Migration_Dumbbell#_Dumbbell+_Singlepoints_2.bib
 
Initialisation time =     30.35 s
Calculation time    =   7935.69 s
Finalisation time   =    162.28 s
Total time          =   8128.32 s
Peak Memory Use     = 9648136 kB
 
Overall parallel efficiency rating: Terrible (34%)
 
Data was distributed by:-
G-vector (3-way); efficiency rating: Poor (37%)
k-point (36-way); efficiency rating: Very good (83%)
