 +-------------------------------------------------+
 |                                                 |
 |      CCC   AA    SSS  TTTTT  EEEEE  PPPP        |
 |     C     A  A  S       T    E      P   P       |
 |     C     AAAA   SS     T    EEE    PPPP        |
 |     C     A  A     S    T    E      P           |
 |      CCC  A  A  SSS     T    EEEEE  P           |
 |                                                 |
 +-------------------------------------------------+
 |                                                 |
 | Welcome to Academic Release CASTEP version 24.1 |
 | Ab Initio Total Energy Program                  |
 |                                                 |
 | Authors:                                        |
 | M. Segall, M. Probert, C. Pickard, P. Hasnip,   |
 | S. Clark, K. Refson, J. R. Yates,               |
 | A. Bartok-Partay, M. Payne                      |
 |                                                 |
 | Contributors:                                   |
 | P. Lindan, P. Haynes, J. White, V. Milman,      |
 | N. Govind, M. Gibson, P. Tulip, V. Cocula,      |
 | B. Montanari, D. Quigley, M. Glover,            |
 | L. Bernasconi, A. Perlov, M. Plummer,           |
 | E. McNellis, J. Meyer, J. Gale, D. Jochym       |
 | J. Aarons, B. Walker, R. Gillen, D. Jones       |
 | T. Green, I. J. Bush, C. J. Armstrong,          |
 | E. J. Higgins, E. L. Brown, M. S. McFly,        |
 | J. Wilkins, B-C. Shih, P. J. P. Byrne,          |
 | R. J. Maurer, J. C. Womack, J. Dziedzic,        |
 | L. LeBlanc, T. K. Stenczel, J. Kermode,         |
 | S. Sturniolo, B. Shi, B. Durham, M. Evans,      |
 | M. J. Smith, A. Tamerus, Z. Hawkhead,           |
 | V. Ravindran, T. Hollins, S. A. Joyce,          |
 | R. T. Strong, A. M. Reilly, S. J. Donaldson     |
 |                                                 |
 | Copyright (c) 2000 - 2023                       |
 |                                                 |
 |     Distributed under license from Cambridge    |
 |     Enterprise for academic use only.           |
 |                                                 |
 | Please cite                                     |
 |                                                 |
 |     "First principles methods using CASTEP"     |
 |                                                 |
 |         Zeitschrift fuer Kristallographie       |
 |           220(5-6) pp. 567-570 (2005)           |
 |                                                 |
 | S. J. Clark, M. D. Segall, C. J. Pickard,       |
 | P. J. Hasnip, M. J. Probert, K. Refson,         |
 | M. C. Payne                                     |
 |                                                 |
 |       in all publications arising from          |
 |              your use of CASTEP                 |
 |                                                 |
 +-------------------------------------------------+
 |                                                 |
 |              http://www.castep.org              |
 |                                                 |
 +-------------------------------------------------+



 Compiled for  GNU 11.2.0 on 04-04-2024 18:39:17
 from code version 6355fd106 Castep241_branch Thu Mar 7 17:56:19 2024 +0000
 Compiler: GNU Fortran 11.2.0; Optimisation: FAST
 Comms   : MPI VERSION : CRAY MPICH version 8.1.23.14 (ANL base 3.4a2)
 MATHLIBS: default (LAPACK version 3.10.1)
 FFT Lib : fftw3 version commercial-fftw-3.3.10-sse2-avx-avx2-avx2_128
 Fundamental constants values: CODATA 2018

 Run started: Wed, 30 Jul 2025 15:16:32 +0100

 Atomic calculation performed for P: 1s2 2s2 2p6 3s2 3p3

 Converged in 47 iterations to an ae energy of -9309.074 eV

   ============================================================                
   | Pseudopotential Report - Date of generation 30-07-2025   |                
   ------------------------------------------------------------                
   | Element: P Ionic charge:  5.00 Level of theory: RSCAN    |                
   | Atomic Solver: Koelling-Harmon                           |                
   |                                                          |                
   |               Reference Electronic Structure             |                
   |         Orbital         Occupation         Energy        |                
   |            3s              2.000           -0.535        |                
   |            3p              3.000           -0.209        |                
   |                                                          |                
   |                 Pseudopotential Definition               |                
   |        Beta     l      e      Rc     scheme   norm       |                
   |          1      0   -0.535   1.807     qc      0         |                
   |          2      0    0.250   1.807     qc      0         |                
   |          3      1   -0.209   1.807     qc      0         |                
   |          4      1    0.250   1.807     qc      0         |                
   |          5      2    0.000   1.807     qc      0         |                
   |          6      2    0.250   1.807     qc      0         |                
   |         loc     3    0.000   1.807     pn      0         |                
   |                                                          |                
   | Augmentation charge Rinner = 1.263                       |                
   | Partial core correction Rc = 1.263                       |                
   ------------------------------------------------------------                
   | "3|1.8|4|4|5|30:31:32"                                   |                
   ------------------------------------------------------------                
   |      Author: Chris J. Pickard, Cambridge University      |                
   ============================================================                
 Warning: otfg_output_psp cannot write out meta-GGA pseudopotentials presently.

 Atomic calculation performed for In:
 1s2 2s2 2p6 3s2 3p6 3d10 4s2 4p6 4d10 5s2 5p1

 Converged in 84 iterations to an ae energy of -160093.328 eV

   ============================================================                
   | Pseudopotential Report - Date of generation 30-07-2025   |                
   ------------------------------------------------------------                
   | Element: In Ionic charge: 13.00 Level of theory: RSCAN   |                
   | Atomic Solver: Koelling-Harmon                           |                
   |                                                          |                
   |               Reference Electronic Structure             |                
   |         Orbital         Occupation         Energy        |                
   |            4d             10.000           -0.711        |                
   |            5s              2.000           -0.313        |                
   |            5p              1.000           -0.095        |                
   |                                                          |                
   |                 Pseudopotential Definition               |                
   |        Beta     l      e      Rc     scheme   norm       |                
   |          1      0   -0.313   2.501     qc      0         |                
   |          2      0    0.250   2.501     qc      0         |                
   |          3      1   -0.095   2.501     qc      0         |                
   |          4      1    0.250   2.501     qc      0         |                
   |          5      2   -0.711   2.207     qc      0         |                
   |          6      2    0.250   2.207     qc      0         |                
   |         loc     3    0.000   2.501     pn      0         |                
   |                                                          |                
   | Augmentation charge Rinner = 1.504                       |                
   | Partial core correction Rc = 1.504                       |                
   ------------------------------------------------------------                
   | "3|2.5|2.5|1.5|7|8|9|50:51:42U2.2U2.2"                   |                
   ------------------------------------------------------------                
   |      Author: Chris J. Pickard, Cambridge University      |                
   ============================================================                
 Warning: otfg_output_psp cannot write out meta-GGA pseudopotentials presently.

 Pseudo atomic calculation performed for P 3s2 3p3

 Converged in 23 iterations to a total energy of -208.0292 eV

 Pseudo atomic calculation performed for In 4d10 5s2 5p1

 Converged in 42 iterations to a total energy of -1747.4501 eV
 Calculation parallelised over 120 processes.
 Data is distributed by G-vector(6-way) and k-point(20-way)
 Each process may use up to 16 threads.

 ************************************ Title ************************************
 

 ***************************** General Parameters ******************************
  
 output verbosity                               : normal  (1)
 write checkpoint data to                       : 30deg_Singlepoints_2.check
 type of calculation                            : single point energy
 stress calculation                             : off
 density difference calculation                 : off
 electron localisation func (ELF) calculation   : off
 Hirshfeld analysis                             : on
 polarisation (Berry phase) analysis            : off
 molecular orbital projected DOS                : off
 deltaSCF calculation                           : off
 unlimited duration calculation
 timing information                             : on
 memory usage estimate                          : on
 write extra output files                       : on
 write final potential to formatted file        : off
 write final density to formatted file          : off
 write BibTeX reference list                    : on
 write OTFG pseudopotential files               : on
 write electrostatic potential file             : on
 write bands file                               : on
 checkpoint writing                             : off
  
 output         length unit                     : A
 output           mass unit                     : amu
 output           time unit                     : ps
 output         charge unit                     : e
 output           spin unit                     : hbar/2
 output         energy unit                     : eV
 output          force unit                     : eV/A
 output       velocity unit                     : A/ps
 output       pressure unit                     : GPa
 output     inv_length unit                     : 1/A
 output      frequency unit                     : cm-1
 output force constant unit                     : eV/A**2
 output         volume unit                     : A**3
 output   IR intensity unit                     : (D/A)**2/amu
 output         dipole unit                     : D
 output         efield unit                     : eV/A/e
 output        entropy unit                     : J/mol/K
 output    efield chi2 unit                     : pm/V
  
 wavefunctions paging                           : none
 random number generator seed                   :  151632747
 data distribution                              : optimal for this architecture
 optimization strategy                          : balance speed and memory

 *********************** Exchange-Correlation Parameters ***********************
  
 using functional                               : RSCAN
 relativistic treatment                         : Koelling-Harmon
 DFT+D: Semi-empirical dispersion correction    : off

 ************************* Pseudopotential Parameters **************************
  
 pseudopotential representation                 : reciprocal space
 <beta|phi> representation                      : reciprocal space
 spin-orbit coupling                            : off

 **************************** Basis Set Parameters *****************************
  
 plane wave basis set cut-off                   :   900.0000   eV
 size of standard grid                          :     2.0000
 size of   fine   gmax                          :    30.7390   1/A
 finite basis set correction                    : none

 **************************** Electronic Parameters ****************************
  
 number of  electrons                           :  864.0    
 net charge of system                           :  0.000    
 treating system as non-spin-polarized
 number of bands                                :        518

 ********************* Electronic Minimization Parameters **********************
  
 Method: Treating system as metallic with density mixing treatment of electrons,
         and number of  SD  steps               :          1
         and number of  CG  steps               :          4
  
 total energy / atom convergence tol.           : 0.1000E-07   eV
 eigen-energy convergence tolerance             : 0.2222E-08   eV
 max force / atom convergence tol.              : ignored
 convergence tolerance window                   :          3   cycles
 max. number of SCF cycles                      :        100
 number of fixed-spin iterations                :         10
 smearing scheme                                : Gaussian
 smearing width                                 : 0.2000       eV
 Fermi energy convergence tolerance             : 0.2721E-13   eV
 periodic dipole correction                     : NONE

 ************************** Density Mixing Parameters **************************
  
 density-mixing scheme                          : Pulay
 max. length of mixing history                  :         20
 charge density mixing amplitude                : 0.5000    
 cut-off energy for mixing                      :  900.0       eV

 *********************** Population Analysis Parameters ************************
  
 Population analysis with cutoff                :  3.000       A
 Population analysis output                     : summary and pdos components

 *******************************************************************************
  

                           -------------------------------
                                      Unit Cell
                           -------------------------------
        Real Lattice(A)                      Reciprocal Lattice(1/A)
    14.4540490    20.4411120     0.0000000        0.217350353   0.153689910   0.000000000
    14.4540490   -20.4411120     0.0000000        0.217350353  -0.153689910   0.000000000
     0.0000000     0.0000000     4.1725250        0.000000000   0.000000000   1.505847252

                       Lattice parameters(A)       Cell Angles
                    a =     25.035147          alpha =   90.000000
                    b =     25.035147          beta  =   90.000000
                    c =      4.172525          gamma =  109.471220

                       Current cell volume =          2465.602056       A**3
                                   density =             2.838254   AMU/A**3
                                           =             4.713031     g/cm^3

                           -------------------------------
                                     Cell Contents
                           -------------------------------
                         Total number of ions in cell =   96
                      Total number of species in cell =    2
                        Max number of any one species =   48

            xxxxxxxxxxxxxxxxxxxxxxxxxxxxxxxxxxxxxxxxxxxxxxxxxxxxxxxxxxxx
            x  Element    Atom        Fractional coordinates of atoms  x
            x            Number           u          v          w      x
            x----------------------------------------------------------x
            x  P            1         0.345336   0.365760   0.743374   x 
            x  P            2         0.196727   0.216232   0.505505   x 
            x  P            3         0.363413   0.208204   0.543955   x 
            x  P            4         0.482342   0.334850   0.105847   x 
            x  P            5         0.405793   0.087677   0.021240   x 
            x  P            6         0.530810   0.213764   0.551216   x 
            x  P            7         0.574140   0.092899  -0.000341   x 
            x  P            8         0.448599   0.967014   0.479668   x 
            x  P            9         0.617301   0.972055   0.446417   x 
            x  P           10         0.742819   0.096882  -0.013501   x 
            x  P           11         0.660913   0.851261   0.882086   x 
            x  P           12         0.784688   0.974259   0.460577   x 
            x  P           13         0.591681   0.612144   0.776361   x 
            x  P           14         0.468604   0.490023   0.254739   x 
            x  P           15         0.605753   0.459083   0.631956   x 
            x  P           16         0.729768   0.584304   0.143159   x 
            x  P           17         0.653973   0.339285   0.072748   x 
            x  P           18         0.778020   0.464047   0.580199   x 
            x  P           19         0.824620   0.343245   0.032379   x 
            x  P           20         0.699633   0.218386   0.522395   x 
            x  P           21         0.868784   0.221184   0.499375   x 
            x  P           22         0.995282   0.346604  -0.004064   x 
            x  P           23         0.910408   0.097350  -0.014171   x 
            x  P           24         0.037034   0.222659   0.485354   x 
            x  P           25         0.824134   0.848584   1.075372   x 
            x  P           26         0.712679   0.736279   0.244034   x 
            x  P           27         0.855141   0.712907   0.617468   x 
            x  P           28         0.984137   0.840529   0.049769   x 
            x  P           29         0.901282   0.590407   0.065912   x 
            x  P           30         0.025309   0.716586   0.530348   x 
            x  P           31         0.072270   0.594040   1.004479   x 
            x  P           32         0.948688   0.468605   0.526018   x 
            x  P           33         0.119918   0.471997   0.477002   x 
            x  P           34         0.243496   0.598216   0.935158   x 
            x  P           35         0.166821   0.348992   0.966707   x 
            x  P           36         0.290669   0.477266   0.379852   x 
            x  P           37         0.072665   0.093142   0.009837   x 
            x  P           38         0.949044   0.970431   0.499415   x 
            x  P           39         0.110793   0.964642   0.524883   x 
            x  P           40         0.236174   0.088016   0.022729   x 
            x  P           41         0.152651   0.840906   1.009817   x 
            x  P           42         0.278944   0.965221   0.506246   x 
            x  P           43         0.322349   0.843387   0.972390   x 
            x  P           44         0.196649   0.719129   0.480228   x 
            x  P           45         0.367729   0.722850   0.423151   x 
            x  P           46         0.492493   0.846639   0.928376   x 
            x  P           47         0.415113   0.603067   0.862977   x 
            x  P           48         0.538539   0.726749   0.367660   x 
            x  In           1         0.270402   0.414437   0.875984   x 
            x  In           2         0.141330   0.286103   0.472712   x 
            x  In           3         0.299202   0.265090   0.599248   x 
            x  In           4         0.411307   0.386651   0.231465   x 
            x  In           5         0.340747   0.145965   0.039324   x 
            x  In           6         0.466502   0.272825   0.598381   x 
            x  In           7         0.509351   0.151810   0.045204   x 
            x  In           8         0.383689   0.025877   0.517020   x 
            x  In           9         0.552386   0.030875   0.494159   x 
            x  In          10         0.678096   0.156318   0.017805   x 
            x  In          11         0.596305   0.910061   0.939625   x 
            x  In          12         0.721214   0.034775   0.482939   x 
            x  In          13         0.520445   0.665066   0.860455   x 
            x  In          14         0.395618   0.541162   0.357316   x 
            x  In          15         0.532540   0.509138   0.744066   x 
            x  In          16         0.655633   0.633576   0.267593   x 
            x  In          17         0.587143   0.396888   0.127119   x 
            x  In          18         0.710977   0.521688   0.639809   x 
            x  In          19         0.758560   0.401970   0.076247   x 
            x  In          20         0.634568   0.277351   0.567682   x 
            x  In          21         0.804024   0.281037   0.529093   x 
            x  In          22         0.929358   0.406097   0.024356   x 
            x  In          23         0.847291   0.158795  -0.003038   x 
            x  In          24         0.973279   0.283949   0.495240   x 
            x  In          25         0.765586   0.911181   0.955836   x 
            x  In          26         0.643311   0.788635   0.371940   x 
            x  In          27         0.785300   0.769094   0.683662   x 
            x  In          28         0.926062   0.907466   0.998645   x 
            x  In          29         0.834471   0.649477   0.119581   x 
            x  In          30         0.959659   0.777331   0.556077   x 
            x  In          31         0.005873   0.653674   1.030882   x 
            x  In          32         0.882384   0.527855   0.564307   x 
            x  In          33         0.053377   0.531302   0.504072   x 
            x  In          34         0.176847   0.656757   0.978457   x 
            x  In          35         0.100502   0.409256   0.977843   x 
            x  In          36         0.224160   0.535838   0.432394   x 
            x  In          37         0.014425   0.159747   0.986743   x 
            x  In          38         0.888764   0.034728   0.485060   x 
            x  In          39         0.052391   0.030865   0.511734   x 
            x  In          40         0.176174   0.152521   0.006713   x 
            x  In          41         0.088667   0.901828   1.026039   x 
            x  In          42         0.214866   0.025606   0.521953   x 
            x  In          43         0.257230   0.902869   1.003913   x 
            x  In          44         0.130435   0.778295   0.508942   x 
            x  In          45         0.301382   0.781241   0.469282   x 
            x  In          46         0.426943   0.905116   0.975174   x 
            x  In          47         0.348157   0.660852   0.918891   x 
            x  In          48         0.472308   0.784799   0.422974   x 
            xxxxxxxxxxxxxxxxxxxxxxxxxxxxxxxxxxxxxxxxxxxxxxxxxxxxxxxxxxxx


                         No user defined ionic velocities

                           -------------------------------
                                   Details of Species
                           -------------------------------

                               Mass of species in AMU
                                    P   30.9737600
                                    In  114.8180000

                          Electric Quadrupole Moment (Barn)
                                    P    1.0000000 No Isotope Defined
                                    In    0.7700000 Isotope115

                          Files used for pseudopotentials:
                                    P 3|1.8|4|4|5|30:31:32
                                    In 3|2.5|2.5|1.5|7|8|9|50:51:42U2.2U2.2

                           -------------------------------
                              k-Points For BZ Sampling
                           -------------------------------
                       MP grid size for SCF calculation is  2  2  8
                            with an offset of   0.250  0.250  0.062
                       Number of kpoints used =            20

                           -------------------------------
                               Symmetry and Constraints
                           -------------------------------

                      Maximum deviation from symmetry =  0.00000         ANG

                      Number of symmetry operations   =           1
                      Number of ionic constraints     =           3
                      Point group of crystal =     1: C1, 1, 1
                      Space group of crystal =     1: P1, P 1

             Set iprint > 1 for details on symmetry rotations/translations

                         Centre of mass is constrained
             Set iprint > 1 for details of linear ionic constraints

                         Number of cell constraints= 0
                         Cell constraints are:  1 2 3 4 5 6

                         External pressure/stress (GPa)
                          0.00000   0.00000   0.00000
                                    0.00000   0.00000
                                              0.00000
 
+---------------- MEMORY AND SCRATCH DISK ESTIMATES PER PROCESS --------------+
|                                                     Memory          Disk    |
| Baseline code, static data and system overhead      368.0 MB         0.0 MB |
| BLAS internal memory storage                          0.0 MB         0.0 MB |
| Model and support data                             3663.9 MB         0.0 MB |
| Electronic energy minimisation requirements         956.3 MB         0.0 MB |
| Force calculation requirements                       70.0 MB         0.0 MB |
|                                               ----------------------------- |
| Approx. total storage required per process         4988.2 MB         0.0 MB |
|                                                                             |
| Requirements will fluctuate during execution and may exceed these estimates |
+-----------------------------------------------------------------------------+
Calculating approximate eigenstates for fixed initial Hamiltonian
Cut-off for approx. calculation is   89.988 eV
Improving approx. states at cut-off of  450.000 eV
Resetting cut-off to  900.000 eV
Calculating total energy with cut-off of  900.000 eV.
------------------------------------------------------------------------ <-- SCF
SCF loop      Energy           Fermi           Energy gain       Timer   <-- SCF
                               energy          per atom          (sec)   <-- SCF
------------------------------------------------------------------------ <-- SCF
Initial  -9.45655395E+004  0.00000000E+000                       372.40  <-- SCF
      1  -9.42048287E+004  2.64490725E+000  -3.75740394E+000     716.09  <-- SCF
      2  -9.42052735E+004  2.64442389E+000   4.63297033E-003     944.58  <-- SCF
      3  -9.43048430E+004  2.99815541E+000   1.03718215E+000    1200.07  <-- SCF
      4  -9.43225810E+004  3.09420621E+000   1.84770686E-001    1577.51  <-- SCF
      5  -9.43135737E+004  3.45432954E+000  -9.38256678E-002    1830.03  <-- SCF
      6  -9.43131752E+004  3.53306778E+000  -4.15071611E-003    2095.37  <-- SCF
      7  -9.43129773E+004  3.57071009E+000  -2.06184546E-003    2371.93  <-- SCF
      8  -9.43140492E+004  3.57534918E+000   1.11654415E-002    2628.27  <-- SCF
      9  -9.43151837E+004  3.53253415E+000   1.18179621E-002    2894.24  <-- SCF
     10  -9.43151494E+004  3.54363018E+000  -3.57466136E-004    3172.19  <-- SCF
     11  -9.43152434E+004  3.55111294E+000   9.79164769E-004    3457.25  <-- SCF
     12  -9.43153076E+004  3.55436852E+000   6.68630736E-004    3739.35  <-- SCF
     13  -9.43153105E+004  3.55337025E+000   3.09727950E-005    4022.10  <-- SCF
     14  -9.43153103E+004  3.55392755E+000  -2.98806796E-006    4311.34  <-- SCF
     15  -9.43153105E+004  3.55470955E+000   2.90918821E-006    4578.04  <-- SCF
     16  -9.43153105E+004  3.55439019E+000  -3.88872356E-007    4822.99  <-- SCF
     17  -9.43153105E+004  3.55448081E+000   1.44565663E-007    5051.49  <-- SCF
     18  -9.43153105E+004  3.55464718E+000   2.90083375E-008    5261.62  <-- SCF
     19  -9.43153105E+004  3.55466515E+000  -1.51569778E-008    5459.23  <-- SCF
     20  -9.43153105E+004  3.55465571E+000   1.00886684E-008    5648.77  <-- SCF
     21  -9.43153105E+004  3.55465681E+000  -5.11342407E-010    5846.75  <-- SCF
     22  -9.43153105E+004  3.55466582E+000  -1.05130040E-009    6028.99  <-- SCF
------------------------------------------------------------------------ <-- SCF
 
Final energy, E             =  -94315.26944454     eV
Final free energy (E-TS)    =  -94315.31052034     eV
(energies not corrected for finite basis set)
 
NB est. 0K energy (E-0.5TS)      =  -94315.28998244     eV
 

 ************************** Forces **************************
 *                                                          *
 *               Cartesian components (eV/A)                *
 * -------------------------------------------------------- *
 *                         x            y            z      *
 *                                                          *
 * P               1     -0.13120     -0.01206      0.08149 *
 * P               2      0.10791     -0.00321     -0.03859 *
 * P               3      0.05982     -0.07970     -0.05585 *
 * P               4     -0.10251     -0.04777      0.02045 *
 * P               5      0.05484     -0.08386     -0.01893 *
 * P               6     -0.04454     -0.07459      0.01773 *
 * P               7     -0.01804     -0.08834      0.00822 *
 * P               8      0.01803     -0.09325      0.00387 *
 * P               9     -0.01070     -0.11976      0.00478 *
 * P              10      0.01418     -0.06894      0.00306 *
 * P              11     -0.02306     -0.07307      0.01540 *
 * P              12      0.02683     -0.05231      0.04133 *
 * P              13     -0.17099      0.01978      0.00674 *
 * P              14     -0.16672     -0.01732      0.00761 *
 * P              15     -0.12313     -0.00680      0.00452 *
 * P              16     -0.09366      0.05615     -0.01486 *
 * P              17     -0.07328     -0.03629     -0.00410 *
 * P              18     -0.05820      0.03542     -0.00869 *
 * P              19     -0.00525      0.02613      0.00064 *
 * P              20     -0.01721     -0.04544      0.00512 *
 * P              21      0.05167      0.01460      0.00248 *
 * P              22      0.04057      0.06448      0.00514 *
 * P              23      0.11816     -0.00146      0.00123 *
 * P              24      0.11236      0.06016     -0.00172 *
 * P              25     -0.00665      0.04137      0.20382 *
 * P              26     -0.03860     -0.02372     -0.06593 *
 * P              27      0.02819      0.11273     -0.06617 *
 * P              28      0.08415      0.04735     -0.02120 *
 * P              29     -0.01615      0.05065     -0.01919 *
 * P              30      0.04425      0.08849     -0.01592 *
 * P              31      0.01056      0.07185     -0.01574 *
 * P              32     -0.00321      0.05996     -0.00247 *
 * P              33      0.00443      0.09025     -0.00359 *
 * P              34     -0.03084      0.06914      0.00497 *
 * P              35      0.02953      0.07367     -0.01715 *
 * P              36     -0.04563      0.10130     -0.02623 *
 * P              37      0.17865     -0.01009      0.00236 *
 * P              38      0.13683      0.05496      0.02395 *
 * P              39      0.10685      0.01418      0.00841 *
 * P              40      0.11901     -0.06138     -0.01209 *
 * P              41      0.05744      0.02997     -0.00641 *
 * P              42      0.05901     -0.02358      0.00127 *
 * P              43      0.01780     -0.03665      0.00399 *
 * P              44      0.01148      0.03188      0.00176 *
 * P              45     -0.04998     -0.02405      0.00543 *
 * P              46     -0.03970     -0.09651      0.01456 *
 * P              47     -0.08872     -0.00918     -0.01850 *
 * P              48     -0.09835     -0.07744     -0.01224 *
 * In              1      0.00088     -0.14209      0.00764 *
 * In              2     -0.10237     -0.09748      0.01360 *
 * In              3     -0.04494      0.07558      0.00509 *
 * In              4      0.15753      0.11911     -0.04555 *
 * In              5     -0.13584      0.06290      0.04052 *
 * In              6      0.05922      0.03373      0.00123 *
 * In              7      0.03307      0.08075     -0.01528 *
 * In              8     -0.07363      0.06496     -0.00170 *
 * In              9      0.02343      0.11545     -0.00989 *
 * In             10      0.03619      0.09162      0.00949 *
 * In             11      0.04539      0.16068     -0.00287 *
 * In             12      0.01387      0.14441      0.00733 *
 * In             13      0.10936      0.03239      0.01374 *
 * In             14      0.08044     -0.00612      0.01558 *
 * In             15      0.17550      0.00822      0.01044 *
 * In             16      0.11781     -0.07061      0.00034 *
 * In             17      0.14310      0.00906      0.00342 *
 * In             18      0.12727     -0.05389     -0.00223 *
 * In             19      0.07998     -0.01416     -0.00555 *
 * In             20      0.08508      0.05052     -0.00669 *
 * In             21      0.01344      0.00477      0.00329 *
 * In             22      0.00601     -0.07103     -0.00291 *
 * In             23     -0.04736      0.01270      0.00885 *
 * In             24     -0.05201     -0.07216      0.00835 *
 * In             25      0.00161      0.12544      0.00328 *
 * In             26      0.10520      0.12399      0.05617 *
 * In             27      0.11107     -0.18433     -0.11732 *
 * In             28     -0.15432     -0.12731     -0.00877 *
 * In             29      0.09661     -0.11053     -0.02716 *
 * In             30     -0.07749     -0.03770     -0.00189 *
 * In             31     -0.01377     -0.06901      0.00938 *
 * In             32      0.04131     -0.05156     -0.00997 *
 * In             33     -0.01925     -0.09863      0.00200 *
 * In             34     -0.01420     -0.05768     -0.00599 *
 * In             35     -0.05354     -0.11068      0.00533 *
 * In             36     -0.00299     -0.12279      0.00262 *
 * In             37     -0.11713     -0.03362      0.00260 *
 * In             38     -0.09242      0.01862     -0.00067 *
 * In             39     -0.20368     -0.02527     -0.03353 *
 * In             40     -0.15770      0.08993      0.02575 *
 * In             41     -0.12481     -0.01182     -0.00151 *
 * In             42     -0.12800      0.04061     -0.00036 *
 * In             43     -0.08108      0.02455     -0.00424 *
 * In             44     -0.04983     -0.02910      0.00455 *
 * In             45     -0.01795      0.01030     -0.00685 *
 * In             46     -0.01729      0.08293     -0.00353 *
 * In             47      0.03199     -0.02000      0.00152 *
 * In             48      0.05003      0.08664     -0.00245 *
 *                                                          *
 ************************************************************

 Pseudo atomic calculation performed for P 3s2 3p3

 Converged in 23 iterations to a total energy of -208.0292 eV

 Pseudo atomic calculation performed for In 4d10 5s2 5p1

 Converged in 42 iterations to a total energy of -1747.4501 eV
Charge spilling parameter for spin component 1 = 0.16%

            Orbital Populations       
     Ion    Atom   Orbital             Charge
  -------------------------------------------
      P     1      S                    1.744
      P     1      Px                   1.280
      P     1      Py                   1.330
      P     1      Pz                   1.317
      P     2      S                    1.741
      P     2      Px                   1.268
      P     2      Py                   1.334
      P     2      Pz                   1.328
      P     3      S                    1.735
      P     3      Px                   1.350
      P     3      Py                   1.263
      P     3      Pz                   1.328
      P     4      S                    1.738
      P     4      Px                   1.328
      P     4      Py                   1.303
      P     4      Pz                   1.303
      P     5      S                    1.733
      P     5      Px                   1.321
      P     5      Py                   1.294
      P     5      Pz                   1.326
      P     6      S                    1.733
      P     6      Px                   1.324
      P     6      Py                   1.301
      P     6      Pz                   1.317
      P     7      S                    1.733
      P     7      Px                   1.315
      P     7      Py                   1.308
      P     7      Pz                   1.318
      P     8      S                    1.733
      P     8      Px                   1.316
      P     8      Py                   1.307
      P     8      Pz                   1.320
      P     9      S                    1.733
      P     9      Px                   1.315
      P     9      Py                   1.307
      P     9      Pz                   1.318
      P    10      S                    1.733
      P    10      Px                   1.309
      P    10      Py                   1.310
      P    10      Pz                   1.322
      P    11      S                    1.733
      P    11      Px                   1.329
      P    11      Py                   1.293
      P    11      Pz                   1.315
      P    12      S                    1.735
      P    12      Px                   1.305
      P    12      Py                   1.296
      P    12      Pz                   1.331
      P    13      S                    1.737
      P    13      Px                   1.302
      P    13      Py                   1.302
      P    13      Pz                   1.326
      P    14      S                    1.738
      P    14      Px                   1.291
      P    14      Py                   1.315
      P    14      Pz                   1.324
      P    15      S                    1.739
      P    15      Px                   1.316
      P    15      Py                   1.314
      P    15      Pz                   1.303
      P    16      S                    1.741
      P    16      Px                   1.299
      P    16      Py                   1.331
      P    16      Pz                   1.297
      P    17      S                    1.735
      P    17      Px                   1.318
      P    17      Py                   1.309
      P    17      Pz                   1.310
      P    18      S                    1.737
      P    18      Px                   1.311
      P    18      Py                   1.317
      P    18      Pz                   1.307
      P    19      S                    1.736
      P    19      Px                   1.310
      P    19      Py                   1.314
      P    19      Pz                   1.313
      P    20      S                    1.734
      P    20      Px                   1.313
      P    20      Py                   1.311
      P    20      Pz                   1.317
      P    21      S                    1.735
      P    21      Px                   1.304
      P    21      Py                   1.315
      P    21      Pz                   1.320
      P    22      S                    1.739
      P    22      Px                   1.303
      P    22      Py                   1.315
      P    22      Pz                   1.314
      P    23      S                    1.735
      P    23      Px                   1.299
      P    23      Py                   1.311
      P    23      Pz                   1.328
      P    24      S                    1.737
      P    24      Px                   1.293
      P    24      Py                   1.323
      P    24      Pz                   1.319
      P    25      S                    1.778
      P    25      Px                   1.230
      P    25      Py                   1.252
      P    25      Pz                   1.358
      P    26      S                    1.766
      P    26      Px                   1.263
      P    26      Py                   1.267
      P    26      Pz                   1.337
      P    27      S                    1.744
      P    27      Px                   1.284
      P    27      Py                   1.339
      P    27      Pz                   1.300
      P    28      S                    1.739
      P    28      Px                   1.286
      P    28      Py                   1.332
      P    28      Pz                   1.311
      P    29      S                    1.740
      P    29      Px                   1.304
      P    29      Py                   1.321
      P    29      Pz                   1.305
      P    30      S                    1.741
      P    30      Px                   1.298
      P    30      Py                   1.321
      P    30      Pz                   1.309
      P    31      S                    1.739
      P    31      Px                   1.308
      P    31      Py                   1.314
      P    31      Pz                   1.310
      P    32      S                    1.738
      P    32      Px                   1.308
      P    32      Py                   1.315
      P    32      Pz                   1.311
      P    33      S                    1.739
      P    33      Px                   1.309
      P    33      Py                   1.314
      P    33      Pz                   1.308
      P    34      S                    1.737
      P    34      Px                   1.313
      P    34      Py                   1.315
      P    34      Pz                   1.305
      P    35      S                    1.743
      P    35      Px                   1.299
      P    35      Py                   1.324
      P    35      Pz                   1.305
      P    36      S                    1.740
      P    36      Px                   1.311
      P    36      Py                   1.320
      P    36      Pz                   1.295
      P    37      S                    1.735
      P    37      Px                   1.287
      P    37      Py                   1.319
      P    37      Pz                   1.331
      P    38      S                    1.735
      P    38      Px                   1.294
      P    38      Py                   1.306
      P    38      Pz                   1.333
      P    39      S                    1.735
      P    39      Px                   1.299
      P    39      Py                   1.315
      P    39      Pz                   1.324
      P    40      S                    1.733
      P    40      Px                   1.309
      P    40      Py                   1.301
      P    40      Pz                   1.331
      P    41      S                    1.736
      P    41      Px                   1.302
      P    41      Py                   1.317
      P    41      Pz                   1.318
      P    42      S                    1.734
      P    42      Px                   1.311
      P    42      Py                   1.308
      P    42      Pz                   1.322
      P    43      S                    1.734
      P    43      Px                   1.312
      P    43      Py                   1.311
      P    43      Pz                   1.316
      P    44      S                    1.737
      P    44      Px                   1.309
      P    44      Py                   1.315
      P    44      Pz                   1.312
      P    45      S                    1.735
      P    45      Px                   1.317
      P    45      Py                   1.311
      P    45      Pz                   1.309
      P    46      S                    1.733
      P    46      Px                   1.320
      P    46      Py                   1.307
      P    46      Pz                   1.313
      P    47      S                    1.735
      P    47      Px                   1.322
      P    47      Py                   1.313
      P    47      Pz                   1.301
      P    48      S                    1.732
      P    48      Px                   1.330
      P    48      Py                   1.304
      P    48      Pz                   1.307
     In     1      Dzz                  1.998
     In     1      Dzy                  1.998
     In     1      Dzx                  1.998
     In     1      Dxx-yy               1.998
     In     1      Dxy                  1.999
     In     1      S                    1.430
     In     1      Px                   0.480
     In     1      Py                   0.445
     In     1      Pz                   0.493
     In     1      S                   -0.505
     In     2      Dzz                  1.998
     In     2      Dzy                  1.999
     In     2      Dzx                  1.998
     In     2      Dxx-yy               1.997
     In     2      Dxy                  1.998
     In     2      S                    1.433
     In     2      Px                   0.498
     In     2      Py                   0.459
     In     2      Pz                   0.480
     In     2      S                   -0.518
     In     3      Dzz                  1.996
     In     3      Dzy                  1.999
     In     3      Dzx                  1.998
     In     3      Dxx-yy               1.996
     In     3      Dxy                  1.997
     In     3      S                    1.493
     In     3      Px                   0.499
     In     3      Py                   0.523
     In     3      Pz                   0.389
     In     3      S                   -0.538
     In     4      Dzz                  1.998
     In     4      Dzy                  1.998
     In     4      Dzx                  1.998
     In     4      Dxx-yy               1.997
     In     4      Dxy                  1.998
     In     4      S                    1.431
     In     4      Px                   0.497
     In     4      Py                   0.481
     In     4      Pz                   0.450
     In     4      S                   -0.507
     In     5      Dzz                  1.997
     In     5      Dzy                  1.999
     In     5      Dzx                  1.998
     In     5      Dxx-yy               1.997
     In     5      Dxy                  1.998
     In     5      S                    1.429
     In     5      Px                   0.480
     In     5      Py                   0.502
     In     5      Pz                   0.467
     In     5      S                   -0.537
     In     6      Dzz                  1.998
     In     6      Dzy                  1.998
     In     6      Dzx                  1.998
     In     6      Dxx-yy               1.997
     In     6      Dxy                  1.998
     In     6      S                    1.419
     In     6      Px                   0.463
     In     6      Py                   0.494
     In     6      Pz                   0.492
     In     6      S                   -0.520
     In     7      Dzz                  1.997
     In     7      Dzy                  1.998
     In     7      Dzx                  1.998
     In     7      Dxx-yy               1.997
     In     7      Dxy                  1.999
     In     7      S                    1.422
     In     7      Px                   0.475
     In     7      Py                   0.493
     In     7      Pz                   0.482
     In     7      S                   -0.540
     In     8      Dzz                  1.997
     In     8      Dzy                  1.998
     In     8      Dzx                  1.998
     In     8      Dxx-yy               1.997
     In     8      Dxy                  1.998
     In     8      S                    1.428
     In     8      Px                   0.480
     In     8      Py                   0.493
     In     8      Pz                   0.477
     In     8      S                   -0.545
     In     9      Dzz                  1.997
     In     9      Dzy                  1.998
     In     9      Dzx                  1.998
     In     9      Dxx-yy               1.997
     In     9      Dxy                  1.998
     In     9      S                    1.424
     In     9      Px                   0.476
     In     9      Py                   0.493
     In     9      Pz                   0.480
     In     9      S                   -0.540
     In    10      Dzz                  1.997
     In    10      Dzy                  1.998
     In    10      Dzx                  1.998
     In    10      Dxx-yy               1.997
     In    10      Dxy                  1.998
     In    10      S                    1.423
     In    10      Px                   0.476
     In    10      Py                   0.490
     In    10      Pz                   0.482
     In    10      S                   -0.536
     In    11      Dzz                  1.997
     In    11      Dzy                  1.998
     In    11      Dzx                  1.998
     In    11      Dxx-yy               1.997
     In    11      Dxy                  1.998
     In    11      S                    1.426
     In    11      Px                   0.473
     In    11      Py                   0.498
     In    11      Pz                   0.479
     In    11      S                   -0.542
     In    12      Dzz                  1.997
     In    12      Dzy                  1.998
     In    12      Dzx                  1.998
     In    12      Dxx-yy               1.997
     In    12      Dxy                  1.998
     In    12      S                    1.429
     In    12      Px                   0.475
     In    12      Py                   0.496
     In    12      Pz                   0.478
     In    12      S                   -0.541
     In    13      Dzz                  1.998
     In    13      Dzy                  1.998
     In    13      Dzx                  1.998
     In    13      Dxx-yy               1.997
     In    13      Dxy                  1.998
     In    13      S                    1.429
     In    13      Px                   0.460
     In    13      Py                   0.483
     In    13      Pz                   0.494
     In    13      S                   -0.534
     In    14      Dzz                  1.998
     In    14      Dzy                  1.998
     In    14      Dzx                  1.998
     In    14      Dxx-yy               1.998
     In    14      Dxy                  1.999
     In    14      S                    1.424
     In    14      Px                   0.469
     In    14      Py                   0.469
     In    14      Pz                   0.497
     In    14      S                   -0.511
     In    15      Dzz                  1.998
     In    15      Dzy                  1.998
     In    15      Dzx                  1.998
     In    15      Dxx-yy               1.997
     In    15      Dxy                  1.998
     In    15      S                    1.434
     In    15      Px                   0.497
     In    15      Py                   0.472
     In    15      Pz                   0.462
     In    15      S                   -0.526
     In    16      Dzz                  1.998
     In    16      Dzy                  1.998
     In    16      Dzx                  1.998
     In    16      Dxx-yy               1.997
     In    16      Dxy                  1.998
     In    16      S                    1.445
     In    16      Px                   0.512
     In    16      Py                   0.460
     In    16      Pz                   0.465
     In    16      S                   -0.536
     In    17      Dzz                  1.998
     In    17      Dzy                  1.998
     In    17      Dzx                  1.998
     In    17      Dxx-yy               1.997
     In    17      Dxy                  1.998
     In    17      S                    1.411
     In    17      Px                   0.465
     In    17      Py                   0.483
     In    17      Pz                   0.498
     In    17      S                   -0.522
     In    18      Dzz                  1.998
     In    18      Dzy                  1.998
     In    18      Dzx                  1.998
     In    18      Dxx-yy               1.997
     In    18      Dxy                  1.998
     In    18      S                    1.413
     In    18      Px                   0.467
     In    18      Py                   0.475
     In    18      Pz                   0.497
     In    18      S                   -0.509
     In    19      Dzz                  1.998
     In    19      Dzy                  1.998
     In    19      Dzx                  1.998
     In    19      Dxx-yy               1.997
     In    19      Dxy                  1.998
     In    19      S                    1.416
     In    19      Px                   0.473
     In    19      Py                   0.480
     In    19      Pz                   0.491
     In    19      S                   -0.522
     In    20      Dzz                  1.997
     In    20      Dzy                  1.998
     In    20      Dzx                  1.998
     In    20      Dxx-yy               1.997
     In    20      Dxy                  1.998
     In    20      S                    1.420
     In    20      Px                   0.472
     In    20      Py                   0.488
     In    20      Pz                   0.489
     In    20      S                   -0.534
     In    21      Dzz                  1.998
     In    21      Dzy                  1.998
     In    21      Dzx                  1.998
     In    21      Dxx-yy               1.997
     In    21      Dxy                  1.998
     In    21      S                    1.420
     In    21      Px                   0.478
     In    21      Py                   0.482
     In    21      Pz                   0.485
     In    21      S                   -0.528
     In    22      Dzz                  1.998
     In    22      Dzy                  1.998
     In    22      Dzx                  1.998
     In    22      Dxx-yy               1.997
     In    22      Dxy                  1.998
     In    22      S                    1.418
     In    22      Px                   0.480
     In    22      Py                   0.475
     In    22      Pz                   0.487
     In    22      S                   -0.518
     In    23      Dzz                  1.998
     In    23      Dzy                  1.998
     In    23      Dzx                  1.998
     In    23      Dxx-yy               1.997
     In    23      Dxy                  1.998
     In    23      S                    1.424
     In    23      Px                   0.482
     In    23      Py                   0.485
     In    23      Pz                   0.477
     In    23      S                   -0.531
     In    24      Dzz                  1.998
     In    24      Dzy                  1.998
     In    24      Dzx                  1.998
     In    24      Dxx-yy               1.997
     In    24      Dxy                  1.998
     In    24      S                    1.418
     In    24      Px                   0.487
     In    24      Py                   0.476
     In    24      Pz                   0.483
     In    24      S                   -0.524
     In    25      Dzz                  1.998
     In    25      Dzy                  1.998
     In    25      Dzx                  1.998
     In    25      Dxx-yy               1.997
     In    25      Dxy                  1.998
     In    25      S                    1.409
     In    25      Px                   0.466
     In    25      Py                   0.506
     In    25      Pz                   0.477
     In    25      S                   -0.490
     In    26      Dzz                  1.998
     In    26      Dzy                  1.998
     In    26      Dzx                  1.998
     In    26      Dxx-yy               1.997
     In    26      Dxy                  1.998
     In    26      S                    1.421
     In    26      Px                   0.457
     In    26      Py                   0.501
     In    26      Pz                   0.484
     In    26      S                   -0.513
     In    27      Dzz                  1.999
     In    27      Dzy                  1.998
     In    27      Dzx                  1.996
     In    27      Dxx-yy               1.998
     In    27      Dxy                  1.999
     In    27      S                    1.388
     In    27      Px                   0.498
     In    27      Py                   0.443
     In    27      Pz                   0.455
     In    27      S                   -0.471
     In    28      Dzz                  1.997
     In    28      Dzy                  1.998
     In    28      Dzx                  1.998
     In    28      Dxx-yy               1.997
     In    28      Dxy                  1.998
     In    28      S                    1.437
     In    28      Px                   0.516
     In    28      Py                   0.475
     In    28      Pz                   0.471
     In    28      S                   -0.524
     In    29      Dzz                  1.998
     In    29      Dzy                  1.998
     In    29      Dzx                  1.998
     In    29      Dxx-yy               1.998
     In    29      Dxy                  1.999
     In    29      S                    1.424
     In    29      Px                   0.479
     In    29      Py                   0.461
     In    29      Pz                   0.488
     In    29      S                   -0.504
     In    30      Dzz                  1.998
     In    30      Dzy                  1.999
     In    30      Dzx                  1.998
     In    30      Dxx-yy               1.998
     In    30      Dxy                  1.999
     In    30      S                    1.428
     In    30      Px                   0.489
     In    30      Py                   0.461
     In    30      Pz                   0.474
     In    30      S                   -0.522
     In    31      Dzz                  1.998
     In    31      Dzy                  1.998
     In    31      Dzx                  1.998
     In    31      Dxx-yy               1.997
     In    31      Dxy                  1.998
     In    31      S                    1.419
     In    31      Px                   0.482
     In    31      Py                   0.470
     In    31      Pz                   0.485
     In    31      S                   -0.517
     In    32      Dzz                  1.998
     In    32      Dzy                  1.998
     In    32      Dzx                  1.998
     In    32      Dxx-yy               1.997
     In    32      Dxy                  1.998
     In    32      S                    1.418
     In    32      Px                   0.477
     In    32      Py                   0.473
     In    32      Pz                   0.489
     In    32      S                   -0.513
     In    33      Dzz                  1.998
     In    33      Dzy                  1.998
     In    33      Dzx                  1.998
     In    33      Dxx-yy               1.997
     In    33      Dxy                  1.998
     In    33      S                    1.419
     In    33      Px                   0.482
     In    33      Py                   0.471
     In    33      Pz                   0.485
     In    33      S                   -0.515
     In    34      Dzz                  1.998
     In    34      Dzy                  1.998
     In    34      Dzx                  1.998
     In    34      Dxx-yy               1.997
     In    34      Dxy                  1.998
     In    34      S                    1.420
     In    34      Px                   0.482
     In    34      Py                   0.474
     In    34      Pz                   0.486
     In    34      S                   -0.519
     In    35      Dzz                  1.998
     In    35      Dzy                  1.998
     In    35      Dzx                  1.998
     In    35      Dxx-yy               1.997
     In    35      Dxy                  1.998
     In    35      S                    1.415
     In    35      Px                   0.484
     In    35      Py                   0.466
     In    35      Pz                   0.486
     In    35      S                   -0.509
     In    36      Dzz                  1.998
     In    36      Dzy                  1.998
     In    36      Dzx                  1.998
     In    36      Dxx-yy               1.997
     In    36      Dxy                  1.998
     In    36      S                    1.420
     In    36      Px                   0.480
     In    36      Py                   0.471
     In    36      Pz                   0.491
     In    36      S                   -0.512
     In    37      Dzz                  1.998
     In    37      Dzy                  1.998
     In    37      Dzx                  1.998
     In    37      Dxx-yy               1.997
     In    37      Dxy                  1.998
     In    37      S                    1.422
     In    37      Px                   0.494
     In    37      Py                   0.476
     In    37      Pz                   0.472
     In    37      S                   -0.524
     In    38      Dzz                  1.997
     In    38      Dzy                  1.998
     In    38      Dzx                  1.998
     In    38      Dxx-yy               1.997
     In    38      Dxy                  1.998
     In    38      S                    1.424
     In    38      Px                   0.488
     In    38      Py                   0.487
     In    38      Pz                   0.470
     In    38      S                   -0.537
     In    39      Dzz                  1.997
     In    39      Dzy                  1.998
     In    39      Dzx                  1.998
     In    39      Dxx-yy               1.997
     In    39      Dxy                  1.998
     In    39      S                    1.431
     In    39      Px                   0.499
     In    39      Py                   0.484
     In    39      Pz                   0.468
     In    39      S                   -0.541
     In    40      Dzz                  1.997
     In    40      Dzy                  1.998
     In    40      Dzx                  1.998
     In    40      Dxx-yy               1.997
     In    40      Dxy                  1.998
     In    40      S                    1.432
     In    40      Px                   0.497
     In    40      Py                   0.492
     In    40      Pz                   0.456
     In    40      S                   -0.513
     In    41      Dzz                  1.997
     In    41      Dzy                  1.998
     In    41      Dzx                  1.998
     In    41      Dxx-yy               1.997
     In    41      Dxy                  1.998
     In    41      S                    1.427
     In    41      Px                   0.494
     In    41      Py                   0.477
     In    41      Pz                   0.470
     In    41      S                   -0.531
     In    42      Dzz                  1.997
     In    42      Dzy                  1.998
     In    42      Dzx                  1.998
     In    42      Dxx-yy               1.997
     In    42      Dxy                  1.998
     In    42      S                    1.425
     In    42      Px                   0.491
     In    42      Py                   0.487
     In    42      Pz                   0.469
     In    42      S                   -0.548
     In    43      Dzz                  1.997
     In    43      Dzy                  1.998
     In    43      Dzx                  1.998
     In    43      Dxx-yy               1.997
     In    43      Dxy                  1.998
     In    43      S                    1.426
     In    43      Px                   0.485
     In    43      Py                   0.484
     In    43      Pz                   0.476
     In    43      S                   -0.536
     In    44      Dzz                  1.998
     In    44      Dzy                  1.998
     In    44      Dzx                  1.998
     In    44      Dxx-yy               1.997
     In    44      Dxy                  1.998
     In    44      S                    1.422
     In    44      Px                   0.486
     In    44      Py                   0.475
     In    44      Pz                   0.479
     In    44      S                   -0.524
     In    45      Dzz                  1.998
     In    45      Dzy                  1.998
     In    45      Dzx                  1.998
     In    45      Dxx-yy               1.997
     In    45      Dxy                  1.998
     In    45      S                    1.422
     In    45      Px                   0.480
     In    45      Py                   0.481
     In    45      Pz                   0.483
     In    45      S                   -0.529
     In    46      Dzz                  1.997
     In    46      Dzy                  1.998
     In    46      Dzx                  1.998
     In    46      Dxx-yy               1.997
     In    46      Dxy                  1.998
     In    46      S                    1.426
     In    46      Px                   0.478
     In    46      Py                   0.490
     In    46      Pz                   0.480
     In    46      S                   -0.538
     In    47      Dzz                  1.998
     In    47      Dzy                  1.998
     In    47      Dzx                  1.998
     In    47      Dxx-yy               1.997
     In    47      Dxy                  1.998
     In    47      S                    1.419
     In    47      Px                   0.474
     In    47      Py                   0.479
     In    47      Pz                   0.489
     In    47      S                   -0.522
     In    48      Dzz                  1.997
     In    48      Dzy                  1.998
     In    48      Dzx                  1.998
     In    48      Dxx-yy               1.997
     In    48      Dxy                  1.998
     In    48      S                    1.425
     In    48      Px                   0.471
     In    48      Py                   0.489
     In    48      Pz                   0.484
     In    48      S                   -0.532
  -------------------------------------------
                           Total:     864.000
  -------------------------------------------

     Atomic Populations (Mulliken)
     -----------------------------
Species          Ion     s       p       d       f      Total   Charge (e)
==========================================================================
  P               1     1.744   3.927   0.000   0.000   5.671    -0.671
  P               2     1.741   3.930   0.000   0.000   5.671    -0.671
  P               3     1.735   3.941   0.000   0.000   5.675    -0.675
  P               4     1.738   3.933   0.000   0.000   5.671    -0.671
  P               5     1.733   3.942   0.000   0.000   5.674    -0.674
  P               6     1.733   3.941   0.000   0.000   5.674    -0.674
  P               7     1.733   3.941   0.000   0.000   5.674    -0.674
  P               8     1.733   3.942   0.000   0.000   5.675    -0.675
  P               9     1.733   3.940   0.000   0.000   5.673    -0.673
  P              10     1.733   3.941   0.000   0.000   5.674    -0.674
  P              11     1.733   3.937   0.000   0.000   5.669    -0.669
  P              12     1.735   3.932   0.000   0.000   5.667    -0.667
  P              13     1.737   3.930   0.000   0.000   5.667    -0.667
  P              14     1.738   3.930   0.000   0.000   5.668    -0.668
  P              15     1.739   3.933   0.000   0.000   5.672    -0.672
  P              16     1.741   3.927   0.000   0.000   5.668    -0.668
  P              17     1.735   3.937   0.000   0.000   5.672    -0.672
  P              18     1.737   3.935   0.000   0.000   5.671    -0.671
  P              19     1.736   3.937   0.000   0.000   5.673    -0.673
  P              20     1.734   3.941   0.000   0.000   5.675    -0.675
  P              21     1.735   3.939   0.000   0.000   5.674    -0.674
  P              22     1.739   3.932   0.000   0.000   5.671    -0.671
  P              23     1.735   3.938   0.000   0.000   5.673    -0.673
  P              24     1.737   3.935   0.000   0.000   5.672    -0.672
  P              25     1.778   3.840   0.000   0.000   5.617    -0.617
  P              26     1.766   3.867   0.000   0.000   5.632    -0.632
  P              27     1.744   3.924   0.000   0.000   5.668    -0.668
  P              28     1.739   3.930   0.000   0.000   5.668    -0.668
  P              29     1.740   3.930   0.000   0.000   5.670    -0.670
  P              30     1.741   3.928   0.000   0.000   5.669    -0.669
  P              31     1.739   3.932   0.000   0.000   5.671    -0.671
  P              32     1.738   3.934   0.000   0.000   5.672    -0.672
  P              33     1.739   3.932   0.000   0.000   5.671    -0.671
  P              34     1.737   3.933   0.000   0.000   5.670    -0.670
  P              35     1.743   3.927   0.000   0.000   5.670    -0.670
  P              36     1.740   3.926   0.000   0.000   5.666    -0.666
  P              37     1.735   3.937   0.000   0.000   5.672    -0.672
  P              38     1.735   3.933   0.000   0.000   5.669    -0.669
  P              39     1.735   3.938   0.000   0.000   5.673    -0.673
  P              40     1.733   3.942   0.000   0.000   5.675    -0.675
  P              41     1.736   3.938   0.000   0.000   5.673    -0.673
  P              42     1.734   3.941   0.000   0.000   5.675    -0.675
  P              43     1.734   3.940   0.000   0.000   5.674    -0.674
  P              44     1.737   3.935   0.000   0.000   5.672    -0.672
  P              45     1.735   3.937   0.000   0.000   5.672    -0.672
  P              46     1.733   3.940   0.000   0.000   5.673    -0.673
  P              47     1.735   3.936   0.000   0.000   5.671    -0.671
  P              48     1.732   3.940   0.000   0.000   5.672    -0.672
  In              1     0.925   1.417   9.990   0.000  12.332     0.668
  In              2     0.915   1.438   9.990   0.000  12.342     0.658
  In              3     0.955   1.411   9.987   0.000  12.352     0.648
  In              4     0.924   1.428   9.990   0.000  12.342     0.658
  In              5     0.893   1.449   9.988   0.000  12.331     0.669
  In              6     0.899   1.448   9.989   0.000  12.336     0.664
  In              7     0.883   1.449   9.989   0.000  12.321     0.679
  In              8     0.883   1.450   9.989   0.000  12.322     0.678
  In              9     0.884   1.450   9.989   0.000  12.322     0.678
  In             10     0.887   1.448   9.989   0.000  12.324     0.676
  In             11     0.884   1.449   9.989   0.000  12.322     0.678
  In             12     0.887   1.448   9.989   0.000  12.324     0.676
  In             13     0.895   1.437   9.989   0.000  12.321     0.679
  In             14     0.912   1.435   9.990   0.000  12.336     0.664
  In             15     0.907   1.431   9.989   0.000  12.328     0.672
  In             16     0.909   1.437   9.989   0.000  12.335     0.665
  In             17     0.888   1.445   9.989   0.000  12.323     0.677
  In             18     0.904   1.439   9.990   0.000  12.333     0.667
  In             19     0.894   1.444   9.989   0.000  12.327     0.673
  In             20     0.887   1.449   9.989   0.000  12.324     0.676
  In             21     0.892   1.445   9.989   0.000  12.327     0.673
  In             22     0.901   1.441   9.990   0.000  12.332     0.668
  In             23     0.893   1.444   9.989   0.000  12.327     0.673
  In             24     0.894   1.445   9.989   0.000  12.328     0.672
  In             25     0.919   1.449   9.989   0.000  12.358     0.642
  In             26     0.908   1.442   9.989   0.000  12.340     0.660
  In             27     0.917   1.397   9.990   0.000  12.303     0.697
  In             28     0.913   1.462   9.989   0.000  12.363     0.637
  In             29     0.920   1.428   9.990   0.000  12.338     0.662
  In             30     0.906   1.424   9.990   0.000  12.320     0.680
  In             31     0.902   1.437   9.990   0.000  12.329     0.671
  In             32     0.905   1.439   9.989   0.000  12.334     0.666
  In             33     0.904   1.438   9.990   0.000  12.332     0.668
  In             34     0.901   1.442   9.989   0.000  12.333     0.667
  In             35     0.907   1.437   9.990   0.000  12.333     0.667
  In             36     0.907   1.442   9.990   0.000  12.339     0.661
  In             37     0.898   1.442   9.989   0.000  12.330     0.670
  In             38     0.888   1.444   9.989   0.000  12.320     0.680
  In             39     0.891   1.451   9.989   0.000  12.330     0.670
  In             40     0.919   1.445   9.989   0.000  12.353     0.647
  In             41     0.896   1.441   9.989   0.000  12.326     0.674
  In             42     0.877   1.447   9.989   0.000  12.312     0.688
  In             43     0.890   1.445   9.989   0.000  12.324     0.676
  In             44     0.898   1.440   9.990   0.000  12.328     0.672
  In             45     0.894   1.444   9.989   0.000  12.327     0.673
  In             46     0.887   1.447   9.989   0.000  12.324     0.676
  In             47     0.897   1.443   9.989   0.000  12.329     0.671
  In             48     0.893   1.444   9.989   0.000  12.327     0.673
==========================================================================

                 Bond                   Population      Length (A)
======================================================================
              P 1  -- In 3                   0.69        2.47121
              P 2  -- In 3                   0.67        2.47767
              P 3  -- In 3                   0.65        2.48834
              P 26 -- In 16                  0.68        2.49244
              P 25 -- In 28                  0.72        2.50585
              P 25 -- In 27                  0.85        2.50737
              P 14 -- In 4                   0.64        2.50792
              P 13 -- In 15                  0.60        2.51296
              P 26 -- In 27                  1.00        2.51982
              P 48 -- In 13                  1.35        2.52022
              P 37 -- In 40                  0.62        2.52134
              P 11 -- In 26                  1.30        2.52376
              P 5  -- In 5                   0.60        2.52411
              P 9  -- In 11                  1.32        2.52511
              P 38 -- In 39                  0.60        2.52514
              P 4  -- In 6                   1.34        2.52616
              P 25 -- In 25                  0.67        2.52675
              P 6  -- In 7                   1.32        2.52729
              P 46 -- In 48                  1.34        2.52776
              P 47 -- In 14                  1.36        2.52791
              P 7  -- In 9                   1.32        2.53006
              P 17 -- In 20                  1.34        2.53036
              P 6  -- In 6                   0.59        2.53060
              P 5  -- In 8                   1.32        2.53150
              P 8  -- In 46                  1.33        2.53175
              P 20 -- In 10                  1.32        2.53370
              P 45 -- In 47                  1.35        2.53394
              P 15 -- In 17                  1.35        2.53506
              P 11 -- In 11                  0.62        2.53538
              P 40 -- In 5                   0.59        2.53600
              P 18 -- In 19                  1.34        2.53610
              P 3  -- In 5                   1.25        2.53627
              P 8  -- In 8                   0.58        2.53637
              P 12 -- In 12                  0.60        2.53655
              P 7  -- In 7                   0.58        2.53712
              P 10 -- In 12                  1.31        2.53776
              P 9  -- In 9                   0.58        2.53863
              P 14 -- In 15                  1.26        2.53950
              P 43 -- In 45                  1.33        2.53974
              P 19 -- In 21                  1.33        2.53997
              P 12 -- In 38                  0.61        2.54195
              P 10 -- In 10                  0.57        2.54246
              P 35 -- In 2                   1.32        2.54261
              P 39 -- In 42                  0.60        2.54305
              P 20 -- In 20                  0.57        2.54387
              P 34 -- In 36                  1.35        2.54432
              P 28 -- In 30                  1.32        2.54475
              P 46 -- In 46                  0.57        2.54482
              P 42 -- In 43                  1.31        2.54529
              P 21 -- In 23                  1.31        2.54547
              P 13 -- In 16                  1.26        2.54553
              P 42 -- In 42                  0.58        2.54556
              P 37 -- In 39                  1.29        2.54566
              P 16 -- In 18                  1.34        2.54585
              P 36 -- In 1                   1.33        2.54656
              P 23 -- In 23                  0.58        2.54673
              P 40 -- In 40                  0.58        2.54674
              P 12 -- In 25                  1.26        2.54743
              P 44 -- In 34                  1.34        2.54747
              P 38 -- In 38                  0.61        2.54785
              P 32 -- In 22                  1.33        2.54986
              P 39 -- In 39                  0.56        2.55057
              P 29 -- In 32                  1.34        2.55086
              P 21 -- In 21                  0.56        2.55124
              P 40 -- In 42                  1.30        2.55130
              P 23 -- In 37                  0.60        2.55138
              P 43 -- In 43                  0.56        2.55165
              P 48 -- In 48                  0.59        2.55364
              P 41 -- In 44                  1.32        2.55390
              P 23 -- In 38                  1.29        2.55426
              P 41 -- In 41                  0.55        2.55450
              P 46 -- In 11                  0.55        2.55475
              P 22 -- In 24                  1.33        2.55504
              P 6  -- In 20                  0.55        2.55532
              P 42 -- In 8                   0.57        2.55534
              P 39 -- In 41                  1.30        2.55567
              P 33 -- In 35                  1.34        2.55586
              P 9  -- In 12                  0.57        2.55602
              P 5  -- In 7                   0.55        2.55625
              P 24 -- In 37                  1.31        2.55637
              P 28 -- In 41                  0.59        2.55652
              P 26 -- In 26                  0.62        2.55663
              P 24 -- In 24                  0.56        2.55664
              P 37 -- In 37                  0.56        2.55665
              P 17 -- In 17                  0.57        2.55714
              P 31 -- In 33                  1.33        2.55749
              P 8  -- In 9                   0.56        2.55766
              P 10 -- In 23                  0.58        2.55782
              P 7  -- In 10                  0.56        2.55835
              P 3  -- In 6                   0.52        2.55853
              P 43 -- In 46                  0.56        2.55877
              P 30 -- In 31                  1.34        2.55924
              P 38 -- In 28                  1.26        2.55936
              P 19 -- In 19                  0.55        2.55949
              P 45 -- In 45                  0.55        2.55963
              P 45 -- In 48                  0.55        2.55987
              P 41 -- In 43                  0.58        2.56010
              P 27 -- In 29                  1.33        2.56075
              P 20 -- In 21                  0.56        2.56090
              P 48 -- In 26                  0.54        2.56349
              P 21 -- In 24                  0.58        2.56371
              P 1  -- In 4                   1.15        2.56379
              P 47 -- In 47                  0.57        2.56392
              P 18 -- In 18                  0.54        2.56440
              P 44 -- In 45                  0.55        2.56453
              P 24 -- In 2                   0.58        2.56486
              P 17 -- In 19                  0.55        2.56503
              P 4  -- In 17                  0.55        2.56657
              P 34 -- In 47                  0.55        2.56707
              P 31 -- In 34                  0.55        2.56730
              P 11 -- In 25                  0.56        2.56737
              P 28 -- In 28                  0.52        2.56748
              P 2  -- In 40                  1.20        2.56771
              P 44 -- In 44                  0.55        2.56774
              P 34 -- In 34                  0.54        2.56806
              P 22 -- In 22                  0.54        2.56810
              P 36 -- In 36                  0.56        2.56875
              P 32 -- In 33                  0.56        2.56880
              P 18 -- In 32                  0.55        2.56909
              P 19 -- In 22                  0.56        2.56944
              P 30 -- In 44                  0.57        2.57112
              P 33 -- In 36                  0.55        2.57275
              P 2  -- In 2                   0.53        2.57276
              P 29 -- In 31                  0.56        2.57322
              P 32 -- In 32                  0.54        2.57346
              P 13 -- In 13                  0.59        2.57571
              P 47 -- In 13                  0.53        2.57572
              P 33 -- In 33                  0.53        2.57702
              P 15 -- In 18                  0.55        2.57771
              P 22 -- In 35                  0.56        2.57883
              P 4  -- In 4                   0.55        2.58004
              P 31 -- In 31                  0.54        2.58044
              P 36 -- In 14                  0.54        2.58245
              P 15 -- In 15                  0.53        2.58455
              P 29 -- In 29                  0.52        2.58529
              P 16 -- In 29                  0.57        2.58680
              P 30 -- In 30                  0.52        2.58686
              P 27 -- In 30                  0.59        2.58846
              P 35 -- In 35                  0.54        2.58938
              P 35 -- In 1                   0.54        2.59224
              P 14 -- In 14                  0.54        2.59240
              P 27 -- In 27                  0.50        2.59843
              P 16 -- In 16                  0.49        2.60042
              P 1  -- In 1                   0.49        2.61433
======================================================================

 Hirshfeld supercell size:           1           1           4
Standard grid dimensions: 250 250 180
Fine grid dimensions:     250 250 180


     Hirshfeld Analysis
     ------------------
Species   Ion     Hirshfeld Charge (e)
======================================
  P        1                -0.24
  P        2                -0.23
  P        3                -0.24
  P        4                -0.24
  P        5                -0.24
  P        6                -0.24
  P        7                -0.24
  P        8                -0.24
  P        9                -0.24
  P       10                -0.24
  P       11                -0.24
  P       12                -0.24
  P       13                -0.24
  P       14                -0.24
  P       15                -0.24
  P       16                -0.24
  P       17                -0.24
  P       18                -0.24
  P       19                -0.24
  P       20                -0.24
  P       21                -0.24
  P       22                -0.24
  P       23                -0.24
  P       24                -0.24
  P       25                -0.25
  P       26                -0.25
  P       27                -0.24
  P       28                -0.24
  P       29                -0.24
  P       30                -0.24
  P       31                -0.24
  P       32                -0.24
  P       33                -0.24
  P       34                -0.24
  P       35                -0.24
  P       36                -0.24
  P       37                -0.24
  P       38                -0.24
  P       39                -0.24
  P       40                -0.24
  P       41                -0.24
  P       42                -0.24
  P       43                -0.24
  P       44                -0.24
  P       45                -0.24
  P       46                -0.24
  P       47                -0.24
  P       48                -0.24
  In       1                 0.25
  In       2                 0.24
  In       3                 0.26
  In       4                 0.24
  In       5                 0.23
  In       6                 0.23
  In       7                 0.24
  In       8                 0.24
  In       9                 0.24
  In      10                 0.24
  In      11                 0.24
  In      12                 0.24
  In      13                 0.24
  In      14                 0.24
  In      15                 0.24
  In      16                 0.23
  In      17                 0.23
  In      18                 0.24
  In      19                 0.24
  In      20                 0.24
  In      21                 0.24
  In      22                 0.24
  In      23                 0.24
  In      24                 0.24
  In      25                 0.23
  In      26                 0.24
  In      27                 0.25
  In      28                 0.23
  In      29                 0.24
  In      30                 0.25
  In      31                 0.24
  In      32                 0.24
  In      33                 0.24
  In      34                 0.24
  In      35                 0.24
  In      36                 0.24
  In      37                 0.24
  In      38                 0.24
  In      39                 0.23
  In      40                 0.23
  In      41                 0.24
  In      42                 0.24
  In      43                 0.24
  In      44                 0.24
  In      45                 0.24
  In      46                 0.24
  In      47                 0.24
  In      48                 0.24
======================================

 
 A BibTeX formatted list of references used in this run has been written to 
 30deg_Singlepoints_2.bib
 
Initialisation time =     29.97 s
Calculation time    =   6204.85 s
Finalisation time   =     77.24 s
Total time          =   6312.06 s
Peak Memory Use     = 8603256 kB
 
Overall parallel efficiency rating: Terrible (32%)
 
Data was distributed by:-
G-vector (6-way); efficiency rating: Poor (35%)
k-point (20-way); efficiency rating: Good (78%)
