 +-------------------------------------------------+
 |                                                 |
 |      CCC   AA    SSS  TTTTT  EEEEE  PPPP        |
 |     C     A  A  S       T    E      P   P       |
 |     C     AAAA   SS     T    EEE    PPPP        |
 |     C     A  A     S    T    E      P           |
 |      CCC  A  A  SSS     T    EEEEE  P           |
 |                                                 |
 +-------------------------------------------------+
 |                                                 |
 | Welcome to Academic Release CASTEP version 22.11|
 | Ab Initio Total Energy Program                  |
 |                                                 |
 | Authors:                                        |
 | M. Segall, M. Probert, C. Pickard, P. Hasnip,   |
 | S. Clark, K. Refson, J. R. Yates, M. Payne      |
 |                                                 |
 | Contributors:                                   |
 | P. Lindan, P. Haynes, J. White, V. Milman,      |
 | N. Govind, M. Gibson, P. Tulip, V. Cocula,      |
 | B. Montanari, D. Quigley, M. Glover,            |
 | L. Bernasconi, A. Perlov, M. Plummer,           |
 | E. McNellis, J. Meyer, J. Gale, D. Jochym       |
 | J. Aarons, B. Walker, R. Gillen, D. Jones       |
 | T. Green, I. J. Bush, C. J. Armstrong,          |
 | E. J. Higgins, E. L. Brown, M. S. McFly,        |
 | J. Wilkins, B-C. Shih, P. J. P. Byrne,          |
 | R. J. Maurer, J. C. Womack, J. Dziedzic,        |
 | A. Bartok-Partay, L. LeBlanc, T. K. Stenczel,   |
 | J. Kermode, S. Sturniolo, B. Shi, B. Durham     |
 | M. Evans, M. J. Smith                           |
 |                                                 |
 | Copyright (c) 2000 - 2021                       |
 |                                                 |
 |     Distributed under license from Cambridge    |
 |     Enterprise for academic use only.           |
 |                                                 |
 | Please cite                                     |
 |                                                 |
 |     "First principles methods using CASTEP"     |
 |                                                 |
 |         Zeitschrift fuer Kristallographie       |
 |           220(5-6) pp. 567-570 (2005)           |
 |                                                 |
 | S. J. Clark, M. D. Segall, C. J. Pickard,       |
 | P. J. Hasnip, M. J. Probert, K. Refson,         |
 | M. C. Payne                                     |
 |                                                 |
 |       in all publications arising from          |
 |              your use of CASTEP                 |
 |                                                 |
 +-------------------------------------------------+
 |                                                 |
 |              http://www.castep.org              |
 |                                                 |
 +-------------------------------------------------+



 Compiled for linux_x86_64_gfortran10 on Wed, 18 Jan 2023 22:58:45 +0000
 from code version b807d1bba+  Castep221_branch  Wed Sep 14 11:18:35 2022 +0100
 Compiler: GNU Fortran 10.2.0; Optimisation: fast
 MATHLIBS: openblas (LAPACK version 3.9.0)
 FFT Lib : fftw3 version fftw-3.3.8-sse2-avx-avx2-avx2_128
 Fundamental constants values: CODATA 2014

 Run started: Tue, 25 Mar 2025 17:14:02 +0000

 Atomic calculation performed for P: 1s2 2s2 2p6 3s2 3p3

 Converged in 47 iterations to an ae energy of -9309.074 eV

   ============================================================                
   | Pseudopotential Report - Date of generation 25-03-2025   |                
   ------------------------------------------------------------                
   | Element: P Ionic charge:  5.00 Level of theory: RSCAN    |                
   | Atomic Solver: Koelling-Harmon                           |                
   |                                                          |                
   |               Reference Electronic Structure             |                
   |         Orbital         Occupation         Energy        |                
   |            3s              2.000           -0.535        |                
   |            3p              3.000           -0.209        |                
   |                                                          |                
   |                 Pseudopotential Definition               |                
   |        Beta     l      e      Rc     scheme   norm       |                
   |          1      0   -0.535   1.807     qc      0         |                
   |          2      0    0.250   1.807     qc      0         |                
   |          3      1   -0.209   1.807     qc      0         |                
   |          4      1    0.250   1.807     qc      0         |                
   |          5      2    0.000   1.807     qc      0         |                
   |          6      2    0.250   1.807     qc      0         |                
   |         loc     3    0.000   1.807     pn      0         |                
   |                                                          |                
   | Augmentation charge Rinner = 1.263                       |                
   | Partial core correction Rc = 1.263                       |                
   ------------------------------------------------------------                
   | "3|1.8|4|4|5|30:31:32"                                   |                
   ------------------------------------------------------------                
   |      Author: Chris J. Pickard, Cambridge University      |                
   ============================================================                
 Warning: otfg_output_psp cannot write out meta-GGA pseudopotentials presently.

 Atomic calculation performed for In:
 1s2 2s2 2p6 3s2 3p6 3d10 4s2 4p6 4d10 5s2 5p1

 Converged in 84 iterations to an ae energy of -160093.327 eV

   ============================================================                
   | Pseudopotential Report - Date of generation 25-03-2025   |                
   ------------------------------------------------------------                
   | Element: In Ionic charge: 13.00 Level of theory: RSCAN   |                
   | Atomic Solver: Koelling-Harmon                           |                
   |                                                          |                
   |               Reference Electronic Structure             |                
   |         Orbital         Occupation         Energy        |                
   |            4d             10.000           -0.711        |                
   |            5s              2.000           -0.313        |                
   |            5p              1.000           -0.095        |                
   |                                                          |                
   |                 Pseudopotential Definition               |                
   |        Beta     l      e      Rc     scheme   norm       |                
   |          1      0   -0.313   2.501     qc      0         |                
   |          2      0    0.250   2.501     qc      0         |                
   |          3      1   -0.095   2.501     qc      0         |                
   |          4      1    0.250   2.501     qc      0         |                
   |          5      2   -0.711   2.207     qc      0         |                
   |          6      2    0.250   2.207     qc      0         |                
   |         loc     3    0.000   2.501     pn      0         |                
   |                                                          |                
   | Augmentation charge Rinner = 1.504                       |                
   | Partial core correction Rc = 1.504                       |                
   ------------------------------------------------------------                
   | "3|2.5|2.5|1.5|7|8|9|50:51:42U2.2U2.2"                   |                
   ------------------------------------------------------------                
   |      Author: Chris J. Pickard, Cambridge University      |                
   ============================================================                
 Warning: otfg_output_psp cannot write out meta-GGA pseudopotentials presently.

 Pseudo atomic calculation performed for P 3s2 3p3

 Converged in 23 iterations to a total energy of -208.0292 eV

 Pseudo atomic calculation performed for In 4d10 5s2 5p1

 Converged in 42 iterations to a total energy of -1747.4501 eV
 Calculation parallelised over 56 processes.
 Data is distributed by k-point(56-way)

 ************************************ Title ************************************
 

 ***************************** General Parameters ******************************
  
 output verbosity                               : normal  (1)
 write checkpoint data to                       : Bulk_Elastic_8.check
 type of calculation                            : geometry optimization
 stress calculation                             : on
 density difference calculation                 : off
 electron localisation func (ELF) calculation   : off
 Hirshfeld analysis                             : on
 polarisation (Berry phase) analysis            : off
 molecular orbital projected DOS                : off
 deltaSCF calculation                           : off
 unlimited duration calculation
 timing information                             : on
 memory usage estimate                          : on
 write extra output files                       : on
 write final potential to formatted file        : off
 write final density to formatted file          : off
 write BibTeX reference list                    : on
 write OTFG pseudopotential files               : on
 write electrostatic potential file             : on
 write bands file                               : on
 checkpoint writing                             : off
  
 output         length unit                     : A
 output           mass unit                     : amu
 output           time unit                     : ps
 output         charge unit                     : e
 output           spin unit                     : hbar/2
 output         energy unit                     : eV
 output          force unit                     : eV/A
 output       velocity unit                     : A/ps
 output       pressure unit                     : GPa
 output     inv_length unit                     : 1/A
 output      frequency unit                     : cm-1
 output force constant unit                     : eV/A**2
 output         volume unit                     : A**3
 output   IR intensity unit                     : (D/A)**2/amu
 output         dipole unit                     : D
 output         efield unit                     : eV/A/e
 output        entropy unit                     : J/mol/K
 output    efield chi2 unit                     : pm/V
  
 wavefunctions paging                           : none
 random number generator seed                   : randomised (171402862)
 data distribution                              : optimal for this architecture
 optimization strategy                          : balance speed and memory

 *********************** Exchange-Correlation Parameters ***********************
  
 using functional                               : RSCAN
 relativistic treatment                         : Koelling-Harmon
 DFT+D: Semi-empirical dispersion correction    : off

 ************************* Pseudopotential Parameters **************************
  
 pseudopotential representation                 : reciprocal space
 <beta|phi> representation                      : reciprocal space
 spin-orbit coupling                            : off

 **************************** Basis Set Parameters *****************************
  
 plane wave basis set cut-off                   :   900.0000   eV
 size of standard grid                          :     2.0000
 size of   fine   gmax                          :    30.7390   1/A
 finite basis set correction                    : none

 **************************** Electronic Parameters ****************************
  
 number of  electrons                           :  72.00    
 net charge of system                           :  0.000    
 treating system as non-spin-polarized
 number of bands                                :         43

 ********************* Electronic Minimization Parameters **********************
  
 Method: Treating system as metallic with density mixing treatment of electrons,
         and number of  SD  steps               :          1
         and number of  CG  steps               :          4
  
 total energy / atom convergence tol.           : 0.1000E-07   eV
 eigen-energy convergence tolerance             : 0.2222E-08   eV
 max force / atom convergence tol.              : ignored
 convergence tolerance window                   :          3   cycles
 max. number of SCF cycles                      :         50
 number of fixed-spin iterations                :         10
 smearing scheme                                : Gaussian
 smearing width                                 : 0.2000       eV
 Fermi energy convergence tolerance             : 0.2721E-13   eV
 periodic dipole correction                     : NONE

 ************************** Density Mixing Parameters **************************
  
 density-mixing scheme                          : Pulay
 max. length of mixing history                  :         15
 charge density mixing amplitude                : 0.5000    
 cut-off energy for mixing                      :  900.0       eV

 *********************** Population Analysis Parameters ************************
  
 Population analysis with cutoff                :  3.000       A
 Population analysis output                     : summary and pdos components

 ********************** Geometry Optimization Parameters ***********************
  
 optimization method                            : LBFGS
 max. no. of LBFGS updates                      : unbounded
 preconditioned LBFGS is activated
 preconditioner type                            : EXP
     stabilization constant                     :     0.1000
     parameter A                                :     3.0000
     nearest neighbor distance                  : automatic
     cut-off distance                           : automatic
     parameter mu                               : automatic
 variable cell method                           : fixed basis quality
 max. number of steps                           :         30
 estimated bulk modulus                         :  500.0       GPa
 estimated <frequency>                          :  1668.       cm-1
 geom line minimiser                            : on
 with line minimiser tolerance                  :     0.4000
 total energy convergence tolerance             : 0.2000E-04   eV/atom
        max ionic |force| tolerance             : 0.1000E-02   eV/A
 max ionic |displacement| tolerance             : 0.1000E-02   A
   max |stress component| tolerance             : 0.1000       GPa
 convergence tolerance window                   :          2   steps
 backup results every                           :          5   steps
 write geom trajectory file                     : on

 *******************************************************************************
  

                           -------------------------------
                                      Unit Cell
                           -------------------------------
        Real Lattice(A)                      Reciprocal Lattice(1/A)
     5.9091020    -0.0000040    -0.0000040        1.063306287   0.000000720   0.000000720
    -0.0000040     5.9008410     0.0041270        0.000000720   1.064795405  -0.000744709
    -0.0000040     0.0041270     5.9008410        0.000000720  -0.000744709   1.064795405

                       Lattice parameters(A)       Cell Angles
                    a =      5.909102          alpha =   89.919856
                    b =      5.900842          beta  =   90.000078
                    c =      5.900842          gamma =   90.000078

                       Current cell volume =           205.754385       A**3
                                   density =             2.834287   AMU/A**3
                                           =             4.706445     g/cm^3

                           -------------------------------
                                     Cell Contents
                           -------------------------------
                         Total number of ions in cell =    8
                      Total number of species in cell =    2
                        Max number of any one species =    4

            xxxxxxxxxxxxxxxxxxxxxxxxxxxxxxxxxxxxxxxxxxxxxxxxxxxxxxxxxxxx
            x  Element    Atom        Fractional coordinates of atoms  x
            x            Number           u          v          w      x
            x----------------------------------------------------------x
            x  P            1         0.250000   0.250000   0.750000   x 
            x  P            2         0.750000   0.250000   0.250000   x 
            x  P            3         0.250000   0.750000   0.250000   x 
            x  P            4         0.750000   0.750000   0.750000   x 
            x  In           1         0.000000   0.000000   0.000000   x 
            x  In           2         0.500000  -0.000000   0.500000   x 
            x  In           3        -0.000000   0.500000   0.500000   x 
            x  In           4         0.500000   0.500000  -0.000000   x 
            xxxxxxxxxxxxxxxxxxxxxxxxxxxxxxxxxxxxxxxxxxxxxxxxxxxxxxxxxxxx


                         No user defined ionic velocities

                           -------------------------------
                                   Details of Species
                           -------------------------------

                               Mass of species in AMU
                                    P   30.9737600
                                    In  114.8180000

                          Electric Quadrupole Moment (Barn)
                                    P    1.0000000 No Isotope Defined
                                    In    0.7700000 Isotope115

                          Files used for pseudopotentials:
                                    P 3|1.8|4|4|5|30:31:32
                                    In 3|2.5|2.5|1.5|7|8|9|50:51:42U2.2U2.2

                           -------------------------------
                              k-Points For BZ Sampling
                           -------------------------------
                       MP grid size for SCF calculation is  6  6  6
                            with an offset of   0.083  0.083  0.083
                       Number of kpoints used =           112

                           -------------------------------
                               Symmetry and Constraints
                           -------------------------------

                      Cell is a supercell containing 4 primitive cells
                      Maximum deviation from symmetry =  0.00000         ANG

                      Number of symmetry operations   =           1
                      Number of ionic constraints     =           3
                      Point group of crystal =     1: C1, 1, 1
                      Space group of crystal =    44: Imm2, I 2 -2

             Set iprint > 1 for details on symmetry rotations/translations

                         Centre of mass is constrained
             Set iprint > 1 for details of linear ionic constraints

                         Number of cell constraints= 6
                         Cell constraints are:  0 0 0 0 0 0

                         External pressure/stress (GPa)
                          0.00000   0.00000   0.00000
                                    0.00000   0.00000
                                              0.00000
 
+---------------- MEMORY AND SCRATCH DISK ESTIMATES PER PROCESS --------------+
|                                                     Memory          Disk    |
| Baseline code, static data and system overhead      708.0 MB         0.0 MB |
| BLAS internal memory storage                          0.0 MB         0.0 MB |
| Model and support data                             1412.5 MB         0.0 MB |
| Electronic energy minimisation requirements         110.4 MB         0.0 MB |
| Force calculation requirements                       31.3 MB         0.0 MB |
| Stress calculation requirements                      34.6 MB         0.0 MB |
|                                               ----------------------------- |
| Approx. total storage required per process         2230.9 MB         0.0 MB |
|                                                                             |
| Requirements will fluctuate during execution and may exceed these estimates |
+-----------------------------------------------------------------------------+
Calculating approximate eigenstates for fixed initial Hamiltonian
Cut-off for approx. calculation is   89.988 eV
Improving approx. states at cut-off of  450.000 eV
Resetting cut-off to  900.000 eV
Calculating total energy with cut-off of  900.000 eV.
------------------------------------------------------------------------ <-- SCF
SCF loop      Energy           Fermi           Energy gain       Timer   <-- SCF
                               energy          per atom          (sec)   <-- SCF
------------------------------------------------------------------------ <-- SCF
Initial  -7.87900882E+003  0.00000000E+000                        35.00  <-- SCF
      1  -7.85061351E+003  2.56658532E+000  -3.54941332E+000      45.48  <-- SCF
      2  -7.85062806E+003  2.56637599E+000   1.81824741E-003      54.56  <-- SCF
      3  -7.85904604E+003  2.86236002E+000   1.05224761E+000      66.47  <-- SCF
      4  -7.86053732E+003  2.93643039E+000   1.86410721E-001      79.64  <-- SCF
      5  -7.85970446E+003  3.29325597E+000  -1.04108566E-001      91.41  <-- SCF
      6  -7.85976644E+003  3.34589828E+000   7.74792211E-003     103.18  <-- SCF
      7  -7.85971129E+003  3.38298517E+000  -6.89327088E-003     115.60  <-- SCF
      8  -7.85992167E+003  3.44954975E+000   2.62976481E-002     127.40  <-- SCF
      9  -7.85993028E+003  3.41318122E+000   1.07568929E-003     139.55  <-- SCF
     10  -7.85993285E+003  3.40269363E+000   3.21251263E-004     151.75  <-- SCF
     11  -7.85993285E+003  3.40541949E+000  -4.51950054E-007     164.07  <-- SCF
     12  -7.85993290E+003  3.40285448E+000   6.62432122E-006     176.36  <-- SCF
     13  -7.85993291E+003  3.40284927E+000   1.12728533E-006     187.54  <-- SCF
     14  -7.85993291E+003  3.40265233E+000   3.72724529E-007     198.58  <-- SCF
     15  -7.85993291E+003  3.40276785E+000  -7.74360849E-009     208.05  <-- SCF
     16  -7.85993291E+003  3.40279566E+000  -2.82559537E-009     217.42  <-- SCF
     17  -7.85993291E+003  3.40280645E+000   4.06901974E-009     226.84  <-- SCF
------------------------------------------------------------------------ <-- SCF
 
Final energy, E             =  -7859.932907135     eV
Final free energy (E-TS)    =  -7859.932911406     eV
(energies not corrected for finite basis set)
 
NB est. 0K energy (E-0.5TS)      =  -7859.932909271     eV
 
 
+---------------- MEMORY AND SCRATCH DISK ESTIMATES PER PROCESS --------------+
|                                                     Memory          Disk    |
| Model and support data                              838.3 MB         0.0 MB |
| Electronic energy minimisation requirements         110.4 MB         0.0 MB |
| Geometry minimisation requirements                  130.7 MB         0.0 MB |
|                                               ----------------------------- |
| Approx. total storage required per process         1079.4 MB         0.0 MB |
|                                                                             |
| Requirements will fluctuate during execution and may exceed these estimates |
+-----------------------------------------------------------------------------+
 

 ************************************** Forces **************************************
 *                                                                                  *
 *                           Cartesian components (eV/A)                            *
 * -------------------------------------------------------------------------------- *
 *                         x                    y                    z              *
 *                                                                                  *
 * P               1      0.01060             -0.00001             -0.00001         *
 * P               2      0.01059             -0.00001             -0.00001         *
 * P               3      0.01060             -0.00001             -0.00001         *
 * P               4      0.01060             -0.00001             -0.00001         *
 * In              1     -0.01060              0.00001              0.00001         *
 * In              2     -0.01060              0.00001              0.00001         *
 * In              3     -0.01060              0.00001              0.00001         *
 * In              4     -0.01060              0.00000              0.00001         *
 *                                                                                  *
 ************************************************************************************
 EXP precond LBFGS => estimated nearest neighbor distance :  2.555       A
 EXP precond LBFGS => estimated cutoff distance :  5.110       A

 ************************************** Forces **************************************
 *                                                                                  *
 *                           Cartesian components (eV/A)                            *
 * -------------------------------------------------------------------------------- *
 *                         x                    y                    z              *
 *                                                                                  *
 * P               1      0.01060             -0.00001             -0.00001         *
 * P               2      0.01059             -0.00001             -0.00001         *
 * P               3      0.01060             -0.00001             -0.00001         *
 * P               4      0.01060             -0.00001             -0.00001         *
 * In              1     -0.01060              0.00001              0.00001         *
 * In              2     -0.01060              0.00001              0.00001         *
 * In              3     -0.01060              0.00001              0.00001         *
 * In              4     -0.01060              0.00000              0.00001         *
 *                                                                                  *
 ************************************************************************************
 doing test perturbation to get energy scale for EXP preconditioner

                           -------------------------------
                                     Cell Contents
                           -------------------------------

            xxxxxxxxxxxxxxxxxxxxxxxxxxxxxxxxxxxxxxxxxxxxxxxxxxxxxxxxxxxxxxxxx
            x  Element         Atom        Fractional coordinates of atoms  x
            x                 Number           u          v          w      x
            x---------------------------------------------------------------x
            x  P                 1         0.251415   0.251071   0.752950   x
            x  P                 2         0.753639   0.251071   0.251071   x
            x  P                 3         0.251415   0.752950   0.251071   x
            x  P                 4         0.753639   0.752950   0.752950   x
            x  In                1         0.000000   0.000000   0.000000   x
            x  In                2         0.502674   1.003642   0.502075   x
            x  In                3        -0.000000   0.502075   0.502075   x
            x  In                4         0.502674   0.502076   1.003642   x
            xxxxxxxxxxxxxxxxxxxxxxxxxxxxxxxxxxxxxxxxxxxxxxxxxxxxxxxxxxxxxxxxx


------------------------------------------------------------------------ <-- SCF
SCF loop      Energy           Fermi           Energy gain       Timer   <-- SCF
                               energy          per atom          (sec)   <-- SCF
------------------------------------------------------------------------ <-- SCF
Initial  -7.85962042E+003  0.00000000E+000                       244.73  <-- SCF
      1  -7.85989069E+003  3.40373456E+000   3.37839918E-002     254.31  <-- SCF
      2  -7.85992636E+003  3.40365453E+000   4.45857967E-003     268.77  <-- SCF
      3  -7.85992671E+003  3.40369643E+000   4.39778826E-005     281.34  <-- SCF
      4  -7.85992698E+003  3.40373730E+000   3.35071624E-005     294.11  <-- SCF
      5  -7.85992702E+003  3.40371702E+000   4.65135496E-006     307.97  <-- SCF
      6  -7.85992703E+003  3.40371070E+000   8.78783748E-007     320.60  <-- SCF
      7  -7.85992703E+003  3.40371560E+000   5.22667471E-008     331.38  <-- SCF
      8  -7.85992703E+003  3.40371614E+000   1.00208674E-008     340.95  <-- SCF
      9  -7.85992703E+003  3.40371569E+000   6.78459980E-010     350.44  <-- SCF
     10  -7.85992703E+003  3.40371515E+000   1.56225610E-010     359.99  <-- SCF
     11  -7.85992703E+003  3.40371511E+000   5.76178610E-011     369.52  <-- SCF
------------------------------------------------------------------------ <-- SCF
 
Final energy, E             =  -7859.927022655     eV
Final free energy (E-TS)    =  -7859.927027065     eV
(energies not corrected for finite basis set)
 
NB est. 0K energy (E-0.5TS)      =  -7859.927024860     eV
 

 ************************************** Forces **************************************
 *                                                                                  *
 *                           Cartesian components (eV/A)                            *
 * -------------------------------------------------------------------------------- *
 *                         x                    y                    z              *
 *                                                                                  *
 * P               1      0.03412              0.09782             -0.03037         *
 * P               2     -0.04708              0.02694              0.02694         *
 * P               3      0.03411             -0.03037              0.09782         *
 * P               4     -0.19881             -0.10967             -0.10968         *
 * In              1      0.15518              0.09381              0.09381         *
 * In              2     -0.06234             -0.06239             -0.00774         *
 * In              3      0.14716             -0.00839             -0.00838         *
 * In              4     -0.06234             -0.00775             -0.06239         *
 *                                                                                  *
 ************************************************************************************
 EXP precond LBFGS => estimated parameter mu :  2.071       eV/A**2
 LBFGS: finished iteration     0 with enthalpy= -7.85993291E+003 eV
  
 +-----------+-----------------+-----------------+------------+-----+ <-- LBFGS
 | Parameter |      value      |    tolerance    |    units   | OK? | <-- LBFGS
 +-----------+-----------------+-----------------+------------+-----+ <-- LBFGS
 |  dE/ion   |   0.000000E+000 |   2.000000E-005 |         eV | No  | <-- LBFGS
 |  |F|max   |   2.521599E-001 |   1.000000E-003 |       eV/A | No  | <-- LBFGS
 |  |dR|max  |   1.975934E-015 |   1.000000E-003 |          A | No  | <-- LBFGS
 +-----------+-----------------+-----------------+------------+-----+ <-- LBFGS
  

================================================================================
 Starting LBFGS iteration          1 ...
================================================================================
  
 +------------+-------------+-------------+-----------------+ <-- min LBFGS
 |    Step    |   lambda    |   F.delta'  |    enthalpy     | <-- min LBFGS
 +------------+-------------+-------------+-----------------+ <-- min LBFGS
 |  previous  |    0.000000 |    0.006509 |    -7859.932911 | <-- min LBFGS
 +------------+-------------+-------------+-----------------+ <-- min LBFGS
  

--------------------------------------------------------------------------------
 LBFGS: starting iteration         1 with trial guess (lambda=  1.000000)
--------------------------------------------------------------------------------

                           -------------------------------
                                     Cell Contents
                           -------------------------------

            xxxxxxxxxxxxxxxxxxxxxxxxxxxxxxxxxxxxxxxxxxxxxxxxxxxxxxxxxxxxxxxxx
            x  Element         Atom        Fractional coordinates of atoms  x
            x                 Number           u          v          w      x
            x---------------------------------------------------------------x
            x  P                 1         0.250107   0.250000   0.750000   x
            x  P                 2         0.750107   0.250000   0.250000   x
            x  P                 3         0.250107   0.750000   0.250000   x
            x  P                 4         0.750107   0.750000   0.750000   x
            x  In                1        -0.000107   0.000000   0.000000   x
            x  In                2         0.499893   0.000000   0.500000   x
            x  In                3        -0.000107   0.500000   0.500000   x
            x  In                4         0.499893   0.500000   0.000000   x
            xxxxxxxxxxxxxxxxxxxxxxxxxxxxxxxxxxxxxxxxxxxxxxxxxxxxxxxxxxxxxxxxx


------------------------------------------------------------------------ <-- SCF
SCF loop      Energy           Fermi           Energy gain       Timer   <-- SCF
                               energy          per atom          (sec)   <-- SCF
------------------------------------------------------------------------ <-- SCF
Initial  -7.85959528E+003  0.00000000E+000                       381.15  <-- SCF
      1  -7.85989577E+003  3.40278050E+000   3.75614477E-002     390.76  <-- SCF
      2  -7.85993230E+003  3.40269731E+000   4.56666421E-003     405.19  <-- SCF
      3  -7.85993264E+003  3.40277451E+000   4.23764493E-005     417.72  <-- SCF
      4  -7.85993290E+003  3.40285739E+000   3.24113001E-005     430.49  <-- SCF
      5  -7.85993293E+003  3.40285529E+000   3.59275708E-006     444.41  <-- SCF
      6  -7.85993294E+003  3.40285703E+000   1.19130593E-006     456.93  <-- SCF
      7  -7.85993294E+003  3.40286168E+000   6.40221442E-008     468.11  <-- SCF
      8  -7.85993294E+003  3.40286269E+000   7.78053806E-009     477.62  <-- SCF
      9  -7.85993294E+003  3.40286300E+000   3.74322748E-010     487.11  <-- SCF
------------------------------------------------------------------------ <-- SCF
 
Final energy, E             =  -7859.932936033     eV
Final free energy (E-TS)    =  -7859.932940311     eV
(energies not corrected for finite basis set)
 
NB est. 0K energy (E-0.5TS)      =  -7859.932938172     eV
 

 ************************************** Forces **************************************
 *                                                                                  *
 *                           Cartesian components (eV/A)                            *
 * -------------------------------------------------------------------------------- *
 *                         x                    y                    z              *
 *                                                                                  *
 * P               1      0.00084              0.00007              0.00005         *
 * P               2      0.00083              0.00006              0.00006         *
 * P               3      0.00084              0.00005              0.00007         *
 * P               4      0.00081              0.00004              0.00004         *
 * In              1     -0.00095             -0.00003             -0.00003         *
 * In              2     -0.00071             -0.00012             -0.00004         *
 * In              3     -0.00095             -0.00004             -0.00004         *
 * In              4     -0.00071             -0.00004             -0.00011         *
 *                                                                                  *
 ************************************************************************************
  
 +------------+-------------+-------------+-----------------+ <-- min LBFGS
 |    Step    |   lambda    |   F.delta'  |    enthalpy     | <-- min LBFGS
 +------------+-------------+-------------+-----------------+ <-- min LBFGS
 |  previous  |    0.000000 |    0.006509 |    -7859.932911 | <-- min LBFGS
 | trial step |    1.000000 |    0.000511 |    -7859.932940 | <-- min LBFGS
 +------------+-------------+-------------+-----------------+ <-- min LBFGS
  
 LBFGS: finished iteration     1 with enthalpy= -7.85993294E+003 eV
  
 +-----------+-----------------+-----------------+------------+-----+ <-- LBFGS
 | Parameter |      value      |    tolerance    |    units   | OK? | <-- LBFGS
 +-----------+-----------------+-----------------+------------+-----+ <-- LBFGS
 |  dE/ion   |   3.613078E-006 |   2.000000E-005 |         eV | Yes | <-- LBFGS
 |  |F|max   |   9.521438E-004 |   1.000000E-003 |       eV/A | Yes | <-- LBFGS
 |  |dR|max  |   6.326354E-004 |   1.000000E-003 |          A | Yes | <-- LBFGS
 +-----------+-----------------+-----------------+------------+-----+ <-- LBFGS
  
 LBFGS: Geometry optimization completed successfully.

================================================================================
 LBFGS: Final Configuration:
================================================================================

                           -------------------------------
                                     Cell Contents
                           -------------------------------

            xxxxxxxxxxxxxxxxxxxxxxxxxxxxxxxxxxxxxxxxxxxxxxxxxxxxxxxxxxxxxxxxx
            x  Element         Atom        Fractional coordinates of atoms  x
            x                 Number           u          v          w      x
            x---------------------------------------------------------------x
            x  P                 1         0.250107   0.250000   0.750000   x
            x  P                 2         0.750107   0.250000   0.250000   x
            x  P                 3         0.250107   0.750000   0.250000   x
            x  P                 4         0.750107   0.750000   0.750000   x
            x  In                1        -0.000107   0.000000   0.000000   x
            x  In                2         0.499893   0.000000   0.500000   x
            x  In                3        -0.000107   0.500000   0.500000   x
            x  In                4         0.499893   0.500000   0.000000   x
            xxxxxxxxxxxxxxxxxxxxxxxxxxxxxxxxxxxxxxxxxxxxxxxxxxxxxxxxxxxxxxxxx


 LBFGS: Final Enthalpy     = -7.85993294E+003 eV
 LBFGS: Final <frequency>  unchanged from initial value

 ************************************** Forces **************************************
 *                                                                                  *
 *                           Cartesian components (eV/A)                            *
 * -------------------------------------------------------------------------------- *
 *                         x                    y                    z              *
 *                                                                                  *
 * P               1      0.00084              0.00007              0.00005         *
 * P               2      0.00083              0.00006              0.00006         *
 * P               3      0.00084              0.00005              0.00007         *
 * P               4      0.00081              0.00004              0.00004         *
 * In              1     -0.00095             -0.00003             -0.00003         *
 * In              2     -0.00071             -0.00012             -0.00004         *
 * In              3     -0.00095             -0.00004             -0.00004         *
 * In              4     -0.00071             -0.00004             -0.00011         *
 *                                                                                  *
 ************************************************************************************

 ***************** Stress Tensor *****************
 *                                               *
 *          Cartesian components (GPa)           *
 * --------------------------------------------- *
 *             x             y             z     *
 *                                               *
 *  x      0.139497     -0.000120     -0.000120  *
 *  y     -0.000120      0.076743      0.067061  *
 *  z     -0.000120      0.067061      0.076743  *
 *                                               *
 *  Pressure:   -0.0977                          *
 *                                               *
 *************************************************

 Pseudo atomic calculation performed for P 3s2 3p3

 Converged in 23 iterations to a total energy of -208.0292 eV

 Pseudo atomic calculation performed for In 4d10 5s2 5p1

 Converged in 42 iterations to a total energy of -1747.4501 eV
Charge spilling parameter for spin component 1 = 0.15%

            Orbital Populations       
     Ion    Atom   Orbital             Charge
  -------------------------------------------
      P     1      S                    1.735
      P     1      Px                   1.313
      P     1      Py                   1.314
      P     1      Pz                   1.314
      P     2      S                    1.735
      P     2      Px                   1.313
      P     2      Py                   1.314
      P     2      Pz                   1.314
      P     3      S                    1.735
      P     3      Px                   1.313
      P     3      Py                   1.314
      P     3      Pz                   1.314
      P     4      S                    1.735
      P     4      Px                   1.313
      P     4      Py                   1.314
      P     4      Pz                   1.314
     In     1      Dzz                  1.999
     In     1      Dzy                  1.997
     In     1      Dzx                  1.997
     In     1      Dxx-yy               1.999
     In     1      Dxy                  1.997
     In     1      S                    1.434
     In     1      Px                   0.482
     In     1      Py                   0.482
     In     1      Pz                   0.482
     In     1      S                   -0.545
     In     2      Dzz                  1.999
     In     2      Dzy                  1.997
     In     2      Dzx                  1.997
     In     2      Dxx-yy               1.999
     In     2      Dxy                  1.997
     In     2      S                    1.434
     In     2      Px                   0.482
     In     2      Py                   0.482
     In     2      Pz                   0.482
     In     2      S                   -0.545
     In     3      Dzz                  1.999
     In     3      Dzy                  1.997
     In     3      Dzx                  1.997
     In     3      Dxx-yy               1.999
     In     3      Dxy                  1.997
     In     3      S                    1.434
     In     3      Px                   0.482
     In     3      Py                   0.482
     In     3      Pz                   0.482
     In     3      S                   -0.545
     In     4      Dzz                  1.999
     In     4      Dzy                  1.997
     In     4      Dzx                  1.997
     In     4      Dxx-yy               1.999
     In     4      Dxy                  1.997
     In     4      S                    1.434
     In     4      Px                   0.482
     In     4      Py                   0.482
     In     4      Pz                   0.482
     In     4      S                   -0.545
  -------------------------------------------
                           Total:      72.000
  -------------------------------------------

     Atomic Populations (Mulliken)
     -----------------------------
Species          Ion     s       p       d       f      Total   Charge (e)
==========================================================================
  P               1     1.735   3.940   0.000   0.000   5.676    -0.676
  P               2     1.735   3.940   0.000   0.000   5.676    -0.676
  P               3     1.735   3.940   0.000   0.000   5.676    -0.676
  P               4     1.735   3.940   0.000   0.000   5.676    -0.676
  In              1     0.889   1.446   9.989   0.000  12.324     0.676
  In              2     0.889   1.446   9.989   0.000  12.324     0.676
  In              3     0.889   1.446   9.989   0.000  12.324     0.676
  In              4     0.889   1.446   9.989   0.000  12.324     0.676
==========================================================================

                 Bond                   Population      Length (A)
======================================================================
               P 2 -- In 4                   0.56        2.55587
               P 3 -- In 3                   0.56        2.55587
               P 2 -- In 2                   0.56        2.55587
               P 1 -- In 1                   0.56        2.55587
               P 4 -- In 2                   0.56        2.55587
               P 3 -- In 1                   0.56        2.55587
               P 1 -- In 3                   0.56        2.55587
               P 4 -- In 4                   0.56        2.55587
               P 1 -- In 4                   0.56        2.55679
               P 3 -- In 2                   0.56        2.55679
               P 2 -- In 3                   0.56        2.55679
               P 4 -- In 1                   0.56        2.55679
               P 4 -- In 3                   0.56        2.55679
               P 2 -- In 1                   0.56        2.55679
               P 1 -- In 2                   0.56        2.55679
               P 3 -- In 4                   0.56        2.55679
======================================================================


     Hirshfeld Analysis
     ------------------
Species   Ion     Hirshfeld Charge (e)
======================================
  P        1                -0.24
  P        2                -0.24
  P        3                -0.24
  P        4                -0.24
  In       1                 0.24
  In       2                 0.24
  In       3                 0.24
  In       4                 0.24
======================================

 
 A BibTeX formatted list of references used in this run has been written to 
 Bulk_Elastic_8.bib
 
Initialisation time =     12.62 s
Calculation time    =    580.04 s
Finalisation time   =      0.82 s
Total time          =    593.48 s
Peak Memory Use     = 2627484 kB
 
Overall parallel efficiency rating: Excellent (95%)
 
Data was distributed by:-
k-point (56-way); efficiency rating: Excellent (95%)
 
Parallel notes:
1) Calculation only took 592.7 s, so efficiency estimates may be inaccurate.
