 +-------------------------------------------------+
 |                                                 |
 |      CCC   AA    SSS  TTTTT  EEEEE  PPPP        |
 |     C     A  A  S       T    E      P   P       |
 |     C     AAAA   SS     T    EEE    PPPP        |
 |     C     A  A     S    T    E      P           |
 |      CCC  A  A  SSS     T    EEEEE  P           |
 |                                                 |
 +-------------------------------------------------+
 |                                                 |
 | Welcome to Academic Release CASTEP version 20.11|          
 | Ab Initio Total Energy Program                  |
 |                                                 |
 | Authors:                                        |
 | M. Segall, M. Probert, C. Pickard, P. Hasnip,   |
 | S. Clark, K. Refson, J. R. Yates, M. Payne      |
 |                                                 |
 | Contributors:                                   |
 | P. Lindan, P. Haynes, J. White, V. Milman,      |
 | N. Govind, M. Gibson, P. Tulip, V. Cocula,      |
 | B. Montanari, D. Quigley, M. Glover,            |
 | L. Bernasconi, A. Perlov, M. Plummer,           |
 | E. McNellis, J. Meyer, J. Gale, D. Jochym       |
 | J. Aarons, B. Walker, R. Gillen, D. Jones       |
 | T. Green, I. J. Bush, C. J. Armstrong,          |
 | E. J. Higgins, E. L. Brown, M. S. McFly,        |
 | J. Wilkins, B-C. Shih, P. J. P. Byrne,          |
 | R. J. Maurer, J. C. Womack, J. Dziedzic,        |
 | J. R. Kermode, A. Bartok-Partay                 |
 |                                                 |
 | Copyright (c) 2000 - 2020                       |
 |                                                 |
 |     Distributed under license from Cambridge    |
 |     Enterprise for academic use only.           |
 |                                                 |
 | Please cite                                     |
 |                                                 |
 |     "First principles methods using CASTEP"     |
 |                                                 |
 |         Zeitschrift fuer Kristallographie       |
 |           220(5-6) pp. 567-570 (2005)           |
 |                                                 |
 | S. J. Clark, M. D. Segall, C. J. Pickard,       |
 | P. J. Hasnip, M. J. Probert, K. Refson,         |
 | M. C. Payne                                     |
 |                                                 |
 |       in all publications arising from          |
 |              your use of CASTEP                 |
 |                                                 |
 +-------------------------------------------------+
 |                                                 |
 |              http://www.castep.org              |
 |                                                 |
 +-------------------------------------------------+
 
 
 
 Compiled for linux_x86_64_ifort on Wed, 25 Aug 2021 18:50:38 +0100
 from code version e772bf432+  HEAD  Sat Apr 3 17:41:32 2021 +0100
 Compiler: Intel Fortran 19.0.5.281; Optimisation: fast
 MATHLIBS: Intel MKL(2019.0.5) (LAPACK version 3.7.0)
 FFT Lib : mkl
 Fundamental constants values: CODATA 2014
 
 Run started: Fri, 16 Dec 2022 13:08:38 +0000
 
 Atomic calculation performed for P: 1s2 2s2 2p6 3s2 3p3
 
 Exceeded max iterations: converged to -0.000003405 eV
 The ae energy is -9309.074 eV
 
   ============================================================                
   | Pseudopotential Report - Date of generation 16-12-2022   |                
   ------------------------------------------------------------                
   | Element: P Ionic charge:  5.00 Level of theory: RSCAN    |                
   | Atomic Solver: Koelling-Harmon                           |                
   |                                                          |                
   |               Reference Electronic Structure             |                
   |         Orbital         Occupation         Energy        |                
   |            3s              2.000           -0.535        |                
   |            3p              3.000           -0.209        |                
   |                                                          |                
   |                 Pseudopotential Definition               |                
   |        Beta     l      e      Rc     scheme   norm       |                
   |          1      0   -0.535   1.807     qc      0         |                
   |          2      0    0.250   1.807     qc      0         |                
   |          3      1   -0.209   1.807     qc      0         |                
   |          4      1    0.250   1.807     qc      0         |                
   |          5      2    0.000   1.807     qc      0         |                
   |          6      2    0.250   1.807     qc      0         |                
   |         loc     3    0.000   1.807     pn      0         |                
   |                                                          |                
   | Augmentation charge Rinner = 1.263                       |                
   | Partial core correction Rc = 1.263                       |                
   ------------------------------------------------------------                
   | "3|1.8|4|4|5|30:31:32"                                   |                
   ------------------------------------------------------------                
   |      Author: Chris J. Pickard, Cambridge University      |                
   ============================================================                
 Warning: ion_atom_output_psp cannot write out meta-GGA pseudopotentials present
 ly.
 
 Atomic calculation performed for In:
 1s2 2s2 2p6 3s2 3p6 3d10 4s2 4p6 4d10 5s2 5p1
 
 Exceeded max iterations: converged to -0.000725459 eV
 The ae energy is -160093.321 eV
 
   ============================================================                
   | Pseudopotential Report - Date of generation 16-12-2022   |                
   ------------------------------------------------------------                
   | Element: In Ionic charge: 13.00 Level of theory: RSCAN   |                
   | Atomic Solver: Koelling-Harmon                           |                
   |                                                          |                
   |               Reference Electronic Structure             |                
   |         Orbital         Occupation         Energy        |                
   |            4d             10.000           -0.711        |                
   |            5s              2.000           -0.313        |                
   |            5p              1.000           -0.095        |                
   |                                                          |                
   |                 Pseudopotential Definition               |                
   |        Beta     l      e      Rc     scheme   norm       |                
   |          1      0   -0.313   2.501     qc      0         |                
   |          2      0    0.250   2.501     qc      0         |                
   |          3      1   -0.095   2.501     qc      0         |                
   |          4      1    0.250   2.501     qc      0         |                
   |          5      2   -0.711   2.207     qc      0         |                
   |          6      2    0.250   2.207     qc      0         |                
   |         loc     3    0.000   2.501     pn      0         |                
   |                                                          |                
   | Augmentation charge Rinner = 1.504                       |                
   | Partial core correction Rc = 1.504                       |                
   ------------------------------------------------------------                
   | "3|2.5|2.5|1.5|7|8|9|50:51:42U2.2U2.2"                   |                
   ------------------------------------------------------------                
   |      Author: Chris J. Pickard, Cambridge University      |                
   ============================================================                
 Warning: ion_atom_output_psp cannot write out meta-GGA pseudopotentials present
 ly.
 
 Pseudo atomic calculation performed for P 3s2 3p3
 
 Converged in 23 iterations to a total energy of -208.0292 eV
 
 Pseudo atomic calculation performed for In 4d10 5s2 5p1
 
 Converged in 42 iterations to a total energy of -1747.4504 eV
 Calculation parallelised over 32 processes.
 Data is distributed by k-point(32-way)

 ************************************ Title ************************************
 

 ***************************** General Parameters ******************************
  
 output verbosity                               : normal  (1)
 write checkpoint data to                       : WZ_EOS_0.7898.check
 type of calculation                            : single point energy
 stress calculation                             : on
 density difference calculation                 : off
 electron localisation func (ELF) calculation   : off
 Hirshfeld analysis                             : off
 molecular orbital projected DOS                : off
 deltaSCF calculation                           : off
 unlimited duration calculation
 timing information                             : on
 memory usage estimate                          : on
 write extra output files                       : on
 write final potential to formatted file        : off
 write final density to formatted file          : off
 write BibTeX reference list                    : on
 write OTFG pseudopotential files               : on
 write electrostatic potential file             : on
 write bands file                               : on
 checkpoint writing                             : off
  
 output         length unit                     : A
 output           mass unit                     : amu
 output           time unit                     : ps
 output         charge unit                     : e
 output           spin unit                     : hbar/2
 output         energy unit                     : eV
 output          force unit                     : eV/A
 output       velocity unit                     : A/ps
 output       pressure unit                     : GPa
 output     inv_length unit                     : 1/A
 output      frequency unit                     : cm-1
 output force constant unit                     : eV/A**2
 output         volume unit                     : A**3
 output   IR intensity unit                     : (D/A)**2/amu
 output         dipole unit                     : D
 output         efield unit                     : eV/A/e
 output        entropy unit                     : J/mol/K
 output    efield chi2 unit                     : pm/V
  
 wavefunctions paging                           : none
 random number generator seed                   : randomised (130838426)
 data distribution                              : optimal for this architecture
 optimization strategy                          : balance speed and memory

 *********************** Exchange-Correlation Parameters ***********************
  
 using functional                               : RSCAN
 relativistic treatment                         : Koelling-Harmon
 DFT+D: Semi-empirical dispersion correction    : off

 ************************* Pseudopotential Parameters **************************
  
 pseudopotential representation                 : reciprocal space
 <beta|phi> representation                      : reciprocal space
 spin-orbit coupling                            : off

 **************************** Basis Set Parameters *****************************
  
 plane wave basis set cut-off                   :   900.0000   eV
 size of standard grid                          :     1.7500
 size of   fine   gmax                          :    26.8966   1/A
 finite basis set correction                    : automatic
 number of sample energies                      :          3
           sample  spacing                      :     5.0000   eV

 **************************** Electronic Parameters ****************************
  
 number of  electrons                           :  36.00    
 net charge of system                           :  0.000    
 treating system as non-spin-polarized
 number of bands                                :         22

 ********************* Electronic Minimization Parameters **********************
  
 Method: Treating system as metallic with density mixing treatment of electrons,
         and number of  SD  steps               :          1
         and number of  CG  steps               :          4
  
 total energy / atom convergence tol.           : 0.1000E-07   eV
 eigen-energy convergence tolerance             : 0.2222E-08   eV
 max force / atom convergence tol.              : ignored
 convergence tolerance window                   :          3   cycles
 max. number of SCF cycles                      :         30
 number of fixed-spin iterations                :         10
 smearing scheme                                : Gaussian
 smearing width                                 : 0.2000       eV
 Fermi energy convergence tolerance             : 0.2721E-13   eV
 periodic dipole correction                     : NONE

 ************************** Density Mixing Parameters **************************
  
 density-mixing scheme                          : Broyden
 max. length of mixing history                  :         20
 charge density mixing amplitude                : 0.8000    
 cut-off energy for mixing                      :  900.0       eV

 *********************** Population Analysis Parameters ************************
  
 Population analysis with cutoff                :  3.000       A
 Population analysis output                     : summary and pdos components

 *******************************************************************************
  
 
                           -------------------------------
                                      Unit Cell
                           -------------------------------
        Real Lattice(A)                      Reciprocal Lattice(1/A)
     3.2892770    -0.0000340     0.0000000        1.910191149  -1.102823182   0.000000000
     1.6446090     2.8486140     0.0000000        0.000022799   2.205685927   0.000000000
     0.0000000     0.0000000     5.4017040        0.000000000   0.000000000   1.163185785
 
                       Lattice parameters(A)       Cell Angles
                    a =      3.289277          alpha =   90.000000
                    b =      3.289277          beta  =   90.000000
                    c =      5.401704          gamma =   60.001181
 
                       Current cell volume =            50.613623       A**3
                                   density =             5.760969   AMU/A**3
                                           =             9.566314     g/cm^3
 
                           -------------------------------
                                     Cell Contents
                           -------------------------------
                         Total number of ions in cell =    4
                      Total number of species in cell =    2
                        Max number of any one species =    2
 
            xxxxxxxxxxxxxxxxxxxxxxxxxxxxxxxxxxxxxxxxxxxxxxxxxxxxxxxxxxxx
            x  Element    Atom        Fractional coordinates of atoms  x
            x            Number           u          v          w      x
            x----------------------------------------------------------x
            x  P            1         0.333329   0.333331  -0.000013   x 
            x  P            2         0.666669   0.666671   0.499987   x 
            x  In           1         0.333331   0.333333   0.374443   x 
            x  In           2         0.666667   0.666669   0.874443   x 
            xxxxxxxxxxxxxxxxxxxxxxxxxxxxxxxxxxxxxxxxxxxxxxxxxxxxxxxxxxxx
 
 
                         No user defined ionic velocities
 
                           -------------------------------
                                   Details of Species
                           -------------------------------
 
                               Mass of species in AMU
                                    P   30.9737600
                                    In  114.8180000
 
                          Electric Quadrupole Moment (Barn)
                                    P    1.0000000 No Isotope Defined
                                    In    0.7700000 Isotope115
 
                          Files used for pseudopotentials:
                                    P 3|1.8|4|4|5|30:31:32
                                    In 3|2.5|2.5|1.5|7|8|9|50:51:42U2.2U2.2
 
                           -------------------------------
                              k-Points For BZ Sampling
                           -------------------------------
                       MP grid size for SCF calculation is 13 13  7
                            with an offset of   0.038  0.038  0.071
                       Number of kpoints used =           592
 
                           -------------------------------
                               Symmetry and Constraints
                           -------------------------------
 
                      Maximum deviation from symmetry =  0.00000         ANG
 
                      Number of symmetry operations   =           1
                      Number of ionic constraints     =           3
                      Point group of crystal =     1: C1, 1, 1
                      Space group of crystal =   186: P6_3mc, P 6c -2c
 
             Set iprint > 1 for details on symmetry rotations/translations
 
                         Centre of mass is constrained
             Set iprint > 1 for details of linear ionic constraints
 
                         Number of cell constraints= 0
                         Cell constraints are:  1 2 3 4 5 6
 
                         External pressure/stress (GPa)
                          0.00000   0.00000   0.00000
                                    0.00000   0.00000
                                              0.00000
  
+---------------- MEMORY AND SCRATCH DISK ESTIMATES PER PROCESS --------------+
|                                                     Memory          Disk    |
| Baseline code, static data and system overhead      394.0 MB         0.0 MB |
| BLAS internal memory storage                          0.0 MB         0.0 MB |
| Model and support data                              216.8 MB       230.4 MB |
| Electronic energy minimisation requirements          56.6 MB         0.0 MB |
| Force calculation requirements                        6.3 MB         0.0 MB |
| Stress calculation requirements                       6.9 MB         0.0 MB |
|                                               ----------------------------- |
| Approx. total storage required per process          667.4 MB       230.4 MB |
|                                                                             |
| Requirements will fluctuate during execution and may exceed these estimates |
+-----------------------------------------------------------------------------+
Calculating finite basis set correction with  3 cut-off energies.
Calculating total energy with cut-off of  890.000 eV.
------------------------------------------------------------------------ <-- SCF
SCF loop      Energy           Fermi           Energy gain       Timer   <-- SCF
                               energy          per atom          (sec)   <-- SCF
------------------------------------------------------------------------ <-- SCF
Initial  -3.12470086E+003  0.00000000E+000                        18.72  <-- SCF
      1  -3.81646115E+003  1.21171988E+001   1.72940072E+002      32.99  <-- SCF
      2  -3.89446002E+003  1.20766912E+001   1.94997194E+001      43.03  <-- SCF
      3  -3.89593813E+003  1.18146491E+001   3.69527392E-001      53.18  <-- SCF
      4  -3.91153962E+003  1.22331422E+001   3.90037130E+000      65.47  <-- SCF
      5  -3.91154514E+003  1.22329278E+001   1.37968348E-003      76.73  <-- SCF
      6  -3.91155370E+003  1.23093811E+001   2.14148497E-003      88.94  <-- SCF
      7  -3.91053759E+003  1.24766988E+001  -2.54027913E-001     101.17  <-- SCF
      8  -3.91058561E+003  1.25234356E+001   1.20038164E-002     114.20  <-- SCF
      9  -3.91058560E+003  1.25277443E+001  -2.31992517E-006     128.15  <-- SCF
     10  -3.91058585E+003  1.25324182E+001   6.34695750E-005     140.81  <-- SCF
     11  -3.91058587E+003  1.25335019E+001   5.78904920E-006     153.70  <-- SCF
     12  -3.91058587E+003  1.25336254E+001   1.31023403E-007     164.13  <-- SCF
     13  -3.91058587E+003  1.25336730E+001   6.86019908E-009     172.52  <-- SCF
     14  -3.91058587E+003  1.25336700E+001   6.22195559E-010     180.57  <-- SCF
------------------------------------------------------------------------ <-- SCF
 
Final energy, E             =  -3910.582313928     eV
Final free energy (E-TS)    =  -3910.585874973     eV
(energies not corrected for finite basis set)
 
NB est. 0K energy (E-0.5TS)      =  -3910.584094451     eV
 
Calculating total energy with cut-off of  895.000 eV.
------------------------------------------------------------------------ <-- SCF
SCF loop      Energy           Fermi           Energy gain       Timer   <-- SCF
                               energy          per atom          (sec)   <-- SCF
------------------------------------------------------------------------ <-- SCF
Initial  -3.91058231E+003  0.00000000E+000                       182.88  <-- SCF
      1  -3.91058589E+003  1.25336704E+001   8.93307554E-004     194.33  <-- SCF
      2  -3.91058589E+003  1.25336704E+001   4.19566303E-011     202.51  <-- SCF
      3  -3.91058589E+003  1.25336702E+001   9.07191287E-010     210.86  <-- SCF
      4  -3.91058589E+003  1.25336694E+001   5.43309360E-011     219.18  <-- SCF
------------------------------------------------------------------------ <-- SCF
 
Final energy, E             =  -3910.582326110     eV
Final free energy (E-TS)    =  -3910.585887153     eV
(energies not corrected for finite basis set)
 
NB est. 0K energy (E-0.5TS)      =  -3910.584106631     eV
 
Calculating total energy with cut-off of  900.000 eV.
------------------------------------------------------------------------ <-- SCF
SCF loop      Energy           Fermi           Energy gain       Timer   <-- SCF
                               energy          per atom          (sec)   <-- SCF
------------------------------------------------------------------------ <-- SCF
Initial  -3.91058233E+003  0.00000000E+000                       221.56  <-- SCF
      1  -3.91058590E+003  1.25336697E+001   8.92865311E-004     233.10  <-- SCF
      2  -3.91058590E+003  1.25336697E+001   1.08275175E-011     241.47  <-- SCF
      3  -3.91058590E+003  1.25336694E+001   7.63146635E-010     249.77  <-- SCF
      4  -3.91058590E+003  1.25336696E+001   3.69295686E-011     258.01  <-- SCF
------------------------------------------------------------------------ <-- SCF
 
Final energy, E             =  -3910.582336522     eV
Final free energy (E-TS)    =  -3910.585897565     eV
(energies not corrected for finite basis set)
 
NB est. 0K energy (E-0.5TS)      =  -3910.584117044     eV
 
 For future reference: finite basis dEtot/dlog(Ecut) =      -0.002033eV
 Total energy corrected for finite basis set =   -3910.585898 eV
 
 ************************** Forces **************************
 *                                                          *
 *               Cartesian components (eV/A)                *
 * -------------------------------------------------------- *
 *                         x            y            z      *
 *                                                          *
 * P               1      0.00160      0.00093      0.58441 *
 * P               2     -0.00160     -0.00093      0.58445 *
 * In              1      0.00039      0.00023     -0.58440 *
 * In              2     -0.00039     -0.00023     -0.58446 *
 *                                                          *
 ************************************************************
 
 ***************** Stress Tensor *****************
 *                                               *
 *          Cartesian components (GPa)           *
 * --------------------------------------------- *
 *             x             y             z     *
 *                                               *
 *  x   -219.053958      0.007828     -0.000002  *
 *  y      0.007828   -219.062994     -0.000001  *
 *  z     -0.000002     -0.000001   -223.174121  *
 *                                               *
 *  Pressure:  220.4304                          *
 *                                               *
 *************************************************
 
 Pseudo atomic calculation performed for P 3s2 3p3
 
 Converged in 23 iterations to a total energy of -208.0292 eV
 
 Pseudo atomic calculation performed for In 4d10 5s2 5p1
 
 Converged in 42 iterations to a total energy of -1747.4504 eV
Charge spilling parameter for spin component 1 = 0.43%
 
            Orbital Populations       
     Ion    Atom   Orbital             Charge
  -------------------------------------------
      P     1      S                    1.533
      P     1      Px                   1.402
      P     1      Py                   1.402
      P     1      Pz                   1.404
      P     2      S                    1.533
      P     2      Px                   1.402
      P     2      Py                   1.402
      P     2      Pz                   1.404
     In     1      Dzz                  1.976
     In     1      Dzy                  1.986
     In     1      Dzx                  1.986
     In     1      Dxx-yy               1.981
     In     1      Dxy                  1.981
     In     1      S                    1.671
     In     1      Px                   0.615
     In     1      Py                   0.615
     In     1      Pz                   0.597
     In     1      S                   -1.151
     In     2      Dzz                  1.976
     In     2      Dzy                  1.986
     In     2      Dzx                  1.986
     In     2      Dxx-yy               1.981
     In     2      Dxy                  1.981
     In     2      S                    1.671
     In     2      Px                   0.615
     In     2      Py                   0.615
     In     2      Pz                   0.597
     In     2      S                   -1.151
  -------------------------------------------
                           Total:      36.000
  -------------------------------------------
 
     Atomic Populations (Mulliken)
     -----------------------------
Species          Ion     s      p      d      f     Total  Charge (e)
=====================================================================
  P               1     1.53   4.21   0.00   0.00   5.74    -0.74
  P               2     1.53   4.21   0.00   0.00   5.74    -0.74
  In              1     0.52   1.83   9.91   0.00  12.26     0.74
  In              2     0.52   1.83   9.91   0.00  12.26     0.74
=====================================================================
 
                 Bond                   Population      Length (A)
======================================================================
               P 1 -- In 2                   2.99        2.01652
               P 2 -- In 1                   2.99        2.01652
               P 1 -- In 1                  -0.50        2.02270
               P 2 -- In 2                  -0.50        2.02270
======================================================================
 
 
 A BibTeX formatted list of references used in this run has been written to 
 WZ_EOS_0.7898.bib
 
Initialisation time =     16.13 s
Calculation time    =    257.55 s
Finalisation time   =      0.13 s
Total time          =    273.81 s
Peak Memory Use     = 1254872 kB
  
Overall parallel efficiency rating: Excellent (93%)                             
  
Data was distributed by:-
k-point (32-way); efficiency rating: Excellent (93%)                            
  
Parallel notes:
1) Calculation only took 273.7 s, so efficiency estimates may be inaccurate.    
