1
Lattice="12.0 0.0 0.0 0.0 12.0 0.0 0.0 0.0 12.0" Properties=species:S:1:pos:R:3:mulliken_charges:R:1:forces:R:3 fermi_energy=-2.8259294917095 core_to_fermi_energy=16.329081081498153 config_type=IsolatedAtom energy=-1747.917419552 pbc="T T T"
In       0.00000000       0.00000000       0.00000000       0.00000000       0.00000000       0.00000000       0.00000000
