1
Lattice="12.0 0.0 0.0 0.0 12.0 0.0 0.0 0.0 12.0" Properties=species:S:1:pos:R:3:mulliken_charges:R:1:forces:R:3 fermi_energy=-4.6706980925025 core_to_fermi_energy=10.883036493200281 config_type=IsolatedAtom energy=-210.3893152004 pbc="T T T"
P        0.00000000       0.00000000       0.00000000       0.00000000       0.00000000       0.00000000       0.00000000
