 +-------------------------------------------------+
 |                                                 |
 |      CCC   AA    SSS  TTTTT  EEEEE  PPPP        |
 |     C     A  A  S       T    E      P   P       |
 |     C     AAAA   SS     T    EEE    PPPP        |
 |     C     A  A     S    T    E      P           |
 |      CCC  A  A  SSS     T    EEEEE  P           |
 |                                                 |
 +-------------------------------------------------+
 |                                                 |
 | Welcome to Academic Release CASTEP version 20.11|          
 | Ab Initio Total Energy Program                  |
 |                                                 |
 | Authors:                                        |
 | M. Segall, M. Probert, C. Pickard, P. Hasnip,   |
 | S. Clark, K. Refson, J. R. Yates, M. Payne      |
 |                                                 |
 | Contributors:                                   |
 | P. Lindan, P. Haynes, J. White, V. Milman,      |
 | N. Govind, M. Gibson, P. Tulip, V. Cocula,      |
 | B. Montanari, D. Quigley, M. Glover,            |
 | L. Bernasconi, A. Perlov, M. Plummer,           |
 | E. McNellis, J. Meyer, J. Gale, D. Jochym       |
 | J. Aarons, B. Walker, R. Gillen, D. Jones       |
 | T. Green, I. J. Bush, C. J. Armstrong,          |
 | E. J. Higgins, E. L. Brown, M. S. McFly,        |
 | J. Wilkins, B-C. Shih, P. J. P. Byrne,          |
 | R. J. Maurer, J. C. Womack, J. Dziedzic,        |
 | J. R. Kermode, A. Bartok-Partay                 |
 |                                                 |
 | Copyright (c) 2000 - 2020                       |
 |                                                 |
 |     Distributed under license from Cambridge    |
 |     Enterprise for academic use only.           |
 |                                                 |
 | Please cite                                     |
 |                                                 |
 |     "First principles methods using CASTEP"     |
 |                                                 |
 |         Zeitschrift fuer Kristallographie       |
 |           220(5-6) pp. 567-570 (2005)           |
 |                                                 |
 | S. J. Clark, M. D. Segall, C. J. Pickard,       |
 | P. J. Hasnip, M. J. Probert, K. Refson,         |
 | M. C. Payne                                     |
 |                                                 |
 |       in all publications arising from          |
 |              your use of CASTEP                 |
 |                                                 |
 +-------------------------------------------------+
 |                                                 |
 |              http://www.castep.org              |
 |                                                 |
 +-------------------------------------------------+
 
 
 
 Compiled for linux_x86_64_ifort on Wed, 25 Aug 2021 18:50:38 +0100
 from code version e772bf432+  HEAD  Sat Apr 3 17:41:32 2021 +0100
 Compiler: Intel Fortran 19.0.5.281; Optimisation: fast
 MATHLIBS: Intel MKL(2019.0.5) (LAPACK version 3.7.0)
 FFT Lib : mkl
 Fundamental constants values: CODATA 2014
 
 Run started: Thu, 15 Dec 2022 22:19:58 +0000
 
 Atomic calculation performed for P: 1s2 2s2 2p6 3s2 3p3
 
 Exceeded max iterations: converged to -0.000003405 eV
 The ae energy is -9309.074 eV
 
   ============================================================                
   | Pseudopotential Report - Date of generation 15-12-2022   |                
   ------------------------------------------------------------                
   | Element: P Ionic charge:  5.00 Level of theory: RSCAN    |                
   | Atomic Solver: Koelling-Harmon                           |                
   |                                                          |                
   |               Reference Electronic Structure             |                
   |         Orbital         Occupation         Energy        |                
   |            3s              2.000           -0.535        |                
   |            3p              3.000           -0.209        |                
   |                                                          |                
   |                 Pseudopotential Definition               |                
   |        Beta     l      e      Rc     scheme   norm       |                
   |          1      0   -0.535   1.807     qc      0         |                
   |          2      0    0.250   1.807     qc      0         |                
   |          3      1   -0.209   1.807     qc      0         |                
   |          4      1    0.250   1.807     qc      0         |                
   |          5      2    0.000   1.807     qc      0         |                
   |          6      2    0.250   1.807     qc      0         |                
   |         loc     3    0.000   1.807     pn      0         |                
   |                                                          |                
   | Augmentation charge Rinner = 1.263                       |                
   | Partial core correction Rc = 1.263                       |                
   ------------------------------------------------------------                
   | "3|1.8|4|4|5|30:31:32"                                   |                
   ------------------------------------------------------------                
   |      Author: Chris J. Pickard, Cambridge University      |                
   ============================================================                
 Warning: ion_atom_output_psp cannot write out meta-GGA pseudopotentials present
 ly.
 
 Atomic calculation performed for In:
 1s2 2s2 2p6 3s2 3p6 3d10 4s2 4p6 4d10 5s2 5p1
 
 Exceeded max iterations: converged to -0.000725459 eV
 The ae energy is -160093.321 eV
 
   ============================================================                
   | Pseudopotential Report - Date of generation 15-12-2022   |                
   ------------------------------------------------------------                
   | Element: In Ionic charge: 13.00 Level of theory: RSCAN   |                
   | Atomic Solver: Koelling-Harmon                           |                
   |                                                          |                
   |               Reference Electronic Structure             |                
   |         Orbital         Occupation         Energy        |                
   |            4d             10.000           -0.711        |                
   |            5s              2.000           -0.313        |                
   |            5p              1.000           -0.095        |                
   |                                                          |                
   |                 Pseudopotential Definition               |                
   |        Beta     l      e      Rc     scheme   norm       |                
   |          1      0   -0.313   2.501     qc      0         |                
   |          2      0    0.250   2.501     qc      0         |                
   |          3      1   -0.095   2.501     qc      0         |                
   |          4      1    0.250   2.501     qc      0         |                
   |          5      2   -0.711   2.207     qc      0         |                
   |          6      2    0.250   2.207     qc      0         |                
   |         loc     3    0.000   2.501     pn      0         |                
   |                                                          |                
   | Augmentation charge Rinner = 1.504                       |                
   | Partial core correction Rc = 1.504                       |                
   ------------------------------------------------------------                
   | "3|2.5|2.5|1.5|7|8|9|50:51:42U2.2U2.2"                   |                
   ------------------------------------------------------------                
   |      Author: Chris J. Pickard, Cambridge University      |                
   ============================================================                
 Warning: ion_atom_output_psp cannot write out meta-GGA pseudopotentials present
 ly.
 
 Pseudo atomic calculation performed for P 3s2 3p3
 
 Converged in 23 iterations to a total energy of -208.0292 eV
 
 Pseudo atomic calculation performed for In 4d10 5s2 5p1
 
 Converged in 42 iterations to a total energy of -1747.4504 eV
 Calculation parallelised over 32 processes.
 Data is distributed by k-point(32-way)

 ************************************ Title ************************************
 

 ***************************** General Parameters ******************************
  
 output verbosity                               : normal  (1)
 write checkpoint data to                       : ZB_EOS_0.9763.check
 type of calculation                            : single point energy
 stress calculation                             : on
 density difference calculation                 : off
 electron localisation func (ELF) calculation   : off
 Hirshfeld analysis                             : off
 molecular orbital projected DOS                : off
 deltaSCF calculation                           : off
 unlimited duration calculation
 timing information                             : on
 memory usage estimate                          : on
 write extra output files                       : on
 write final potential to formatted file        : off
 write final density to formatted file          : off
 write BibTeX reference list                    : on
 write OTFG pseudopotential files               : on
 write electrostatic potential file             : on
 write bands file                               : on
 checkpoint writing                             : off
  
 output         length unit                     : A
 output           mass unit                     : amu
 output           time unit                     : ps
 output         charge unit                     : e
 output           spin unit                     : hbar/2
 output         energy unit                     : eV
 output          force unit                     : eV/A
 output       velocity unit                     : A/ps
 output       pressure unit                     : GPa
 output     inv_length unit                     : 1/A
 output      frequency unit                     : cm-1
 output force constant unit                     : eV/A**2
 output         volume unit                     : A**3
 output   IR intensity unit                     : (D/A)**2/amu
 output         dipole unit                     : D
 output         efield unit                     : eV/A/e
 output        entropy unit                     : J/mol/K
 output    efield chi2 unit                     : pm/V
  
 wavefunctions paging                           : none
 random number generator seed                   : randomised (221958610)
 data distribution                              : optimal for this architecture
 optimization strategy                          : balance speed and memory

 *********************** Exchange-Correlation Parameters ***********************
  
 using functional                               : RSCAN
 relativistic treatment                         : Koelling-Harmon
 DFT+D: Semi-empirical dispersion correction    : off

 ************************* Pseudopotential Parameters **************************
  
 pseudopotential representation                 : reciprocal space
 <beta|phi> representation                      : reciprocal space
 spin-orbit coupling                            : off

 **************************** Basis Set Parameters *****************************
  
 plane wave basis set cut-off                   :   900.0000   eV
 size of standard grid                          :     1.7500
 size of   fine   gmax                          :    26.8966   1/A
 finite basis set correction                    : automatic
 number of sample energies                      :          3
           sample  spacing                      :     5.0000   eV

 **************************** Electronic Parameters ****************************
  
 number of  electrons                           :  72.00    
 net charge of system                           :  0.000    
 treating system as non-spin-polarized
 number of bands                                :         43

 ********************* Electronic Minimization Parameters **********************
  
 Method: Treating system as metallic with density mixing treatment of electrons,
         and number of  SD  steps               :          1
         and number of  CG  steps               :          4
  
 total energy / atom convergence tol.           : 0.1000E-07   eV
 eigen-energy convergence tolerance             : 0.2222E-08   eV
 max force / atom convergence tol.              : ignored
 convergence tolerance window                   :          3   cycles
 max. number of SCF cycles                      :         30
 number of fixed-spin iterations                :         10
 smearing scheme                                : Gaussian
 smearing width                                 : 0.2000       eV
 Fermi energy convergence tolerance             : 0.2721E-13   eV
 periodic dipole correction                     : NONE

 ************************** Density Mixing Parameters **************************
  
 density-mixing scheme                          : Broyden
 max. length of mixing history                  :         20
 charge density mixing amplitude                : 0.8000    
 cut-off energy for mixing                      :  900.0       eV

 *********************** Population Analysis Parameters ************************
  
 Population analysis with cutoff                :  3.000       A
 Population analysis output                     : summary and pdos components

 *******************************************************************************
  
 
                           -------------------------------
                                      Unit Cell
                           -------------------------------
        Real Lattice(A)                      Reciprocal Lattice(1/A)
     5.7613340     0.0000000     0.0000000        1.090578208   0.000000000   0.000000000
     0.0000000     5.7613340     0.0000000        0.000000000   1.090578208   0.000000000
     0.0000000     0.0000000     5.7613340        0.000000000   0.000000000   1.090578208
 
                       Lattice parameters(A)       Cell Angles
                    a =      5.761334          alpha =   90.000000
                    b =      5.761334          beta  =   90.000000
                    c =      5.761334          gamma =   90.000000
 
                       Current cell volume =           191.235784       A**3
                                   density =             3.049466   AMU/A**3
                                           =             5.063758     g/cm^3
 
                           -------------------------------
                                     Cell Contents
                           -------------------------------
                         Total number of ions in cell =    8
                      Total number of species in cell =    2
                        Max number of any one species =    4
 
            xxxxxxxxxxxxxxxxxxxxxxxxxxxxxxxxxxxxxxxxxxxxxxxxxxxxxxxxxxxx
            x  Element    Atom        Fractional coordinates of atoms  x
            x            Number           u          v          w      x
            x----------------------------------------------------------x
            x  P            1         0.250000   0.250000   0.750000   x 
            x  P            2         0.750000   0.250000   0.250000   x 
            x  P            3         0.250000   0.750000   0.250000   x 
            x  P            4         0.750000   0.750000   0.750000   x 
            x  In           1         0.000000   0.000000   0.000000   x 
            x  In           2         0.500000   0.000000   0.500000   x 
            x  In           3         0.000000   0.500000   0.500000   x 
            x  In           4         0.500000   0.500000   0.000000   x 
            xxxxxxxxxxxxxxxxxxxxxxxxxxxxxxxxxxxxxxxxxxxxxxxxxxxxxxxxxxxx
 
 
                         No user defined ionic velocities
 
                           -------------------------------
                                   Details of Species
                           -------------------------------
 
                               Mass of species in AMU
                                    P   30.9737600
                                    In  114.8180000
 
                          Electric Quadrupole Moment (Barn)
                                    P    1.0000000 No Isotope Defined
                                    In    0.7700000 Isotope115
 
                          Files used for pseudopotentials:
                                    P 3|1.8|4|4|5|30:31:32
                                    In 3|2.5|2.5|1.5|7|8|9|50:51:42U2.2U2.2
 
                           -------------------------------
                              k-Points For BZ Sampling
                           -------------------------------
                       MP grid size for SCF calculation is  7  7  7
                            with an offset of   0.071  0.071  0.071
                       Number of kpoints used =           172
 
                           -------------------------------
                               Symmetry and Constraints
                           -------------------------------
 
                      Cell is a supercell containing 4 primitive cells
                      Maximum deviation from symmetry =  0.00000         ANG
 
                      Number of symmetry operations   =           1
                      Number of ionic constraints     =           3
                      Point group of crystal =     1: C1, 1, 1
                      Space group of crystal =   216: F-43m, F -4 2 3
 
             Set iprint > 1 for details on symmetry rotations/translations
 
                         Centre of mass is constrained
             Set iprint > 1 for details of linear ionic constraints
 
                         Number of cell constraints= 0
                         Cell constraints are:  1 2 3 4 5 6
 
                         External pressure/stress (GPa)
                          0.00000   0.00000   0.00000
                                    0.00000   0.00000
                                              0.00000
  
+---------------- MEMORY AND SCRATCH DISK ESTIMATES PER PROCESS --------------+
|                                                     Memory          Disk    |
| Baseline code, static data and system overhead      391.0 MB         0.0 MB |
| BLAS internal memory storage                          0.0 MB         0.0 MB |
| Model and support data                              283.9 MB       665.9 MB |
| Electronic energy minimisation requirements         163.9 MB         0.0 MB |
| Force calculation requirements                       18.1 MB         0.0 MB |
| Stress calculation requirements                      20.0 MB         0.0 MB |
|                                               ----------------------------- |
| Approx. total storage required per process          838.9 MB       665.9 MB |
|                                                                             |
| Requirements will fluctuate during execution and may exceed these estimates |
+-----------------------------------------------------------------------------+
Calculating finite basis set correction with  3 cut-off energies.
Calculating total energy with cut-off of  890.000 eV.
------------------------------------------------------------------------ <-- SCF
SCF loop      Energy           Fermi           Energy gain       Timer   <-- SCF
                               energy          per atom          (sec)   <-- SCF
------------------------------------------------------------------------ <-- SCF
Initial  -6.19088703E+003  0.00000000E+000                        21.69  <-- SCF
      1  -7.61743776E+003  4.90450693E+000   1.78318842E+002      58.71  <-- SCF
      2  -7.82275468E+003  3.80674221E+000   2.56646146E+001      83.77  <-- SCF
      3  -7.82754310E+003  3.45855876E+000   5.98552487E-001     111.10  <-- SCF
      4  -7.86013737E+003  4.12214032E+000   4.07428316E+000     141.77  <-- SCF
      5  -7.86015794E+003  4.12132026E+000   2.57221598E-003     174.14  <-- SCF
      6  -7.86123217E+003  4.16528828E+000   1.34278709E-001     204.54  <-- SCF
      7  -7.85933568E+003  4.37886036E+000  -2.37061610E-001     234.85  <-- SCF
      8  -7.85969710E+003  4.45087593E+000   4.51770639E-002     265.01  <-- SCF
      9  -7.85969617E+003  4.46063761E+000  -1.15560868E-004     298.43  <-- SCF
     10  -7.85969713E+003  4.47214036E+000   1.19960591E-004     328.68  <-- SCF
     11  -7.85969716E+003  4.47649757E+000   3.02564536E-006     361.06  <-- SCF
     12  -7.85969716E+003  4.47579979E+000   4.83597341E-007     391.45  <-- SCF
     13  -7.85969716E+003  4.47577391E+000  -5.62682882E-009     417.68  <-- SCF
     14  -7.85969716E+003  4.47578288E+000   1.02294905E-008     440.00  <-- SCF
     15  -7.85969716E+003  4.47579309E+000   1.42594538E-009     461.99  <-- SCF
     16  -7.85969716E+003  4.47579345E+000   1.89868253E-010     483.81  <-- SCF
------------------------------------------------------------------------ <-- SCF
 
Final energy, E             =  -7859.697159530     eV
Final free energy (E-TS)    =  -7859.697159530     eV
(energies not corrected for finite basis set)
 
NB est. 0K energy (E-0.5TS)      =  -7859.697159530     eV
 
Calculating total energy with cut-off of  895.000 eV.
------------------------------------------------------------------------ <-- SCF
SCF loop      Energy           Fermi           Energy gain       Timer   <-- SCF
                               energy          per atom          (sec)   <-- SCF
------------------------------------------------------------------------ <-- SCF
Initial  -7.85969716E+003  0.00000000E+000                       493.28  <-- SCF
      1  -7.85969717E+003  4.47579294E+000   1.77651295E-006     522.22  <-- SCF
      2  -7.85969717E+003  4.47579294E+000   5.22041022E-011     543.79  <-- SCF
      3  -7.85969717E+003  4.47579357E+000   6.43463897E-010     565.05  <-- SCF
      4  -7.85969717E+003  4.47579334E+000   3.13224613E-011     586.07  <-- SCF
------------------------------------------------------------------------ <-- SCF
 
Final energy, E             =  -7859.697173732     eV
Final free energy (E-TS)    =  -7859.697173732     eV
(energies not corrected for finite basis set)
 
NB est. 0K energy (E-0.5TS)      =  -7859.697173732     eV
 
Calculating total energy with cut-off of  900.000 eV.
------------------------------------------------------------------------ <-- SCF
SCF loop      Energy           Fermi           Energy gain       Timer   <-- SCF
                               energy          per atom          (sec)   <-- SCF
------------------------------------------------------------------------ <-- SCF
Initial  -7.85969717E+003  0.00000000E+000                       595.42  <-- SCF
      1  -7.85969718E+003  4.47579338E+000   1.41020198E-006     624.21  <-- SCF
      2  -7.85969718E+003  4.47579338E+000   1.02474719E-011     645.31  <-- SCF
      3  -7.85969719E+003  4.47579423E+000   4.91105258E-010     666.42  <-- SCF
      4  -7.85969719E+003  4.47579412E+000   7.15389549E-012     687.49  <-- SCF
------------------------------------------------------------------------ <-- SCF
 
Final energy, E             =  -7859.697185003     eV
Final free energy (E-TS)    =  -7859.697185003     eV
(energies not corrected for finite basis set)
 
NB est. 0K energy (E-0.5TS)      =  -7859.697185003     eV
 
 For future reference: finite basis dEtot/dlog(Ecut) =      -0.002296eV
 Total energy corrected for finite basis set =   -7859.697185 eV
 
 ************************** Forces **************************
 *                                                          *
 *               Cartesian components (eV/A)                *
 * -------------------------------------------------------- *
 *                         x            y            z      *
 *                                                          *
 * P               1      0.00000      0.00000      0.00000 *
 * P               2      0.00000      0.00000      0.00000 *
 * P               3      0.00000      0.00000      0.00000 *
 * P               4      0.00000      0.00000      0.00000 *
 * In              1     -0.00000     -0.00000     -0.00000 *
 * In              2     -0.00000     -0.00000     -0.00000 *
 * In              3     -0.00000     -0.00000     -0.00000 *
 * In              4     -0.00000     -0.00000     -0.00000 *
 *                                                          *
 ************************************************************
 
 ***************** Stress Tensor *****************
 *                                               *
 *          Cartesian components (GPa)           *
 * --------------------------------------------- *
 *             x             y             z     *
 *                                               *
 *  x     -5.781621      0.000018      0.000018  *
 *  y      0.000018     -5.781621      0.000018  *
 *  z      0.000018      0.000018     -5.781621  *
 *                                               *
 *  Pressure:    5.7816                          *
 *                                               *
 *************************************************
 
 Pseudo atomic calculation performed for P 3s2 3p3
 
 Converged in 23 iterations to a total energy of -208.0292 eV
 
 Pseudo atomic calculation performed for In 4d10 5s2 5p1
 
 Converged in 42 iterations to a total energy of -1747.4504 eV
Charge spilling parameter for spin component 1 = 0.16%
 
            Orbital Populations       
     Ion    Atom   Orbital             Charge
  -------------------------------------------
      P     1      S                    1.714
      P     1      Px                   1.326
      P     1      Py                   1.326
      P     1      Pz                   1.326
      P     2      S                    1.714
      P     2      Px                   1.326
      P     2      Py                   1.326
      P     2      Pz                   1.326
      P     3      S                    1.714
      P     3      Px                   1.326
      P     3      Py                   1.326
      P     3      Pz                   1.326
      P     4      S                    1.714
      P     4      Px                   1.326
      P     4      Py                   1.326
      P     4      Pz                   1.326
     In     1      Dzz                  1.999
     In     1      Dzy                  1.996
     In     1      Dzx                  1.996
     In     1      Dxx-yy               1.999
     In     1      Dxy                  1.996
     In     1      S                    1.477
     In     1      Px                   0.495
     In     1      Py                   0.495
     In     1      Pz                   0.495
     In     1      S                   -0.642
     In     2      Dzz                  1.999
     In     2      Dzy                  1.996
     In     2      Dzx                  1.996
     In     2      Dxx-yy               1.999
     In     2      Dxy                  1.996
     In     2      S                    1.477
     In     2      Px                   0.495
     In     2      Py                   0.495
     In     2      Pz                   0.495
     In     2      S                   -0.642
     In     3      Dzz                  1.999
     In     3      Dzy                  1.996
     In     3      Dzx                  1.996
     In     3      Dxx-yy               1.999
     In     3      Dxy                  1.996
     In     3      S                    1.477
     In     3      Px                   0.495
     In     3      Py                   0.495
     In     3      Pz                   0.495
     In     3      S                   -0.642
     In     4      Dzz                  1.999
     In     4      Dzy                  1.996
     In     4      Dzx                  1.996
     In     4      Dxx-yy               1.999
     In     4      Dxy                  1.996
     In     4      S                    1.477
     In     4      Px                   0.495
     In     4      Py                   0.495
     In     4      Pz                   0.495
     In     4      S                   -0.642
  -------------------------------------------
                           Total:      72.000
  -------------------------------------------
 
     Atomic Populations (Mulliken)
     -----------------------------
Species          Ion     s      p      d      f     Total  Charge (e)
=====================================================================
  P               1     1.71   3.98   0.00   0.00   5.69    -0.69
  P               2     1.71   3.98   0.00   0.00   5.69    -0.69
  P               3     1.71   3.98   0.00   0.00   5.69    -0.69
  P               4     1.71   3.98   0.00   0.00   5.69    -0.69
  In              1     0.83   1.49   9.99   0.00  12.31     0.69
  In              2     0.83   1.49   9.99   0.00  12.31     0.69
  In              3     0.83   1.49   9.99   0.00  12.31     0.69
  In              4     0.83   1.49   9.99   0.00  12.31     0.69
=====================================================================
 
                 Bond                   Population      Length (A)
======================================================================
               P 3 -- In 1                   0.58        2.49473
               P 2 -- In 1                   0.58        2.49473
               P 1 -- In 1                   0.58        2.49473
               P 4 -- In 4                   0.58        2.49473
               P 4 -- In 3                   0.58        2.49473
               P 4 -- In 2                   0.58        2.49473
               P 3 -- In 4                   0.58        2.49473
               P 3 -- In 3                   0.58        2.49473
               P 2 -- In 4                   0.58        2.49473
               P 2 -- In 2                   0.58        2.49473
               P 1 -- In 3                   0.58        2.49473
               P 1 -- In 2                   0.58        2.49473
               P 4 -- In 1                   0.58        2.49473
               P 3 -- In 2                   0.58        2.49473
               P 2 -- In 3                   0.58        2.49473
               P 1 -- In 4                   0.58        2.49473
======================================================================
 
 
 A BibTeX formatted list of references used in this run has been written to 
 ZB_EOS_0.9763.bib
 
Initialisation time =     16.64 s
Calculation time    =    778.59 s
Finalisation time   =      0.24 s
Total time          =    795.47 s
Peak Memory Use     = 1871876 kB
  
Overall parallel efficiency rating: Excellent (97%)                             
  
Data was distributed by:-
k-point (32-way); efficiency rating: Excellent (97%)                            
