31
Lattice="8.329244 -8.7e-05 0.0 4.164548 7.213379 0.0 0.0 -1e-06 13.67842" Properties=species:S:1:pos:R:3:forces:R:3 config_type=Vacancy energy=-29684.48814394 pbc="T T T"
P        2.08228201       1.20221052      -0.00009575       0.00006000       0.00004000       0.01819000
P        4.16460983       2.40444244       3.41950925      -0.01513000      -0.00874000       0.00096000
P        2.08227368       1.20221002       6.83911425       0.00006000       0.00004000       0.11354000
P        4.16462232       2.40444915      10.25871925      -0.00840000      -0.00485000      -0.05142000
P        4.16454768       4.80890002      -0.00009575       0.00597000      -0.00339000      -0.05528000
P        6.24688799       6.01113915       3.41950925      -0.00002000       0.01747000       0.00090000
P        4.16455601       4.80889952       6.83911425      -0.02547000       0.01477000       0.10580000
P        6.24689632       6.01113865      10.25871925      -0.00006000       0.00960000      -0.05142000
P        6.24689568       1.20216702      -0.00009575       0.00005000       0.00687000      -0.05528000
P        8.32924432       2.40440615       3.41950925       0.01511000      -0.00876000       0.00090000
P        6.24690401       1.20216652       6.83911425       0.00006000      -0.02944000       0.10580000
P        8.32924432       2.40440565      10.25871925       0.00828000      -0.00486000      -0.05142000
P        8.32917801       4.80885652      -0.00009575      -0.00585000      -0.00338000      -0.05529000
P       10.41151832       6.01109565       3.41950925      -0.00007000      -0.00004000      -0.01229000
P        8.32916968       4.80885602       6.83911425       0.02559000       0.01477000       0.10582000
P       10.41151832       6.01109515      10.25871925      -0.00006000      -0.00003000       0.01262000
In       4.16460983       2.40444225       5.98049247       0.03231000       0.01865000      -0.27876000
In       2.08229450       1.20221705       9.40009747       0.00007000       0.00004000      -0.02814000
In       4.16460150       2.40444175      12.81970247      -0.11145000      -0.06435000       0.20621000
In       4.16456017       4.80890705       2.56088747       0.07124000      -0.04101000       0.06659000
In       6.24687550       6.01113175       5.98049247      -0.00007000      -0.03744000      -0.27880000
In       4.16456850       4.80890655       9.40009747      -0.03672000       0.02127000      -0.02747000
In       6.24688383       6.01113125      12.81970247      -0.00007000       0.12857000       0.20622000
In       6.24691650       1.20217405       2.56088747       0.00010000       0.08220000       0.06659000
In       8.32922350       2.40439875       5.98049247      -0.03246000       0.01866000      -0.27880000
In       6.24691650       1.20217355       9.40009747       0.00006000      -0.04244000      -0.02747000
In       8.32923183       2.40439825      12.81970247       0.11131000      -0.06435000       0.20621000
In       8.32919050       4.80886355       2.56088747      -0.07116000      -0.04108000       0.06667000
In      10.41150583       6.01108825       5.98049247      -0.00008000      -0.00005000      -0.04848000
In       8.32919050       4.80886305       9.40009747       0.03686000       0.02128000      -0.02749000
In      10.41149750       6.01108775      12.81970247      -0.00007000      -0.00004000       0.04480000
31
Lattice="8.329244 -8.7e-05 0.0 4.164548 7.213379 0.0 0.0 -1e-06 13.67842" Properties=species:S:1:pos:R:3:forces:R:3 config_type=Vacancy energy=-29684.48886209 pbc="T T T"
P        2.08228201       1.20221052      -0.00006839       0.00006000       0.00004000       0.01972000
P        4.16459733       2.40443523       3.41952293      -0.01537000      -0.00888000      -0.00063000
P        2.08227368       1.20221002       6.83927839       0.00006000       0.00003000       0.11031000
P        4.16460983       2.40444194      10.25865086      -0.00833000      -0.00481000      -0.04943000
P        4.16456017       4.80889281      -0.00016414       0.00593000      -0.00336000      -0.05366000
P        6.24689216       6.01116079       3.41952293      -0.00002000       0.01775000      -0.00069000
P        4.16451436       4.80891395       6.83926471      -0.02476000       0.01437000       0.10338000
P        6.24689216       6.01114587      10.25865086      -0.00006000       0.00951000      -0.04943000
P        6.24689984       1.20217424      -0.00016414       0.00005000       0.00681000      -0.05366000
P        8.32926098       2.40439173       3.41952293       0.01536000      -0.00890000      -0.00070000
P        6.24689568       1.20212324       6.83926471       0.00006000      -0.02862000       0.10338000
P        8.32924849       2.40439844      10.25865086       0.00821000      -0.00481000      -0.04943000
P        8.32916551       4.80884931      -0.00016414      -0.00581000      -0.00335000      -0.05367000
P       10.41151832       6.01109565       3.41949557      -0.00007000      -0.00004000      -0.01264000
P        8.32920300       4.80887045       6.83926471       0.02488000       0.01437000       0.10340000
P       10.41151832       6.01109515      10.25874661      -0.00006000      -0.00003000       0.01308000
In       4.16464731       2.40446389       5.98012315       0.03163000       0.01826000      -0.27394000
In       2.08229450       1.20221705       9.40007011       0.00007000       0.00004000      -0.02737000
In       4.16444741       2.40434798      12.81998972      -0.10983000      -0.06341000       0.20226000
In       4.16466012       4.80884934       2.56098322       0.07000000      -0.04030000       0.06526000
In       6.24687966       6.01108126       5.98012315      -0.00006000      -0.03666000      -0.27398000
In       4.16451020       4.80893540       9.40007011      -0.03598000       0.02084000      -0.02642000
In       6.24687550       6.01130437      12.81998972      -0.00007000       0.12670000       0.20227000
In       6.24691234       1.20228225       2.56098322       0.00010000       0.08077000       0.06526000
In       8.32917769       2.40442039       5.98012315      -0.03178000       0.01827000      -0.27398000
In       6.24691234       1.20210863       9.40007011       0.00006000      -0.04158000      -0.02642000
In       8.32937759       2.40430448      12.81998972       0.10969000      -0.06341000       0.20227000
In       8.32909055       4.80880584       2.56098322      -0.06993000      -0.04037000       0.06534000
In      10.41150583       6.01108825       5.98043776      -0.00008000      -0.00005000      -0.04754000
In       8.32924048       4.80889190       9.40007011       0.03611000       0.02085000      -0.02643000
In      10.41149750       6.01108775      12.81977086      -0.00007000      -0.00004000       0.04412000
31
Lattice="8.329244 -8.7e-05 0.0 4.164548 7.213379 0.0 0.0 -1e-06 13.67842" Properties=species:S:1:pos:R:3:forces:R:3 config_type=Vacancy energy=-29684.51025877 pbc="T T T"
P        2.08228201       1.20221052       0.00123106      -0.00001000      -0.00000000       0.10606000
P        4.16351037       2.40380767       3.41959132      -0.03513000      -0.02028000      -0.08781000
P        2.08228201       1.20221002       6.84737602      -0.00002000      -0.00001000      -0.06701000
P        4.16401013       2.40409570      10.25498504      -0.00508000      -0.00293000       0.05332000
P        4.16498497       4.80864755      -0.00411720       0.00380000      -0.00221000       0.03459000
P        6.24688798       6.01240871       3.41957764       0.00001000       0.04063000      -0.08781000
P        4.16270274       4.80997434       6.84681520       0.01183000      -0.00684000      -0.02972000
P        6.24688798       6.01183114      10.25498504       0.00001000       0.00589000       0.05332000
P        6.24689984       1.20266475      -0.00411720      -0.00001000       0.00440000       0.03459000
P        8.33033962       2.40376415       3.41957764       0.03519000      -0.02030000      -0.08781000
P        6.24690819       1.20002414       6.84681520      -0.00001000       0.01366000      -0.02972000
P        8.32983987       2.40405219      10.25498504       0.00511000      -0.00294000       0.05332000
P        8.32874073       4.80860406      -0.00411720      -0.00383000      -0.00221000       0.03461000
P       10.41150583       6.01108844       3.41862015      -0.00000000      -0.00000000      -0.03042000
P        8.33103125       4.80993080       6.84681520      -0.01185000      -0.00684000      -0.02972000
P       10.41150583       6.01108794      10.25964938       0.00001000       0.00001000       0.03746000
In       4.16695866       2.40579835       5.96022105       0.00617000       0.00356000      -0.06694000
In       2.08229450       1.20221705       9.39805939      -0.00000000      -0.00000000       0.01227000
In       4.15649303       2.39976032      12.83470770      -0.04095000      -0.02364000       0.03742000
In       4.16974932       4.80592064       2.56574331       0.02061000      -0.01186000       0.00730000
In       6.24687553       6.00840508       5.96020737      -0.00000000      -0.00714000      -0.06698000
In       4.16188647       4.81045025       9.39810042      -0.00650000       0.00376000       0.02862000
In       6.24686707       6.02047985      12.83470770       0.00000000       0.04728000       0.03742000
In       6.24692061       1.20815398       2.56574331       0.00003000       0.02377000       0.00730000
In       8.32686631       2.40575490       5.96020737      -0.00619000       0.00357000      -0.06698000
In       6.24691237       1.19907899       9.39810042       0.00000000      -0.00751000       0.02862000
In       8.33731957       2.39970944      12.83470770       0.04095000      -0.02364000       0.03742000
In       8.32400558       4.80587003       2.56574331      -0.02062000      -0.01190000       0.00731000
In      10.41149333       6.01108104       5.97697712      -0.00000000      -0.00000000      -0.00347000
In       8.33186417       4.81040670       9.39810042       0.00650000       0.00375000       0.02863000
In      10.41149333       6.01108054      12.82297161      -0.00001000      -0.00000000       0.01479000
31
Lattice="8.329244 -8.7e-05 0.0 4.164548 7.213379 0.0 0.0 -1e-06 13.67842" Properties=species:S:1:pos:R:3:forces:R:3 config_type=Vacancy energy=-29684.51090226 pbc="T T T"
P        2.08228201       1.20221052       0.00162773      -0.00002000      -0.00001000       0.12134000
P        4.16327299       2.40367062       3.41945454      -0.03873000      -0.02236000      -0.10323000
P        2.08228201       1.20221002       6.84868915      -0.00003000      -0.00002000      -0.09746000
P        4.16389768       2.40403078      10.25442423      -0.00448000      -0.00259000       0.06994000
P        4.16506826       4.80860427      -0.00474641       0.00350000      -0.00205000       0.04908000
P        6.24688381       6.01269004       3.41945454       0.00002000       0.04480000      -0.10321000
P        4.16240289       4.81014747       6.84810097       0.01811000      -0.01048000      -0.05278000
P        6.24688798       6.01196098      10.25442423       0.00002000       0.00521000       0.06994000
P        6.24690400       1.20275853      -0.00474641      -0.00002000       0.00406000       0.04908000
P        8.33058117       2.40361988       3.41945454       0.03880000      -0.02238000      -0.10322000
P        6.24690820       1.19967789       6.84810097      -0.00002000       0.02093000      -0.05278000
P        8.32995231       2.40398727      10.25442423       0.00453000      -0.00259000       0.06994000
P        8.32866576       4.80856078      -0.00474641      -0.00356000      -0.00206000       0.04911000
P       10.41150583       6.01108844       3.41841498       0.00001000       0.00000000      -0.03303000
P        8.33133943       4.81010392       6.84810097      -0.01816000      -0.01049000      -0.05278000
P       10.41150583       6.01108794      10.25986824       0.00002000       0.00001000       0.04133000
In       4.16737096       2.40603639       5.95662363       0.00184000       0.00106000      -0.02979000
In       2.08229450       1.20221705       9.39773110      -0.00001000      -0.00001000       0.01892000
In       4.15503958       2.39891637      12.83734763      -0.02806000      -0.01620000       0.00968000
In       4.17066554       4.80538684       2.56657769       0.01166000      -0.00671000      -0.00272000
In       6.24687137       6.00792178       5.95662363       0.00001000      -0.00212000      -0.02983000
In       4.16142003       4.81072437       9.39781317      -0.00115000       0.00065000       0.03802000
In       6.24687538       6.02216779      12.83734763       0.00002000       0.03242000       0.00968000
In       6.24691643       1.20921435       2.56657769       0.00002000       0.01345000      -0.00272000
In       8.32644568       2.40599295       5.95662363      -0.00183000       0.00107000      -0.02983000
In       6.24691654       1.19853799       9.39781317      -0.00001000      -0.00132000       0.03802000
In       8.33878553       2.39887267      12.83734763       0.02809000      -0.01620000       0.00968000
In       8.32308104       4.80533625       2.56659137      -0.01169000      -0.00675000      -0.00271000
In      10.41149333       6.01108104       5.97636159       0.00001000       0.00001000       0.00386000
In       8.33233894       4.81068080       9.39779950       0.00113000       0.00065000       0.03803000
In      10.41149333       6.01108054      12.82354611       0.00000000       0.00000000       0.01041000
31
Lattice="8.329244 -8.7e-05 0.0 4.164548 7.213379 0.0 0.0 -1e-06 13.67842" Properties=species:S:1:pos:R:3:forces:R:3 config_type=Vacancy energy=-29684.51108371 pbc="T T T"
P        2.08228201       1.20221052       0.00188762      -0.00002000      -0.00001000       0.12319000
P        4.16316055       2.40360570       3.41927672      -0.03943000      -0.02277000      -0.10482000
P        2.08228201       1.20221002       6.84878489      -0.00003000      -0.00002000      -0.10113000
P        4.16386020       2.40400914      10.25443791      -0.00440000      -0.00254000       0.07210000
P        4.16508492       4.80858984      -0.00478745       0.00346000      -0.00203000       0.05069000
P        6.24688797       6.01281267       3.41926304       0.00002000       0.04561000      -0.10481000
P        4.16236957       4.81016190       6.84823776       0.01898000      -0.01099000      -0.05572000
P        6.24688382       6.01199705      10.25443791       0.00002000       0.00513000       0.07210000
P        6.24689984       1.20278017      -0.00478745      -0.00002000       0.00401000       0.05069000
P        8.33068945       2.40356217       3.41926304       0.03951000      -0.02279000      -0.10481000
P        6.24690403       1.19964183       6.84823776      -0.00002000       0.02193000      -0.05572000
P        8.32998146       2.40396563      10.25443791       0.00445000      -0.00254000       0.07210000
P        8.32864494       4.80855357      -0.00478745      -0.00352000      -0.00203000       0.05072000
P       10.41150583       6.01108844       3.41833291       0.00001000       0.00001000      -0.03298000
P        8.33136442       4.81011835       6.84823776      -0.01904000      -0.01099000      -0.05573000
P       10.41150583       6.01108794      10.25996399       0.00002000       0.00001000       0.04159000
In       4.16744592       2.40607967       5.95592603       0.00085000       0.00049000      -0.02345000
In       2.08229450       1.20221705       9.39769007      -0.00001000      -0.00001000       0.01907000
In       4.15472724       2.39873604      12.83784006      -0.02527000      -0.01459000       0.00521000
In       4.17085712       4.80528585       2.56672816       0.00960000      -0.00552000      -0.00446000
In       6.24687137       6.00783522       5.95592603       0.00001000      -0.00098000      -0.02349000
In       4.16133257       4.81077486       9.39781317       0.00008000      -0.00006000       0.03890000
In       6.24687122       6.02252124      12.83784006       0.00002000       0.02920000       0.00522000
In       6.24692476       1.20943075       2.56672816       0.00002000       0.01107000      -0.00446000
In       8.32637071       2.40603623       5.95592603      -0.00084000       0.00050000      -0.02349000
In       6.24691654       1.19843700       9.39781317      -0.00001000       0.00010000       0.03890000
In       8.33908955       2.39869233      12.83784006       0.02530000      -0.01459000       0.00522000
In       8.32290612       4.80523526       2.56674183      -0.00963000      -0.00556000      -0.00446000
In      10.41149333       6.01108104       5.97625216       0.00001000       0.00001000       0.00470000
In       8.33242639       4.81073129       9.39781317      -0.00011000      -0.00006000       0.03891000
In      10.41149333       6.01108054      12.82366921       0.00001000       0.00000000       0.01021000
31
Lattice="8.329244 -8.7e-05 0.0 4.164548 7.213379 0.0 0.0 -1e-06 13.67842" Properties=species:S:1:pos:R:3:forces:R:3 config_type=Vacancy energy=-29684.5116709 pbc="T T T"
P        2.08228201       1.20221052       0.00352903      -0.00003000      -0.00002000       0.14032000
P        4.16251087       2.40323061       3.41811405      -0.04357000      -0.02515000      -0.11559000
P        2.08228201       1.20221002       6.84931835      -0.00005000      -0.00003000      -0.12532000
P        4.16369778       2.40391537      10.25447894      -0.00368000      -0.00213000       0.08528000
P        4.16520986       4.80851771      -0.00503366       0.00311000      -0.00183000       0.06117000
P        6.24688380       6.01357008       3.41811405       0.00002000       0.05039000      -0.11557000
P        4.16220715       4.81025567       6.84918157       0.02483000      -0.01437000      -0.07527000
P        6.24688798       6.01219181      10.25447894       0.00003000       0.00432000       0.08528000
P        6.24689984       1.20292443      -0.00503366      -0.00003000       0.00361000       0.06117000
P        8.33134330       2.40317985       3.41811405       0.04365000      -0.02517000      -0.11557000
P        6.24690404       1.19945428       6.84918157      -0.00003000       0.02869000      -0.07527000
P        8.33015221       2.40387185      10.25447894       0.00376000      -0.00213000       0.08528000
P        8.32851584       4.80847422      -0.00503366      -0.00319000      -0.00184000       0.06120000
P       10.41150583       6.01108844       3.41777209       0.00002000       0.00001000      -0.03260000
P        8.33152684       4.81021212       6.84918157      -0.02490000      -0.01438000      -0.07528000
P       10.41150583       6.01108794      10.26062055       0.00003000       0.00002000       0.04256000
In       4.16793318       2.40636099       5.95154893      -0.00430000      -0.00248000       0.01332000
In       2.08229450       1.20221705       9.39749857      -0.00002000      -0.00002000       0.02086000
In       4.15279070       2.39761798      12.84093138      -0.00947000      -0.00547000      -0.02095000
In       4.17201905       4.80461499       2.56765829      -0.00144000       0.00084000      -0.01493000
In       6.24687137       6.00727257       5.95154893       0.00002000       0.00499000       0.01328000
In       4.16079117       4.81109226       9.39784053       0.00695000      -0.00403000       0.04520000
In       6.24686703       6.02475019      12.84093138       0.00003000       0.01098000      -0.02095000
In       6.24692474       1.21077245       2.56765829       0.00000000      -0.00167000      -0.01493000
In       8.32587512       2.40631756       5.95154893       0.00433000      -0.00248000       0.01328000
In       6.24692071       1.19780943       9.39784053      -0.00002000       0.00804000       0.04520000
In       8.34101778       2.39757423      12.84093138       0.00952000      -0.00546000      -0.02095000
In       8.32173171       4.80455721       2.56767197       0.00140000       0.00081000      -0.01494000
In      10.41149333       6.01108104       5.97559560       0.00002000       0.00002000       0.00988000
In       8.33297612       4.81104868       9.39784053      -0.00700000      -0.00404000       0.04522000
In      10.41149333       6.01108054      12.82443520       0.00002000       0.00001000       0.00961000
31
Lattice="8.329244 -8.7e-05 0.0 4.164548 7.213379 0.0 0.0 -1e-06 13.67842" Properties=species:S:1:pos:R:3:forces:R:3 config_type=Vacancy energy=-29684.51290851 pbc="T T T"
P        2.08228201       1.20221052       0.00518412      -0.00003000      -0.00002000       0.14297000
P        4.16194865       2.40290601       3.41677357      -0.04419000      -0.02552000      -0.11032000
P        2.08228201       1.20221002       6.84841558      -0.00005000      -0.00003000      -0.11914000
P        4.16361032       2.40386488      10.25523125      -0.00351000      -0.00203000       0.08244000
P        4.16527233       4.80848164      -0.00456859       0.00302000      -0.00178000       0.05701000
P        6.24688796       6.01421207       3.41677357       0.00002000       0.05112000      -0.11030000
P        4.16236124       4.81016190       6.84882593       0.02469000      -0.01429000      -0.07212000
P        6.24688798       6.01229280      10.25523125       0.00003000       0.00411000       0.08244000
P        6.24689984       1.20299657      -0.00456859      -0.00003000       0.00351000       0.05701000
P        8.33190137       2.40286245       3.41677357       0.04428000      -0.02554000      -0.11030000
P        6.24689987       1.19963461       6.84882593      -0.00003000       0.02852000      -0.07212000
P        8.33023967       2.40382135      10.25523125       0.00358000      -0.00203000       0.08244000
P        8.32845337       4.80843815      -0.00456859      -0.00310000      -0.00179000       0.05704000
P       10.41150583       6.01108844       3.41730703       0.00002000       0.00001000      -0.02905000
P        8.33136442       4.81011835       6.84882593      -0.02476000      -0.01430000      -0.07212000
P       10.41150583       6.01108794      10.26119505       0.00003000       0.00002000       0.03923000
In       4.16805811       2.40643312       5.95029052      -0.00605000      -0.00349000       0.01587000
In       2.08229450       1.20221705       9.39764903      -0.00002000      -0.00002000       0.01486000
In       4.15207855       2.39720682      12.84171105      -0.00492000      -0.00284000      -0.02163000
In       4.17239387       4.80439858       2.56783611      -0.00520000       0.00300000      -0.01641000
In       6.24687137       6.00712830       5.95027684       0.00002000       0.00701000       0.01583000
In       4.16066623       4.81116439       9.39825088       0.00955000      -0.00553000       0.04168000
In       6.24686702       6.02557252      12.84171105       0.00003000       0.00572000      -0.02163000
In       6.24692474       1.21120526       2.56783611      -0.00000000      -0.00601000      -0.01641000
In       8.32575851       2.40638969       5.95027684       0.00608000      -0.00349000       0.01583000
In       6.24692071       1.19766516       9.39825088      -0.00002000       0.01104000       0.04168000
In       8.34172993       2.39716306      12.84171105       0.00497000      -0.00284000      -0.02163000
In       8.32136106       4.80434803       2.56784979       0.00515000       0.00297000      -0.01642000
In      10.41149333       6.01108104       5.97548617       0.00002000       0.00001000       0.00765000
In       8.33310106       4.81112081       9.39825088      -0.00959000      -0.00554000       0.04169000
In      10.41149333       6.01108054      12.82472245       0.00002000       0.00001000       0.01392000
31
Lattice="8.329244 -8.7e-05 0.0 4.164548 7.213379 0.0 0.0 -1e-06 13.67842" Properties=species:S:1:pos:R:3:forces:R:3 config_type=Vacancy energy=-29684.52244648 pbc="T T T"
P        2.08228201       1.20221052       0.03125519      -0.00003000      -0.00002000       0.16446000
P        4.15315302       2.39782785       3.39557202      -0.06333000      -0.03656000      -0.03488000
P        2.08228201       1.20221002       6.83403956      -0.00005000      -0.00003000      -0.02611000
P        4.16226099       2.40308584      10.26707677      -0.00078000      -0.00045000       0.03821000
P        4.16629683       4.80789013       0.00273568       0.00104000      -0.00062000      -0.00605000
P        6.24688786       6.02438300       3.39555834       0.00003000       0.07330000      -0.03492000
P        4.16483504       4.80873361       6.84325881       0.02235000      -0.01294000      -0.02269000
P        6.24688380       6.01384369      10.26707677       0.00003000       0.00095000       0.03822000
P        6.24689982       1.20417957       0.00273568      -0.00002000       0.00121000      -0.00605000
P        8.34070959       2.39777690       3.39555834       0.06348000      -0.03662000      -0.03492000
P        6.24689984       1.20249113       6.84325881      -0.00003000       0.02583000      -0.02269000
P        8.33158069       2.40304229      10.26707677       0.00084000      -0.00045000       0.03822000
P        8.32742888       4.80784666       0.00274936      -0.00110000      -0.00063000      -0.00604000
P       10.41150583       6.01108844       3.40993436       0.00002000       0.00001000       0.02864000
P        8.32889065       4.80869012       6.84325881      -0.02242000      -0.01294000      -0.02270000
P       10.41150583       6.01108794      10.27030487       0.00002000       0.00001000      -0.01157000
In       4.17001964       2.40756561       5.93023796      -0.03222000      -0.01860000       0.05512000
In       2.08229450       1.20221705       9.40002908      -0.00002000      -0.00001000      -0.07324000
In       4.14080915       2.39070043      12.85402163       0.07037000       0.04063000      -0.03085000
In       4.17828685       4.80100100       2.57057179      -0.06284000       0.03623000      -0.03663000
In       6.24687556       6.00485608       5.93022428       0.00002000       0.03723000       0.05516000
In       4.15864221       4.81233299       9.40467974       0.04911000      -0.02838000      -0.00927000
In       6.24687105       6.03859275      12.85402163       0.00001000      -0.08121000      -0.03085000
In       6.24692883       1.21800751       2.57057179      -0.00005000      -0.07254000      -0.03663000
In       8.32378447       2.40752944       5.93022428       0.03226000      -0.01860000       0.05516000
In       6.24692074       1.19532801       9.40467974      -0.00002000       0.05672000      -0.00927000
In       8.35300780       2.39065643      12.85402163      -0.07032000       0.04062000      -0.03085000
In       8.31545982       4.80093614       2.57058547       0.06280000       0.03625000      -0.03666000
In      10.41149333       6.01108104       5.97381740       0.00002000       0.00001000      -0.02462000
In       8.33512505       4.81228936       9.40467974      -0.04916000      -0.02838000      -0.00928000
In      10.41149333       6.01108054      12.82920897       0.00001000       0.00000000       0.08356000
31
Lattice="8.329244 -8.7e-05 0.0 4.164548 7.213379 0.0 0.0 -1e-06 13.67842" Properties=species:S:1:pos:R:3:forces:R:3 config_type=Vacancy energy=-29684.52412991 pbc="T T T"
P        2.08228201       1.20221052       0.03340270      -0.00001000      -0.00001000       0.14059000
P        4.15259080       2.39750325       3.39365704      -0.05924000      -0.03420000      -0.00402000
P        2.08228201       1.20221003       6.83056524      -0.00003000      -0.00002000       0.02803000
P        4.16231097       2.40311469      10.26914221      -0.00150000      -0.00087000       0.00791000
P        4.16627184       4.80790455       0.00443181       0.00106000      -0.00061000      -0.03422000
P        6.24688785       6.02503221       3.39364336       0.00002000       0.06855000      -0.00409000
P        4.16557218       4.80830801       6.84070095       0.01207000      -0.00698000       0.01701000
P        6.24689213       6.01380040      10.26914221       0.00001000       0.00175000       0.00792000
P        6.24689982       1.20415072       0.00443181      -0.00000000       0.00122000      -0.03422000
P        8.34127182       2.39745229       3.39364336       0.05937000      -0.03426000      -0.00408000
P        6.24689983       1.20334231       6.84070095      -0.00001000       0.01394000       0.01701000
P        8.33154737       2.40307114      10.26914221       0.00152000      -0.00086000       0.00792000
P        8.32745386       4.80786109       0.00443181      -0.00108000      -0.00062000      -0.03422000
P       10.41150583       6.01108844       3.40957872       0.00000000       0.00000000       0.03784000
P        8.32815352       4.80826453       6.84070095      -0.01210000      -0.00698000       0.01701000
P       10.41150583       6.01108794      10.27083833       0.00000000       0.00000000      -0.02212000
In       4.16951989       2.40727708       5.93394481      -0.02825000      -0.01631000       0.00047000
In       2.08229450       1.20221705       9.40068564      -0.00000000      -0.00000000      -0.08991000
In       4.14207103       2.39142897      12.85106709       0.05500000       0.03176000       0.01176000
In       4.17733731       4.80154923       2.56947752      -0.05366000       0.03094000      -0.02205000
In       6.24687139       6.00542594       5.93393113       0.00000000       0.03262000       0.00052000
In       4.15924192       4.81198674       9.40574666       0.04413000      -0.02548000      -0.02758000