32
Lattice="8.329244 -8.7e-05 0.0 4.164548 7.213379 0.0 0.0 -1e-06 13.67842" Properties=species:S:1:pos:R:3:forces:R:3 config_type=Antisite energy=-29900.21630155 pbc="T T T"
P        2.08228201       1.20221052      -0.00009575       0.00008000       0.00005000       0.57369000
P        4.16460983       2.40444244       3.41950925      -0.45749000      -0.26413000      -0.23579000
P        2.08228617       1.20221755       2.56088747       0.00006000       0.00003000       0.09079000
P        2.08227368       1.20221002       6.83911425       0.00006000       0.00004000       0.01120000
P        4.16462232       2.40444915      10.25871925      -0.01204000      -0.00695000      -0.00967000
P        4.16454768       4.80890002      -0.00009575       0.00939000      -0.00534000       0.00358000
P        6.24688799       6.01113915       3.41950925      -0.00000000       0.52810000      -0.23580000
P        4.16455601       4.80889952       6.83911425      -0.00343000       0.00206000      -0.00835000
P        6.24689632       6.01113865      10.25871925      -0.00007000       0.01379000      -0.00967000
P        6.24689568       1.20216702      -0.00009575       0.00007000       0.01080000       0.00358000
P        8.32924432       2.40440615       3.41950925       0.45734000      -0.26406000      -0.23580000
P        6.24690401       1.20216652       6.83911425       0.00007000      -0.00400000      -0.00835000
P        8.32924432       2.40440565      10.25871925       0.01191000      -0.00696000      -0.00967000
P        8.32917801       4.80885652      -0.00009575      -0.00925000      -0.00534000       0.00358000
P       10.41151832       6.01109565       3.41950925      -0.00007000      -0.00004000       0.01259000
P        8.32916968       4.80885602       6.83911425       0.00356000       0.00206000      -0.00834000
P       10.41151832       6.01109515      10.25871925      -0.00007000      -0.00004000       0.00958000
In       4.16460983       2.40444225       5.98049247       0.00532000       0.00307000       0.00057000
In       2.08229450       1.20221705       9.40009747       0.00008000       0.00005000      -0.00467000
In       4.16460150       2.40444175      12.81970247       0.03282000       0.01895000       0.04965000
In       4.16456017       4.80890705       2.56088747      -0.03703000       0.02148000      -0.03716000
In       6.24687550       6.01113175       5.98049247      -0.00007000      -0.00629000       0.00055000
In       4.16456850       4.80890655       9.40009747      -0.01058000       0.00619000       0.00384000
In       6.24688383       6.01113125      12.81970247      -0.00007000      -0.03804000       0.04966000
In       6.24691650       1.20217405       2.56088747       0.00009000      -0.04281000      -0.03716000
In       8.32922350       2.40439875       5.98049247      -0.00548000       0.00308000       0.00055000
In       6.24691650       1.20217355       9.40009747       0.00008000      -0.01226000       0.00384000
In       8.32923183       2.40439825      12.81970247      -0.03298000       0.01896000       0.04966000
In       8.32919050       4.80886355       2.56088747       0.03713000       0.02145000      -0.03711000
In      10.41150583       6.01108825       5.98049247      -0.00008000      -0.00005000       0.00255000
In       8.32919050       4.80886305       9.40009747       0.01074000       0.00620000       0.00384000
In      10.41149750       6.01108775      12.81970247      -0.00008000      -0.00005000       0.00423000
32
Lattice="8.329244 -8.7e-05 0.0 4.164548 7.213379 0.0 0.0 -1e-06 13.67842" Properties=species:S:1:pos:R:3:forces:R:3 config_type=Antisite energy=-29900.21819476 pbc="T T T"
P        2.08228201       1.20221052       0.00071128       0.00008000       0.00005000       0.56953000
P        4.16398514       2.40408177       3.41919465      -0.45329000      -0.26171000      -0.23381000
P        2.08228617       1.20221755       2.56102426       0.00006000       0.00003000       0.09002000
P        2.08227368       1.20221002       6.83914161       0.00006000       0.00004000       0.01145000
P        4.16459733       2.40443473      10.25871925      -0.01199000      -0.00692000      -0.00908000
P        4.16456850       4.80889281      -0.00008207       0.00901000      -0.00513000       0.00329000
P        6.24689215       6.01186771       3.41919465      -0.00000000       0.52326000      -0.23383000
P        4.16454768       4.80889952       6.83911425      -0.00331000       0.00199000      -0.00854000
P        6.24688799       6.01115308      10.25871925      -0.00007000       0.01374000      -0.00908000
P        6.24689568       1.20218145      -0.00008207       0.00006000       0.01037000       0.00329000
P        8.32987318       2.40403826       3.41919465       0.45315000      -0.26164000      -0.23383000
P        6.24689984       1.20215931       6.83911425       0.00007000      -0.00386000      -0.00854000
P        8.32925265       2.40439123      10.25871925       0.01186000      -0.00693000      -0.00908000
P        8.32915302       4.80884210      -0.00008207      -0.00888000      -0.00512000       0.00329000
P       10.41151832       6.01109565       3.41953661      -0.00007000      -0.00004000       0.01274000
P        8.32917801       4.80885602       6.83911425       0.00344000       0.00199000      -0.00853000
P       10.41151832       6.01109515      10.25873293      -0.00007000      -0.00004000       0.00939000
In       4.16460983       2.40444225       5.98050615       0.00483000       0.00278000      -0.00135000
In       2.08229450       1.20221705       9.40009747       0.00008000       0.00005000      -0.00475000
In       4.16464731       2.40446339      12.81978454       0.03116000       0.01799000       0.04981000
In       4.16451020       4.80893590       2.56084644      -0.03555000       0.02063000      -0.03581000
In       6.24687550       6.01111732       5.98050615      -0.00007000      -0.00572000      -0.00138000
In       4.16454768       4.80891376       9.40011115      -0.01031000       0.00603000       0.00385000
In       6.24687550       6.01107354      12.81978454      -0.00007000      -0.03612000       0.04982000
In       6.24691234       1.20210913       2.56084644       0.00009000      -0.04110000      -0.03581000
In       8.32921517       2.40439875       5.98050615      -0.00498000       0.00280000      -0.00138000
In       6.24691234       1.20215191       9.40011115       0.00007000      -0.01194000       0.00385000
In       8.32917769       2.40441989      12.81978454      -0.03131000       0.01799000       0.04982000
In       8.32924048       4.80889240       2.56084644       0.03565000       0.02059000      -0.03576000
In      10.41150583       6.01108825       5.98050615      -0.00008000      -0.00005000       0.00200000
In       8.32920300       4.80887026       9.40011115       0.01046000       0.00604000       0.00385000
In      10.41149750       6.01108775      12.81971615      -0.00008000      -0.00005000       0.00458000
32
Lattice="8.329244 -8.7e-05 0.0 4.164548 7.213379 0.0 0.0 -1e-06 13.67842" Properties=species:S:1:pos:R:3:forces:R:3 config_type=Antisite energy=-29900.32439987 pbc="T T T"
P        2.08228617       1.20221773       0.08963469      -0.00007000      -0.00004000       0.10563000
P        4.09307037       2.36313913       3.38264591       0.00658000       0.00380000      -0.03257000
P        2.08229450       1.20221755       2.57508567      -0.00000000      -0.00000000       0.00134000
P        2.08228201       1.20221002       6.84086509      -0.00012000      -0.00007000       0.03455000
P        4.16273576       2.40335995      10.25721462      -0.00744000      -0.00430000       0.06481000
P        4.16602196       4.80806325       0.00046507      -0.03300000       0.01892000      -0.03304000
P        6.24689131       6.09372563       3.38263223       0.00009000      -0.00760000      -0.03245000
P        4.16401460       4.80921692       6.83781480       0.01145000      -0.00674000      -0.03062000
P        6.24688380       6.01329547      10.25721462       0.00011000       0.00878000       0.06482000
P        6.24691232       1.20385497       0.00046507      -0.00012000      -0.03804000      -0.03305000
P        8.40076380       2.36310856       3.38263223      -0.00654000       0.00389000      -0.03246000
P        6.24690818       1.20153896       6.83781480      -0.00011000       0.01328000      -0.03061000
P        8.33110592       2.40331641      10.25721462       0.00766000      -0.00429000       0.06482000
P        8.32772873       4.80801978       0.00046507       0.03277000       0.01892000      -0.03300000
P       10.41150583       6.01108844       3.42147894       0.00010000       0.00005000       0.01505000
P        8.32972774       4.80917341       6.83781480      -0.01166000      -0.00673000      -0.03061000
P       10.41150583       6.01108794      10.26022388       0.00011000       0.00007000      -0.00306000
In       4.16543442       2.40491833       5.98058822      -0.04309000      -0.02487000      -0.17894000
In       2.08229867       1.20222426       9.39937251      -0.00009000      -0.00006000      -0.02557000
In       4.16973228       2.40739920      12.82747181      -0.12746000      -0.07359000       0.06949000
In       4.15876715       4.81226135       2.55508782       0.10633000      -0.06145000       0.09081000
In       6.24686301       6.01014351       5.98058822       0.00010000       0.04989000      -0.17897000
In       4.16291097       4.80987317       9.40069932       0.00439000      -0.00262000       0.00983000
In       6.24687139       6.00518018      12.82747181       0.00010000       0.14732000       0.06948000
In       6.24692074       1.19547278       2.55508782      -0.00006000       0.12281000       0.09081000
In       8.32836558       2.40487485       5.98058822       0.04325000      -0.02486000      -0.17897000
In       6.24692485       1.20025478       9.40069932      -0.00008000       0.00511000       0.00983000
In       8.32407183       2.40736302      12.82747181       0.12763000      -0.07357000       0.06949000
In       8.33499179       4.81221773       2.55508782      -0.10644000      -0.06147000       0.09076000
In      10.41149333       6.01108104       5.98090282       0.00008000       0.00005000      -0.01783000
In       8.33086467       4.80982963       9.40069932      -0.00457000      -0.00264000       0.00984000
In      10.41148084       6.01107333      12.82037271       0.00009000       0.00006000       0.01043000
32
Lattice="8.329244 -8.7e-05 0.0 4.164548 7.213379 0.0 0.0 -1e-06 13.67842" Properties=species:S:1:pos:R:3:forces:R:3 config_type=Antisite energy=-29900.32491451 pbc="T T T"
P        2.08229450       1.20221773       0.09238405      -0.00007000      -0.00004000       0.09484000
P        4.09100890       2.36194894       3.38152428       0.01953000       0.01128000      -0.02810000
P        2.08229450       1.20221755       2.57550970      -0.00000000      -0.00000000      -0.00155000
P        2.08228201       1.20221002       6.84097452      -0.00012000      -0.00007000       0.03384000
P        4.16267329       2.40332388      10.25726934      -0.00756000      -0.00437000       0.06659000
P        4.16601363       4.80806325       0.00043771      -0.03344000       0.01917000      -0.03284000
P        6.24688712       6.09611327       3.38152428       0.00009000      -0.02256000      -0.02798000
P        4.16401460       4.80921692       6.83773273       0.01220000      -0.00717000      -0.03146000
P        6.24688380       6.01336760      10.25726934       0.00011000       0.00893000       0.06659000
P        6.24690816       1.20384775       0.00043771      -0.00012000      -0.03855000      -0.03284000
P        8.40282946       2.36191111       3.38152428      -0.01949000       0.01137000      -0.02799000
P        6.24690818       1.20153896       6.83773273      -0.00011000       0.01415000      -0.03146000
P        8.33116839       2.40328034      10.25726934       0.00779000      -0.00436000       0.06660000
P        8.32772873       4.80801978       0.00043771       0.03321000       0.01917000      -0.03280000
P       10.41150583       6.01108844       3.42156101       0.00010000       0.00006000       0.01439000
P        8.32972774       4.80917341       6.83773273      -0.01242000      -0.00717000      -0.03146000
P       10.41150583       6.01108794      10.26026491       0.00012000       0.00007000      -0.00341000
In       4.16539694       2.40489669       5.98034201      -0.04429000      -0.02557000      -0.18103000
In       2.08230700       1.20222426       9.39931780      -0.00009000      -0.00006000      -0.02555000
In       4.16970729       2.40738477      12.82780010      -0.12928000      -0.07464000       0.06939000
In       4.15875882       4.81227578       2.55504679       0.10835000      -0.06262000       0.09257000
In       6.24686301       6.01018679       5.98032833       0.00010000       0.05128000      -0.18106000
In       4.16286516       4.80989481       9.40074036       0.00492000      -0.00294000       0.00988000
In       6.24686723       6.00521624      12.82780010       0.00010000       0.14943000       0.06938000
In       6.24692906       1.19545835       2.55504679      -0.00006000       0.12515000       0.09257000
In       8.32840306       2.40485321       5.98032833       0.04446000      -0.02555000      -0.18106000
In       6.24692069       1.20020429       9.40074036      -0.00009000       0.00573000       0.00988000
In       8.32410098       2.40734138      12.82780010       0.12946000      -0.07463000       0.06938000
In       8.33501261       4.81222495       2.55504679      -0.10847000      -0.06264000       0.09253000
In      10.41149333       6.01108104       5.98088914       0.00009000       0.00005000      -0.01802000
In       8.33090215       4.80985127       9.40074036      -0.00510000      -0.00295000       0.00988000
In      10.41148084       6.01107333      12.82040007       0.00009000       0.00006000       0.01031000
32
Lattice="8.329244 -8.7e-05 0.0 4.164548 7.213379 0.0 0.0 -1e-06 13.67842" Properties=species:S:1:pos:R:3:forces:R:3 config_type=Antisite energy=-29900.3255562 pbc="T T T"
P        2.08229450       1.20221773       0.10029018      -0.00008000      -0.00005000       0.06452000
P        4.08507435       2.35852263       3.37832353       0.05674000       0.03276000      -0.01538000
P        2.08229450       1.20221755       2.57669972      -0.00001000      -0.00000000      -0.00984000
P        2.08228201       1.20221002       6.84126176      -0.00013000      -0.00008000       0.03171000
P        4.16248588       2.40321568      10.25740612      -0.00788000      -0.00456000       0.07178000
P        4.16600114       4.80807047       0.00035564      -0.03464000       0.01985000      -0.03237000
P        6.24688705       6.10295160       3.37832353       0.00009000      -0.06551000      -0.01526000
P        4.16401460       4.80921692       6.83750020       0.01442000      -0.00846000      -0.03383000
P        6.24688380       6.01358400      10.25740612       0.00012000       0.00932000       0.07179000
P        6.24690816       1.20383333       0.00035564      -0.00013000      -0.03993000      -0.03237000
P        8.40875159       2.35849189       3.37832353      -0.05668000       0.03284000      -0.01527000
P        6.24690818       1.20153896       6.83750020      -0.00012000       0.01671000      -0.03383000
P        8.33135580       2.40317213      10.25740612       0.00812000      -0.00455000       0.07179000
P        8.32774122       4.80802700       0.00035564       0.03439000       0.01985000      -0.03233000
P       10.41150583       6.01108844       3.42179355       0.00011000       0.00006000       0.01224000
P        8.32972774       4.80917341       6.83750020      -0.01465000      -0.00846000      -0.03382000
P       10.41150583       6.01108794      10.26037434       0.00012000       0.00007000      -0.00456000
In       4.16528449       2.40483177       5.97960337      -0.04765000      -0.02751000      -0.18845000
In       2.08230700       1.20222426       9.39915366      -0.00010000      -0.00006000      -0.02566000
In       4.16960734       2.40732707      12.82873023      -0.13517000      -0.07804000       0.07046000
In       4.15870884       4.81230463       2.55493736       0.11455000      -0.06621000       0.09776000
In       6.24686718       6.01030942       5.97960337       0.00011000       0.05518000      -0.18848000
In       4.16274855       4.80996694       9.40082243       0.00627000      -0.00372000       0.00994000
In       6.24686306       6.00532445      12.82873023       0.00011000       0.15624000       0.07046000
In       6.24692907       1.19540065       2.55493736      -0.00007000       0.13231000       0.09776000
In       8.32851134       2.40479550       5.97960337       0.04784000      -0.02749000      -0.18848000
In       6.24692485       1.20006723       9.40082243      -0.00009000       0.00729000       0.00994000
In       8.32419260       2.40728367      12.82873023       0.13536000      -0.07803000       0.07046000
In       8.33505426       4.81225380       2.55493736      -0.11468000      -0.06622000       0.09771000
In      10.41148084       6.01107383       5.98084811       0.00009000       0.00006000      -0.01850000
In       8.33102709       4.80992340       9.40082243      -0.00647000      -0.00374000       0.00995000
In      10.41148084       6.01107333      12.82050950       0.00010000       0.00006000       0.01016000
32
Lattice="8.329244 -8.7e-05 0.0 4.164548 7.213379 0.0 0.0 -1e-06 13.67842" Properties=species:S:1:pos:R:3:forces:R:3 config_type=Antisite energy=-29900.32702026 pbc="T T T"
P        2.08229450       1.20221773       0.10119295      -0.00007000      -0.00004000       0.06692000
P        4.08483697       2.35838557       3.37800892       0.05740000       0.03314000      -0.01665000
P        2.08229450       1.20221755       2.57675444      -0.00001000      -0.00000000      -0.01111000
P        2.08228201       1.20221002       6.84143958      -0.00013000      -0.00008000       0.02748000
P        4.16243591       2.40318683      10.25773440      -0.00862000      -0.00498000       0.07075000
P        4.16583872       4.80816424       0.00019150      -0.03202000       0.01835000      -0.02859000
P        6.24689121       6.10323292       3.37800892       0.00009000      -0.06627000      -0.01653000
P        4.16407707       4.80918085       6.83733606       0.01565000      -0.00917000      -0.03440000
P        6.24687964       6.01363450      10.25773440       0.00011000       0.01016000       0.07076000
P        6.24690816       1.20364578       0.00019150      -0.00012000      -0.03691000      -0.02859000
P        8.40899730       2.35835483       3.37800892      -0.05735000       0.03322000      -0.01654000
P        6.24690818       1.20161109       6.83733606      -0.00011000       0.01814000      -0.03440000
P        8.33139744       2.40314328      10.25773440       0.00885000      -0.00497000       0.07076000
P        8.32790364       4.80812077       0.00019150       0.03178000       0.01835000      -0.02855000
P       10.41150583       6.01108844       3.42187562       0.00010000       0.00006000       0.00981000
P        8.32966527       4.80913734       6.83733606      -0.01587000      -0.00917000      -0.03439000
P       10.41150583       6.01108794      10.26036066       0.00012000       0.00007000      -0.00486000
In       4.16507210       2.40470914       5.97870060      -0.04606000      -0.02659000      -0.18077000
In       2.08230700       1.20222426       9.39901688      -0.00009000      -0.00006000      -0.02349000
In       4.16898265       2.40696640      12.82911322      -0.12799000      -0.07390000       0.06901000
In       4.15922526       4.81200167       2.55536139       0.10839000      -0.06265000       0.09221000
In       6.24686301       6.01056189       5.97870060       0.00010000       0.05334000      -0.18080000
In       4.16276105       4.80995973       9.40087714       0.00664000      -0.00393000       0.00928000
In       6.24687139       6.00604579      12.82911322       0.00010000       0.14794000       0.06901000
In       6.24692489       1.19599936       2.55536139      -0.00006000       0.12519000       0.09221000
In       8.32872791       2.40466565       5.97870060       0.04624000      -0.02658000      -0.18080000
In       6.24692485       1.20008166       9.40087714      -0.00009000       0.00771000       0.00928000
In       8.32482147       2.40693021      12.82911322       0.12817000      -0.07388000       0.06901000
In       8.33453784       4.81195084       2.55537507      -0.10851000      -0.06266000       0.09216000
In      10.41148917       6.01107382       5.98075236       0.00009000       0.00005000      -0.01712000
In       8.33101460       4.80991619       9.40087714      -0.00682000      -0.00394000       0.00929000
In      10.41148084       6.01107333      12.82056421       0.00009000       0.00006000       0.00962000
32
Lattice="8.329244 -8.7e-05 0.0 4.164548 7.213379 0.0 0.0 -1e-06 13.67842" Properties=species:S:1:pos:R:3:forces:R:3 config_type=Antisite energy=-29900.34470286 pbc="T T T"
P        2.08228201       1.20221052       0.12124551       0.00002000       0.00001000       0.12059000
P        4.07945214       2.35527664       3.37097822       0.07228000       0.04173000      -0.04916000
P        2.08229450       1.20221755       2.57808124      -0.00001000      -0.00000000      -0.02935000
P        2.08226951       1.20220281       6.84536529       0.00003000       0.00002000      -0.07705000
P        4.16139892       2.40258812      10.26497029      -0.02657000      -0.01534000       0.04965000
P        4.16229044       4.81019846      -0.00339225       0.02996000      -0.01722000       0.06069000
P        6.24689531       6.10944368       3.37099190       0.00000000      -0.08349000      -0.04919000
P        4.16537644       4.80841622       6.83369760       0.04434000      -0.02554000      -0.05166000
P        6.24689628       6.01486078      10.26497029      -0.00004000       0.03059000       0.04966000
P        6.24689571       1.19955577      -0.00339225       0.00007000       0.03456000       0.06070000
P        8.41437803       2.35525301       3.37099190      -0.07231000       0.04174000      -0.04919000
P        6.24689567       1.20311870       6.83369760       0.00005000       0.05117000      -0.05166000
P        8.33246776       2.40254456      10.26497029       0.02647000      -0.01534000       0.04966000
P        8.33142689       4.81015492      -0.00339225      -0.02985000      -0.01723000       0.06067000
P       10.41150583       6.01108844       3.42366749      -0.00003000      -0.00002000      -0.04431000
P        8.32834092       4.80837273       6.83371128      -0.04424000      -0.02554000      -0.05165000
P       10.41151832       6.01109515      10.26014181      -0.00005000      -0.00003000      -0.01073000
In       4.16024949       2.40192481       5.95857964      -0.01721000      -0.00994000      -0.02681000
In       2.08229450       1.20221705       9.39610337       0.00006000       0.00004000       0.02402000
In       4.15516452       2.39898850      12.83767591       0.01301000       0.00751000       0.04021000
In       4.17064056       4.80540126       2.56503203      -0.01137000       0.00659000      -0.01769000
In       6.24687545       6.01615230       5.95856596      -0.00005000       0.01974000      -0.02677000
In       4.16313170       4.80973611       9.40203981       0.01617000      -0.00928000      -0.00252000
In       6.24687955       6.02201630      12.83767591      -0.00006000      -0.01506000       0.04025000
In       6.24691643       1.20918550       2.56503203       0.00002000      -0.01314000      -0.01769000
In       8.33357555       2.40188122       5.95856596       0.01707000      -0.00992000      -0.02677000
In       6.24691652       1.20051446       9.40203981       0.00005000       0.01865000      -0.00252000
In       8.33865642       2.39895202      12.83767591      -0.01307000       0.00748000       0.04025000
In       8.32310603       4.80535068       2.56503203       0.01143000       0.00660000      -0.01766000
In      10.41149333       6.01108104       5.97879635      -0.00006000      -0.00003000       0.01402000
In       8.33062729       4.80969258       9.40203981      -0.01606000      -0.00927000      -0.00252000
In      10.41149333       6.01108054      12.82178159      -0.00006000      -0.00004000      -0.00546000
32
Lattice="8.329244 -8.7e-05 0.0 4.164548 7.213379 0.0 0.0 -1e-06 13.67842" Properties=species:S:1:pos:R:3:forces:R:3 config_type=Antisite energy=-29900.34508973 pbc="T T T"
P        2.08228201       1.20221052       0.12313314       0.00004000       0.00002000       0.13049000
P        4.07952710       2.35531992       3.37034901       0.06928000       0.04000000      -0.05469000
P        2.08229450       1.20221755       2.57806757      -0.00001000      -0.00000000      -0.03022000
P        2.08226951       1.20220281       6.84572093       0.00005000       0.00003000      -0.08890000
P        4.16123650       2.40249435      10.26595514      -0.02834000      -0.01636000       0.04599000
P        4.16188647       4.81043651      -0.00374789       0.03734000      -0.02145000       0.07071000
P        6.24689948       6.10936433       3.37036269      -0.00001000      -0.08004000      -0.05474000
P        4.16561383       4.80827916       6.83317782       0.04705000      -0.02708000      -0.05287000
P        6.24689212       6.01504111      10.26595514      -0.00006000       0.03261000       0.04600000
P        6.24689155       1.19908689      -0.00374789       0.00009000       0.04306000       0.07071000
P        8.41431139       2.35529629       3.37036269      -0.06932000       0.04001000      -0.05474000
P        6.24689567       1.20339281       6.83317782       0.00007000       0.05429000      -0.05288000
P        8.33262185       2.40245078      10.26595514       0.02821000      -0.01637000       0.04600000
P        8.33183919       4.81039296      -0.00374789      -0.03719000      -0.02147000       0.07067000
P       10.41151832       6.01109565       3.42380427      -0.00005000      -0.00003000      -0.04997000
P        8.32810354       4.80823568       6.83319150      -0.04691000      -0.02708000      -0.05286000
P       10.41151832       6.01109515      10.26008709      -0.00007000      -0.00004000      -0.01148000
In       4.15961231       2.40155694       5.95604913      -0.01280000      -0.00739000      -0.00548000
In       2.08229450       1.20221705       9.39578877       0.00008000       0.00005000       0.02945000
In       4.15342788       2.39798585      12.83874283       0.03233000       0.01866000       0.03603000
In       4.17208985       4.80456449       2.56624941      -0.02783000       0.01610000      -0.03223000
In       6.24687544       6.01688806       5.95603546      -0.00007000       0.01461000      -0.00543000
In       4.16321916       4.80968561       9.40217659       0.01710000      -0.00980000      -0.00424000
In       6.24687953       6.02402164      12.83874283      -0.00008000      -0.03740000       0.03608000
In       6.24691641       1.21085901       2.56624941       0.00003000      -0.03215000      -0.03223000
In       8.33420858       2.40152055       5.95603546       0.01262000      -0.00737000      -0.00543000
In       6.24691652       1.20061545       9.40217659       0.00007000       0.01971000      -0.00424000
In       8.34039308       2.39794933      12.83874283      -0.03242000       0.01863000       0.03608000
In       8.32165675       4.80451394       2.56624941       0.02791000       0.01612000      -0.03218000
In      10.41149333       6.01108104       5.97857749      -0.00007000      -0.00004000       0.01792000
In       8.33053983       4.80964209       9.40217659      -0.01696000      -0.00979000      -0.00424000
In      10.41149333       6.01108054      12.82191837      -0.00008000      -0.00005000      -0.00706000
32
Lattice="8.329244 -8.7e-05 0.0 4.164548 7.213379 0.0 0.0 -1e-06 13.67842" Properties=species:S:1:pos:R:3:forces:R:3 config_type=Antisite energy=-29900.3453447 pbc="T T T"
P        2.08228201       1.20221052       0.12411798       0.00004000       0.00002000       0.13388000
P        4.07961456       2.35537042       3.36999337       0.06800000       0.03926000      -0.05623000
P        2.08229450       1.20221755       2.57802653      -0.00001000      -0.00000000      -0.03063000
P        2.08226951       1.20220281       6.84567989       0.00006000       0.00004000      -0.09097000
P        4.16113655       2.40243664      10.26639284      -0.02842000      -0.01641000       0.04461000
P        4.16180318       4.81047979      -0.00374789       0.03875000      -0.02226000       0.07273000
P        6.24690364       6.10925613       3.37000705      -0.00001000      -0.07856000      -0.05628000
P        4.16578041       4.80817817       6.83290425       0.04725000      -0.02719000      -0.05247000
P        6.24689628       6.01516374      10.26639284      -0.00007000       0.03269000       0.04462000
P        6.24689571       1.19899312      -0.00374789       0.00009000       0.04469000       0.07273000
P        8.41421977       2.35535400       3.37000705      -0.06804000       0.03926000      -0.05628000
P        6.24689150       1.20358757       6.83290425       0.00008000       0.05452000      -0.05247000
P        8.33273013       2.40239307      10.26639284       0.02828000      -0.01641000       0.04462000
P        8.33191415       4.81043624      -0.00373421      -0.03859000      -0.02228000       0.07269000