32
Lattice="8.329244 -8.7e-05 0.0 4.164548 7.213379 0.0 0.0 -1e-06 13.67842" Properties=species:S:1:pos:R:3:forces:R:3 config_type=Antisite energy=-32972.83441945 pbc="T T T"
P        4.16460983       2.40444244       3.41950925       0.06962000       0.04020000       0.19742000
P        2.08227368       1.20221002       6.83911425       0.00006000       0.00004000       0.01082000
P        4.16462232       2.40444915      10.25871925       0.15586000       0.08999000      -0.04874000
P        4.16454768       4.80890002      -0.00009575       0.00051000      -0.00023000       0.02805000
P        6.24688799       6.01113915       3.41950925      -0.00006000      -0.08052000       0.19744000
P        4.16455601       4.80889952       6.83911425      -0.03636000       0.02107000       0.01710000
P        6.24689632       6.01113865      10.25871925      -0.00007000      -0.18010000      -0.04877000
P        6.24689568       1.20216702      -0.00009575       0.00005000       0.00056000       0.02806000
P        8.32924432       2.40440615       3.41950925      -0.06977000       0.04020000       0.19744000
P        6.24690401       1.20216652       6.83911425       0.00006000      -0.04201000       0.01710000
P        8.32924432       2.40440565      10.25871925      -0.15600000       0.08999000      -0.04877000
P        8.32917801       4.80885652      -0.00009575      -0.00043000      -0.00025000       0.02802000
P       10.41151832       6.01109565       3.41950925      -0.00007000      -0.00004000      -0.06190000
P        8.32916968       4.80885602       6.83911425       0.03648000       0.02106000       0.01710000
P       10.41151832       6.01109515      10.25871925      -0.00006000      -0.00004000       0.03198000
In       2.08228201       1.20221052      -0.00009575      -0.00008000      -0.00004000       0.49463000
In       2.08228617       1.20221755       2.56088747       0.00008000       0.00005000       1.40733000
In       4.16460983       2.40444225       5.98049247       0.06077000       0.03509000      -0.02640000
In       2.08229450       1.20221705       9.40009747       0.00006000       0.00004000      -0.06011000
In       4.16460150       2.40444175      12.81970247       1.41071000       0.81447000      -0.80455000
In       4.16456017       4.80890705       2.56088747       0.03451000      -0.01983000       0.10283000
In       6.24687550       6.01113175       5.98049247      -0.00008000      -0.07031000      -0.02641000
In       4.16456850       4.80890655       9.40009747       0.00385000      -0.00213000      -0.05725000
In       6.24688383       6.01113125      12.81970247       0.00009000      -1.62906000      -0.80447000
In       6.24691650       1.20217405       2.56088747       0.00008000       0.03980000       0.10283000
In       8.32922350       2.40439875       5.98049247      -0.06093000       0.03509000      -0.02641000
In       6.24691650       1.20217355       9.40009747       0.00009000       0.00440000      -0.05725000
In       8.32923183       2.40439825      12.81970247      -1.41075000       0.81461000      -0.80447000
In       8.32919050       4.80886355       2.56088747      -0.03436000      -0.01983000       0.10279000
In      10.41150583       6.01108825       5.98049247      -0.00008000      -0.00005000       0.03844000
In       8.32919050       4.80886305       9.40009747      -0.00371000      -0.00214000      -0.05725000
In      10.41149750       6.01108775      12.81970247      -0.00012000      -0.00007000      -0.08663000
32
Lattice="8.329244 -8.7e-05 0.0 4.164548 7.213379 0.0 0.0 -1e-06 13.67842" Properties=species:S:1:pos:R:3:forces:R:3 config_type=Antisite energy=-32972.8504147 pbc="T T T"
P        4.16470978       2.40450015       3.41976914       0.07127000       0.04115000       0.19779000
P        2.08227368       1.20221002       6.83914161       0.00006000       0.00004000       0.01065000
P        4.16482222       2.40456456      10.25866454       0.15476000       0.08935000      -0.05327000
P        4.16455601       4.80890002      -0.00005471      -0.00173000       0.00106000       0.03011000
P        6.24689216       6.01103095       3.41976914      -0.00006000      -0.08242000       0.19781000
P        4.16450187       4.80892117       6.83914161      -0.03627000       0.02101000       0.01744000
P        6.24689216       6.01090061      10.25866454      -0.00007000      -0.17882000      -0.05331000
P        6.24689568       1.20216702      -0.00005471       0.00005000      -0.00203000       0.03011000
P        8.32914853       2.40445665       3.41976914      -0.07141000       0.04115000       0.19781000
P        6.24689568       1.20210882       6.83914161       0.00006000      -0.04191000       0.01744000
P        8.32903609       2.40452107      10.25866454      -0.15490000       0.08935000      -0.05331000
P        8.32916551       4.80884931      -0.00005471       0.00181000       0.00105000       0.03007000
P       10.41151832       6.01109565       3.41944086      -0.00007000      -0.00004000      -0.06193000
P        8.32921549       4.80887766       6.83914161       0.03639000       0.02101000       0.01744000
P       10.41151832       6.01109515      10.25877396      -0.00006000      -0.00004000       0.03158000
In       2.08228201       1.20221052       0.00054714      -0.00008000      -0.00004000       0.48467000
In       2.08228617       1.20221755       2.56272038       0.00008000       0.00004000       1.38649000
In       4.16468479       2.40448553       5.98046511       0.06113000       0.03529000      -0.02484000
In       2.08229450       1.20221705       9.40002908       0.00006000       0.00004000      -0.05763000
In       4.16643392       2.40549489      12.81866291       1.38322000       0.79860000      -0.79311000
In       4.16461015       4.80887820       2.56102426       0.03463000      -0.01990000       0.10300000
In       6.24687966       6.01103798       5.98046511      -0.00008000      -0.07073000      -0.02485000
In       4.16456434       4.80889934       9.40002908       0.00326000      -0.00179000      -0.05860000
In       6.24687968       6.00901772      12.81866291       0.00009000      -1.59730000      -0.79302000
In       6.24691234       1.20222454       2.56102426       0.00008000       0.03994000       0.10300000
In       8.32914853       2.40444203       5.98046511      -0.06129000       0.03530000      -0.02485000
In       6.24690817       1.20217355       9.40002908       0.00009000       0.00371000      -0.05860000
In       8.32739938       2.40545143      12.81866291      -1.38325000       0.79873000      -0.79302000
In       8.32914053       4.80883470       2.56102426      -0.03448000      -0.01990000       0.10297000
In      10.41150583       6.01108825       5.98054718      -0.00008000      -0.00005000       0.03794000
In       8.32917801       4.80885584       9.40002908      -0.00311000      -0.00179000      -0.05860000
In      10.41149750       6.01108775      12.81959304      -0.00012000      -0.00007000      -0.08739000
32
Lattice="8.329244 -8.7e-05 0.0 4.164548 7.213379 0.0 0.0 -1e-06 13.67842" Properties=species:S:1:pos:R:3:forces:R:3 config_type=Antisite energy=-32973.35682271 pbc="T T T"
P        4.16980724       2.40744317       3.43425459       0.16509000       0.09531000       0.21708000
P        2.08228201       1.20221002       6.83993496      -0.00002000      -0.00001000      -0.00362000
P        4.17625404       2.41116473      10.25509447       0.08699000       0.05022000      -0.33660000
P        4.16458516       4.80887838       0.00201073      -0.12352000       0.07131000       0.15091000
P        6.24688805       6.00512316       3.43425459       0.00003000      -0.19060000       0.21707000
P        4.16183649       4.81046487       6.84040002      -0.03210000       0.01851000       0.03308000
P        6.24688813       5.99769283      10.25508079       0.00002000      -0.10043000      -0.33655000
P        6.24689984       1.20220309       0.00201073      -0.00001000      -0.14262000       0.15091000
P        8.32403018       2.40740699       3.43425459      -0.16505000       0.09532000       0.21707000
P        6.24689988       1.19902869       6.84040002      -0.00002000      -0.03706000       0.03308000
P        8.31759580       2.41112147      10.25508079      -0.08696000       0.05024000      -0.33655000
P        8.32914053       4.80883488       0.00199705       0.12356000       0.07134000       0.15098000
P       10.41150583       6.01108844       3.41489962       0.00002000       0.00001000      -0.06879000
P        8.33189333       4.81042852       6.84040002       0.03207000       0.01851000       0.03309000
P       10.41150583       6.01108794      10.26111297       0.00001000       0.00001000       0.01265000
In       2.08226951       1.20220331       0.03682231      -0.00005000      -0.00003000       0.10229000
In       2.08229450       1.20221754       2.66593774      -0.00002000      -0.00001000       0.30193000
In       4.16914507       2.40706068       5.97852278       0.09021000       0.05209000       0.06261000
In       2.08229450       1.20221705       9.39561095      -0.00000000      -0.00000000       0.08588000
In       4.26989501       2.46522817      12.75965421       0.12317000       0.07111000      -0.21005000
In       4.16713392       4.80742106       2.56857474       0.04207000      -0.02429000       0.11499000
In       6.24687555       6.00588038       5.97852278       0.00000000      -0.10418000       0.06262000
In       4.16485170       4.80874785       9.39582980      -0.02830000       0.01633000      -0.13707000
In       6.24688507       5.88954181      12.75966789      -0.00002000      -0.14218000      -0.21010000
In       6.24691231       1.20513877       2.56857474      -0.00001000       0.04858000       0.11499000
In       8.32467987       2.40701727       5.97852278      -0.09022000       0.05209000       0.06262000
In       6.24692066       1.20249815       9.39582980      -0.00000000      -0.03267000      -0.13707000
In       8.22393290       2.46519408      12.75966789      -0.12315000       0.07107000      -0.21010000
In       8.32661678       4.80737761       2.56856106      -0.04208000      -0.02429000       0.11499000
In      10.41149333       6.01108104       5.98336494      -0.00000000      -0.00000000       0.01520000
In       8.32890314       4.80869715       9.39582980       0.02829000       0.01633000      -0.13708000
In      10.41149333       6.01108054      12.81324626      -0.00000000      -0.00000000      -0.13047000
32
Lattice="8.329244 -8.7e-05 0.0 4.164548 7.213379 0.0 0.0 -1e-06 13.67842" Properties=species:S:1:pos:R:3:forces:R:3 config_type=Antisite energy=-32973.37623571 pbc="T T T"
P        4.17109411       2.40818614       3.43749637       0.18112000       0.10457000       0.21844000
P        2.08228201       1.20221002       6.84008542      -0.00004000      -0.00002000      -0.00741000
P        4.17867784       2.41256411      10.25384973       0.07060000       0.04076000      -0.39664000
P        4.16440608       4.80898659       0.00265361      -0.14428000       0.08328000       0.17261000
P        6.24688390       6.00364441       3.43749637       0.00004000      -0.20907000       0.21842000
P        4.16124928       4.81080390       6.84070095      -0.03123000       0.01799000       0.03425000
P        6.24688399       5.99488681      10.25384973       0.00004000      -0.08148000      -0.39657000
P        6.24690401       1.20199390       0.00265361      -0.00002000      -0.16659000       0.17261000
P        8.32274747       2.40814277       3.43749637      -0.18104000       0.10458000       0.21842000
P        6.24689988       1.19835062       6.84070095      -0.00003000      -0.03604000       0.03425000
P        8.31516365       2.41252090      10.25384973      -0.07055000       0.04078000      -0.39657000
P        8.32932793       4.80894308       0.00265361       0.14431000       0.08332000       0.17271000
P       10.41150583       6.01108844       3.41387374       0.00003000       0.00002000      -0.06798000
P        8.33248053       4.81076755       6.84070095       0.03117000       0.01799000       0.03425000
P       10.41150583       6.01108794      10.26160540       0.00003000       0.00002000       0.00599000
In       2.08226951       1.20220331       0.04426337      -0.00005000      -0.00003000       0.05178000
In       2.08229450       1.20221754       2.68712561      -0.00004000      -0.00002000       0.09844000
In       4.17016956       2.40765217       5.97823553       0.09573000       0.05527000       0.08267000
In       2.08229450       1.20221705       9.39487231      -0.00001000      -0.00001000       0.11529000
In       4.29085960       2.47733207      12.74749409      -0.08082000      -0.04666000      -0.09762000
In       4.16771281       4.80709645       2.57025719       0.04278000      -0.02472000       0.11413000
In       6.24686723       6.00468295       5.97823553       0.00002000      -0.11052000       0.08268000
In       4.16486419       4.80874064       9.39477657      -0.03497000       0.02017000      -0.15138000
In       6.24688532       5.86533356      12.74749409      -0.00004000       0.09339000      -0.09769000
In       6.24692063       1.20580240       2.57025719      -0.00002000       0.04941000       0.11413000
In       8.32363871       2.40760878       5.97823553      -0.09570000       0.05527000       0.08268000
In       6.24692066       1.20251258       9.39477657      -0.00002000      -0.04037000      -0.15138000
In       8.20296807       2.47729842      12.74749409       0.08085000      -0.04673000      -0.09769000
In       8.32605456       4.80705301       2.57025719      -0.04282000      -0.02472000       0.11414000
In      10.41149333       6.01108104       5.98395311       0.00001000       0.00001000       0.00932000
In       8.32890314       4.80869715       9.39477657       0.03493000       0.02017000      -0.15140000
In      10.41149333       6.01108054      12.81176899       0.00002000       0.00001000      -0.13492000
32
Lattice="8.329244 -8.7e-05 0.0 4.164548 7.213379 0.0 0.0 -1e-06 13.67842" Properties=species:S:1:pos:R:3:forces:R:3 config_type=Antisite energy=-32973.37889681 pbc="T T T"
P        4.17169381       2.40853237       3.43867272       0.18239000       0.10530000       0.21673000
P        2.08228201       1.20221002       6.84011278      -0.00004000      -0.00002000      -0.00837000
P        4.17942746       2.41299690      10.25296064       0.06570000       0.03793000      -0.40777000
P        4.16415620       4.80913086       0.00306397      -0.14692000       0.08480000       0.17559000
P        6.24688808       6.00295913       3.43867272       0.00005000      -0.21053000       0.21672000
P        4.16105354       4.81092653       6.84082405      -0.03112000       0.01792000       0.03339000
P        6.24688400       5.99402120      10.25296064       0.00005000      -0.07582000      -0.40770000
P        6.24690401       1.20170537       0.00306397      -0.00002000      -0.16964000       0.17559000
P        8.32215609       2.40848902       3.43867272      -0.18230000       0.10531000       0.21671000
P        6.24689989       1.19811979       6.84082405      -0.00004000      -0.03591000       0.03339000
P        8.31441401       2.41295371      10.25296064      -0.06564000       0.03795000      -0.40770000
P        8.32957781       4.80908735       0.00306397       0.14695000       0.08484000       0.17569000
P       10.41150583       6.01108844       3.41350442       0.00004000       0.00002000      -0.06607000
P        8.33268043       4.81088296       6.84082405       0.03104000       0.01792000       0.03339000
P       10.41150583       6.01108794      10.26174218       0.00003000       0.00002000       0.00312000
In       2.08226951       1.20220331       0.04634249      -0.00005000      -0.00003000       0.04004000
In       2.08229450       1.20221754       2.69292526      -0.00004000      -0.00003000       0.04635000
In       4.17058186       2.40789021       5.97827657       0.09570000       0.05525000       0.08907000
In       2.08229450       1.20221705       9.39483128      -0.00002000      -0.00001000       0.12049000
In       4.29635686       2.48050592      12.74410184      -0.13125000      -0.07578000      -0.06887000
In       4.16792521       4.80697382       2.57087272       0.04234000      -0.02448000       0.11356000
In       6.24686724       6.00420687       5.97827657       0.00002000      -0.11048000       0.08909000
In       4.16481838       4.80876228       9.39428414      -0.03732000       0.02152000      -0.15434000
In       6.24688955       5.85897854      12.74410184      -0.00004000       0.15161000      -0.06894000
In       6.24692063       1.20604766       2.57087272      -0.00003000       0.04891000       0.11356000
In       8.32322641       2.40784683       5.97827657      -0.09566000       0.05526000       0.08909000
In       6.24691650       1.20246209       9.39428414      -0.00003000      -0.04308000      -0.15434000
In       8.19746657       2.48047960      12.74410184       0.13127000      -0.07584000      -0.06894000
In       8.32584217       4.80693039       2.57087272      -0.04239000      -0.02448000       0.11358000
In      10.41149333       6.01108104       5.98413093       0.00002000       0.00001000       0.00632000
In       8.32894063       4.80871879       9.39428414       0.03728000       0.02152000      -0.15436000
In      10.41149333       6.01108054      12.81118082       0.00003000       0.00001000      -0.13406000
32
Lattice="8.329244 -8.7e-05 0.0 4.164548 7.213379 0.0 0.0 -1e-06 13.67842" Properties=species:S:1:pos:R:3:forces:R:3 config_type=Antisite energy=-32973.37987512 pbc="T T T"
P        4.17231850       2.40889304       3.43989010       0.18370000       0.10606000       0.21493000
P        2.08228201       1.20221002       6.84014013      -0.00005000      -0.00003000      -0.00938000
P        4.18021457       2.41345134      10.25203050       0.06050000       0.03492000      -0.41955000
P        4.16389383       4.80928234       0.00350168      -0.14961000       0.08635000       0.17866000
P        6.24688808       6.00223779       3.43990378       0.00005000      -0.21204000       0.21491000
P        4.16083698       4.81104195       6.84096084      -0.03098000       0.01784000       0.03245000
P        6.24688818       5.99311952      10.25203050       0.00005000      -0.06980000      -0.41947000
P        6.24690402       1.20140240       0.00350168      -0.00002000      -0.17275000       0.17865000
P        8.32153140       2.40884970       3.43990378      -0.18360000       0.10607000       0.21490000
P        6.24689989       1.19787454       6.84096084      -0.00004000      -0.03575000       0.03245000
P        8.31363523       2.41340817      10.25203050      -0.06042000       0.03495000      -0.41947000
P        8.32984018       4.80923883       0.00350168       0.14964000       0.08639000       0.17875000
P       10.41150583       6.01108844       3.41312143       0.00004000       0.00002000      -0.06401000
P        8.33288866       4.81099837       6.84096084       0.03090000       0.01784000       0.03246000
P       10.41150583       6.01108794      10.26189264       0.00003000       0.00002000      -0.00001000
In       2.08226951       1.20220331       0.04850368      -0.00004000      -0.00003000       0.02796000
In       2.08229450       1.20221754       2.69901216      -0.00005000      -0.00003000      -0.00744000
In       4.17101914       2.40814267       5.97831760       0.09574000       0.05528000       0.09584000
In       2.08229450       1.20221705       9.39479024      -0.00002000      -0.00001000       0.12618000
In       4.30212900       2.48383846      12.74053178      -0.18282000      -0.10555000      -0.03896000
In       4.16815010       4.80684397       2.57151560       0.04187000      -0.02420000       0.11288000
In       6.24687141       6.00370914       5.97831760       0.00003000      -0.11052000       0.09586000
In       4.16476841       4.80879113       9.39376436      -0.03979000       0.02294000      -0.15739000
In       6.24688129       5.85231333      12.74054545      -0.00004000       0.21114000      -0.03904000
In       6.24692062       1.20630734       2.57151560      -0.00003000       0.04836000       0.11288000
In       8.32279745       2.40809930       5.97831760      -0.09570000       0.05528000       0.09586000
In       6.24691650       1.20240438       9.39376436      -0.00003000      -0.04593000      -0.15739000
In       8.19169021       2.48380505      12.74054545       0.18283000      -0.10560000      -0.03904000
In       8.32561728       4.80680055       2.57151560      -0.04192000      -0.02420000       0.11289000
In      10.41149333       6.01108104       5.98430875       0.00002000       0.00001000       0.00316000
In       8.32899060       4.80874764       9.39376436       0.03974000       0.02294000      -0.15740000
In      10.41149333       6.01108054      12.81056529       0.00003000       0.00002000      -0.13314000
32
Lattice="8.329244 -8.7e-05 0.0 4.164548 7.213379 0.0 0.0 -1e-06 13.67842" Properties=species:S:1:pos:R:3:forces:R:3 config_type=Antisite energy=-32973.3832394 pbc="T T T"
P        4.17283074       2.40918878       3.44054666       0.17824000       0.10291000       0.21148000
P        2.08228201       1.20221002       6.84012645      -0.00004000      -0.00003000      -0.00909000
P        4.18043946       2.41358118      10.25092255       0.05962000       0.03442000      -0.41042000
P        4.16349402       4.80951318       0.00398042      -0.14449000       0.08340000       0.17358000
P        6.24688809       6.00164629       3.44054666       0.00005000      -0.20574000       0.21146000
P        4.16074536       4.81109966       6.84105659      -0.03126000       0.01800000       0.03042000
P        6.24688818       5.99285984      10.25092255       0.00005000      -0.06879000      -0.41034000
P        6.24690402       1.20094074       0.00398042      -0.00002000      -0.16684000       0.17357000
P        8.32101914       2.40914546       3.44054666      -0.17815000       0.10292000       0.21146000
P        6.24690405       1.19776634       6.84105659      -0.00004000      -0.03608000       0.03042000
P        8.31340201       2.41353801      10.25092255      -0.05955000       0.03444000      -0.41034000
P        8.33023998       4.80946965       0.00398042       0.14452000       0.08344000       0.17367000
P       10.41150583       6.01108844       3.41292993       0.00004000       0.00002000      -0.06083000
P        8.33298861       4.81105608       6.84105659       0.03118000       0.01800000       0.03042000
P       10.41150583       6.01108794      10.26190632       0.00003000       0.00002000      -0.00207000
In       2.08226951       1.20220331       0.04876357      -0.00004000      -0.00002000       0.02940000
In       2.08229450       1.20221754       2.69957297      -0.00005000      -0.00003000      -0.00733000
In       4.17129401       2.40830136       5.97855014       0.09274000       0.05354000       0.09745000
In       2.08229450       1.20221705       9.39509117      -0.00002000      -0.00001000       0.12105000
In       4.30220812       2.48388896      12.74010774      -0.18123000      -0.10464000      -0.03998000
In       4.16827504       4.80677184       2.57185756       0.04064000      -0.02349000       0.11236000
In       6.24687141       6.00339175       5.97855014       0.00002000      -0.10705000       0.09746000
In       4.16466845       4.80884884       9.39332665      -0.04082000       0.02353000      -0.15558000
In       6.24688962       5.85222677      12.74010774      -0.00004000       0.20931000      -0.04006000
In       6.24692062       1.20645161       2.57185756      -0.00003000       0.04694000       0.11236000
In       8.32252258       2.40825800       5.97855014      -0.09270000       0.05355000       0.09746000
In       6.24691650       1.20228897       9.39332665      -0.00003000      -0.04711000      -0.15558000
In       8.19161941       2.48385554      12.74010774       0.18125000      -0.10468000      -0.04006000
In       8.32549234       4.80672842       2.57184389      -0.04069000      -0.02349000       0.11238000
In      10.41149333       6.01108104       5.98433611       0.00002000       0.00001000       0.00031000
In       8.32909055       4.80880534       9.39332665       0.04077000       0.02354000      -0.15560000
In      10.41149333       6.01108054      12.81018229       0.00003000       0.00002000      -0.12942000
32
Lattice="8.329244 -8.7e-05 0.0 4.164548 7.213379 0.0 0.0 -1e-06 13.67842" Properties=species:S:1:pos:R:3:forces:R:3 config_type=Antisite energy=-32973.45987539 pbc="T T T"
P        4.19650648       2.42285797       3.47031090      -0.06653000      -0.03841000       0.04524000
P        2.08228201       1.20221002       6.83925104      -0.00001000      -0.00000000      -0.00272000
P        4.19084679       2.41958986      10.19956008       0.01304000       0.00753000       0.02060000
P        4.14523205       4.82005218       0.02620785       0.08604000      -0.04967000      -0.05972000
P        6.24689253       5.97431463       3.47031090      -0.00001000       0.07680000       0.04527000
P        4.15635582       4.81362440       6.84546104      -0.04256000       0.02456000      -0.07883000
P        6.24688830       5.98084228      10.19957376      -0.00000000      -0.01504000       0.02053000
P        6.24690007       1.17985591       0.02620785       0.00000000       0.09934000      -0.05972000
P        8.29735146       2.42281514       3.47031090       0.06650000      -0.03841000       0.04527000
P        6.24689578       1.19270251       6.84546104      -0.00001000      -0.04913000      -0.07883000
P        8.30300288       2.41954690      10.19957376      -0.01303000       0.00751000       0.02053000
P        8.34850590       4.82001549       0.02622153      -0.08609000      -0.04970000      -0.05977000
P       10.41150583       6.01108844       3.40382010       0.00001000       0.00000000       0.08494000
P        8.33736144       4.81358073       6.84546104       0.04255000       0.02457000      -0.07883000
P       10.41150583       6.01108794      10.26275438      -0.00000000      -0.00000000      -0.10655000
In       2.08225702       1.20219609       0.06069115       0.00001000       0.00001000       0.07838000
In       2.08229450       1.20221754       2.72545254       0.00004000       0.00002000      -0.01026000
In       4.18406266       2.41567335       5.98921930      -0.03434000      -0.01983000       0.18971000
In       2.08229450       1.20221705       9.40920730      -0.00000000      -0.00000000      -0.08628000
In       4.30590212       2.48601688      12.72004150      -0.12917000      -0.07458000      -0.08110000
In       4.17403474       4.80344639       2.58745096      -0.01061000       0.00614000       0.09829000
In       6.24687156       5.98864751       5.98923298      -0.00002000       0.03964000       0.18970000
In       4.16009151       4.81149622       9.37332880      -0.09814000       0.05668000      -0.08446000
In       6.24688134       5.84797086      12.72004150       0.00004000       0.14906000      -0.08103000
In       6.24692055       1.21310238       2.58745096       0.00001000      -0.01226000       0.09829000
In       8.30975377       2.41563025       5.98923298       0.03432000      -0.01983000       0.18970000
In       6.24692072       1.19700153       9.37332880       0.00002000      -0.11333000      -0.08446000
In       8.18792953       2.48597633      12.72004150       0.12911000      -0.07450000      -0.08103000
In       8.31973270       4.80340309       2.58745096       0.01064000       0.00614000       0.09833000
In      10.41149333       6.01108104       5.98567659      -0.00000000      -0.00000000      -0.13334000
In       8.33366328       4.81144541       9.37332880       0.09817000       0.05668000      -0.08446000
In      10.41149333       6.01108054      12.79226356       0.00002000       0.00001000       0.02663000
32
Lattice="8.329244 -8.7e-05 0.0 4.164548 7.213379 0.0 0.0 -1e-06 13.67842" Properties=species:S:1:pos:R:3:forces:R:3 config_type=Antisite energy=-32973.46152624 pbc="T T T"
P        4.19630658       2.42274256       3.46976377      -0.07240000      -0.04180000       0.04473000
P        2.08228201       1.20221002       6.83918264      -0.00000000      -0.00000000      -0.00085000
P        4.19027208       2.41925805      10.19938227       0.01707000       0.00986000       0.03933000
P        4.14519457       4.82007382       0.02619417       0.09171000      -0.05294000      -0.06564000
P        6.24688837       5.97453824       3.46976377      -0.00001000       0.08357000       0.04476000
P        4.15642662       4.81358833       6.84532425      -0.04296000       0.02480000      -0.07881000
P        6.24689246       5.98149870      10.19939594      -0.00001000      -0.01970000       0.03926000
P        6.24690007       1.17981263       0.02619417       0.00000000       0.10589000      -0.06564000
P        8.29754303       2.42269972       3.46976377       0.07237000      -0.04180000       0.04476000
P        6.24689994       1.19278186       6.84532425      -0.00000000      -0.04960000      -0.07881000
P        8.30357344       2.41922229      10.19939594      -0.01707000       0.00984000       0.03925000
P        8.34854339       4.82003713       0.02620785      -0.09176000      -0.05297000      -0.06570000
P       10.41150583       6.01108844       3.40413471       0.00000000       0.00000000       0.08447000
P        8.33729897       4.81354466       6.84532425       0.04297000       0.02481000      -0.07880000