31
Lattice="8.329244 -8.7e-05 0.0 4.164548 7.213379 0.0 0.0 -1e-06 13.67842" Properties=species:S:1:pos:R:3:forces:R:3 config_type=Vacancy energy=-31222.80471108 pbc="T T T"
P        4.16460983       2.40444244       3.41950925       0.02556000       0.01476000      -0.09661000
P        2.08227368       1.20221002       6.83911425       0.00007000       0.00004000      -0.00971000
P        4.16462232       2.40444915      10.25871925       0.01523000       0.00880000      -0.00458000
P        4.16454768       4.80890002      -0.00009575       0.00222000      -0.00123000       0.00669000
P        6.24688799       6.01113915       3.41950925      -0.00006000      -0.02963000      -0.09661000
P        4.16455601       4.80889952       6.83911425      -0.02428000       0.01410000      -0.04889000
P        6.24689632       6.01113865      10.25871925      -0.00007000      -0.01771000      -0.00461000
P        6.24689568       1.20216702      -0.00009575       0.00005000       0.00254000       0.00669000
P        8.32924432       2.40440615       3.41950925      -0.02569000       0.01475000      -0.09660000
P        6.24690401       1.20216652       6.83911425       0.00006000      -0.02807000      -0.04889000
P        8.32924432       2.40440565      10.25871925      -0.01537000       0.00879000      -0.00461000
P        8.32917801       4.80885652      -0.00009575      -0.00211000      -0.00122000       0.00668000
P       10.41151832       6.01109565       3.41950925      -0.00007000      -0.00004000       0.00414000
P        8.32916968       4.80885602       6.83911425       0.02441000       0.01410000      -0.04890000
P       10.41151832       6.01109515      10.25871925      -0.00007000      -0.00004000      -0.01467000
In       2.08228617       1.20221755       2.56088747       0.00008000       0.00004000      -0.45210000
In       4.16460983       2.40444225       5.98049247      -0.00223000      -0.00129000       0.06275000
In       2.08229450       1.20221705       9.40009747       0.00007000       0.00004000      -0.01898000
In       4.16460150       2.40444175      12.81970247      -0.38951000      -0.22489000       0.26619000
In       4.16456017       4.80890705       2.56088747      -0.01395000       0.00814000      -0.04213000
In       6.24687550       6.01113175       5.98049247      -0.00008000       0.00244000       0.06275000
In       4.16456850       4.80890655       9.40009747      -0.01123000       0.00658000       0.02181000
In       6.24688383       6.01113125      12.81970247      -0.00009000       0.44984000       0.26624000
In       6.24691650       1.20217405       2.56088747       0.00007000      -0.01615000      -0.04213000
In       8.32922350       2.40439875       5.98049247       0.00207000      -0.00129000       0.06275000
In       6.24691650       1.20217355       9.40009747       0.00009000      -0.01301000       0.02181000
In       8.32923183       2.40439825      12.81970247       0.38953000      -0.22500000       0.26624000
In       8.32919050       4.80886355       2.56088747       0.01410000       0.00815000      -0.04216000
In      10.41150583       6.01108825       5.98049247      -0.00008000      -0.00005000      -0.01099000
In       8.32919050       4.80886305       9.40009747       0.01138000       0.00657000       0.02181000
In      10.41149750       6.01108775      12.81970247      -0.00010000      -0.00006000       0.00663000
31
Lattice="8.329244 -8.7e-05 0.0 4.164548 7.213379 0.0 0.0 -1e-06 13.67842" Properties=species:S:1:pos:R:3:forces:R:3 config_type=Vacancy energy=-31222.8061382 pbc="T T T"
P        4.16464731       2.40446408       3.41938615       0.02441000       0.01409000      -0.09605000
P        2.08227368       1.20221002       6.83911425       0.00006000       0.00004000      -0.00977000
P        4.16463481       2.40445637      10.25871925       0.01451000       0.00838000      -0.00299000
P        4.16455184       4.80889281      -0.00008207       0.00233000      -0.00129000       0.00610000
P        6.24688799       6.01109587       3.41938615      -0.00006000      -0.02829000      -0.09605000
P        4.16451436       4.80891395       6.83905954      -0.02397000       0.01392000      -0.04817000
P        6.24688799       6.01110980      10.25871925      -0.00007000      -0.01688000      -0.00301000
P        6.24689568       1.20216702      -0.00008207       0.00005000       0.00267000       0.00610000
P        8.32920267       2.40442058       3.41938615      -0.02454000       0.01409000      -0.09605000
P        6.24689568       1.20212324       6.83905954       0.00006000      -0.02771000      -0.04817000
P        8.32921517       2.40441287      10.25871925      -0.01465000       0.00837000      -0.00302000
P        8.32916551       4.80884931      -0.00008207      -0.00223000      -0.00128000       0.00609000
P       10.41151832       6.01109565       3.41952293      -0.00007000      -0.00004000       0.00428000
P        8.32920300       4.80887045       6.83905954       0.02410000       0.01392000      -0.04818000
P       10.41151832       6.01109515      10.25870557      -0.00006000      -0.00004000      -0.01451000
In       2.08228617       1.20221755       2.56029930       0.00008000       0.00004000      -0.44824000
In       4.16459733       2.40443504       5.98058822      -0.00254000      -0.00147000       0.06113000
In       2.08229450       1.20221705       9.40008379       0.00007000       0.00004000      -0.01886000
In       4.16408925       2.40414601      12.82005811      -0.38734000      -0.22363000       0.26413000
In       4.16453935       4.80891426       2.56083276      -0.01406000       0.00820000      -0.04191000
In       6.24687550       6.01113175       5.98058822      -0.00008000       0.00280000       0.06114000
In       4.16454768       4.80891376       9.40013851      -0.01105000       0.00647000       0.02162000
In       6.24687549       6.01172275      12.82005811      -0.00009000       0.44733000       0.26418000
In       6.24691234       1.20215241       2.56083276       0.00007000      -0.01628000      -0.04191000
In       8.32922766       2.40439154       5.98058822       0.00239000      -0.00147000       0.06114000
In       6.24691234       1.20215191       9.40013851       0.00009000      -0.01280000       0.02162000
In       8.32973991       2.40409528      12.82005811       0.38736000      -0.22374000       0.26418000
In       8.32920300       4.80887076       2.56083276       0.01421000       0.00821000      -0.04194000
In      10.41150583       6.01108825       5.98047879      -0.00007000      -0.00004000      -0.01160000
In       8.32920300       4.80887026       9.40013851       0.01120000       0.00647000       0.02163000
In      10.41149750       6.01108775      12.81971615      -0.00010000      -0.00006000       0.00709000
31
Lattice="8.329244 -8.7e-05 0.0 4.164548 7.213379 0.0 0.0 -1e-06 13.67842" Properties=species:S:1:pos:R:3:forces:R:3 config_type=Vacancy energy=-31222.92451822 pbc="T T T"
P        4.16941994       2.40721956       3.40134431      -0.13924000      -0.08039000      -0.01955000
P        2.08228617       1.20221724       6.83729502      -0.00014000      -0.00009000      -0.01648000
P        4.16748340       2.40610100      10.25785751      -0.09113000      -0.05262000       0.21346000
P        4.16497247       4.80866919       0.00116267       0.02145000      -0.01246000      -0.08371000
P        6.24687555       6.00556318       3.40134431       0.00014000       0.16100000      -0.01954000
P        4.15997906       4.81154690       6.82992235       0.02399000      -0.01403000       0.05800000
P        6.24687970       6.00780605      10.25785751       0.00015000       0.10549000       0.21353000
P        6.24690400       1.20264311       0.00116267      -0.00006000       0.02480000      -0.08371000
P        8.32440500       2.40717616       3.40134431       0.13950000      -0.08036000      -0.01954000
P        6.24690823       1.19687909       6.82992235      -0.00015000       0.02778000       0.05800000
P        8.32634989       2.40605756      10.25785751       0.09143000      -0.05260000       0.21353000
P        8.32877821       4.80862570       0.00116267      -0.02176000      -0.01257000      -0.08374000
P       10.41149750       6.01108844       3.42028892       0.00015000       0.00008000       0.02833000
P        8.33376323       4.81150330       6.82992235      -0.02429000      -0.01403000       0.05802000
P       10.41150583       6.01108794      10.25596989       0.00014000       0.00008000       0.00620000
In       2.08230700       1.20222477       2.47586241      -0.00010000      -0.00006000      -0.07908000
In       4.16418504       2.40419700       5.99229695      -0.04030000      -0.02326000      -0.13565000
In       2.08230700       1.20222426       9.39652740      -0.00012000      -0.00007000      -0.00181000
In       4.09134623       2.36214300      12.86977917      -0.11654000      -0.06728000       0.01924000
In       4.16193645       4.81043632       2.55296767      -0.03491000       0.02001000      -0.02463000
In       6.24686300       6.01158620       5.99229695       0.00013000       0.04674000      -0.13565000
In       4.16244870       4.81014007       9.40420100       0.00622000      -0.00375000       0.00410000
In       6.24686214       6.09573748      12.86979284       0.00011000       0.13464000       0.01920000
In       6.24692486       1.19912999       2.55296767      -0.00013000      -0.04024000      -0.02463000
In       8.32961497       2.40415349       5.99229695       0.04054000      -0.02326000      -0.13565000
In       6.24692486       1.19972099       9.40420100      -0.00014000       0.00727000       0.00410000
In       8.40249213       2.36207633      12.86979284       0.11665000      -0.06722000       0.01921000
In       8.33183919       4.81039277       2.55296767       0.03466000       0.02000000      -0.02464000
In      10.41148084       6.01107383       5.97842703       0.00012000       0.00007000      -0.10028000
In       8.33132694       4.81009652       9.40420100      -0.00649000      -0.00375000       0.00409000
In      10.41148084       6.01107333      12.82096089       0.00011000       0.00007000       0.06928000
31
Lattice="8.329244 -8.7e-05 0.0 4.164548 7.213379 0.0 0.0 -1e-06 13.67842" Properties=species:S:1:pos:R:3:forces:R:3 config_type=Vacancy energy=-31222.92892547 pbc="T T T"
P        4.17019455       2.40766678       3.39754171      -0.16920000      -0.09769000      -0.00692000
P        2.08229450       1.20221724       6.83688467      -0.00018000      -0.00011000      -0.01722000
P        4.16793318       2.40636067      10.25802165      -0.11261000      -0.06502000       0.25216000
P        4.16508908       4.80859706       0.00129945       0.02536000      -0.01473000      -0.10067000
P        6.24687973       6.00466150       3.39754171       0.00018000       0.19566000      -0.00690000
P        4.15907533       4.81207349       6.82810312       0.03393000      -0.01982000       0.07842000
P        6.24687554       6.00727947      10.25802165       0.00019000       0.13036000       0.25224000
P        6.24690817       1.20278017       0.00129945      -0.00008000       0.02933000      -0.10068000
P        8.32362205       2.40762340       3.39754171       0.16954000      -0.09765000      -0.00691000
P        6.24691240       1.19583314       6.82810312      -0.00019000       0.03928000       0.07842000
P        8.32589178       2.40631724      10.25802165       0.11299000      -0.06500000       0.25224000
P        8.32865327       4.80855357       0.00129945      -0.02575000      -0.01487000      -0.10071000
P       10.41149333       6.01108123       3.42049410       0.00019000       0.00011000       0.03175000
P        8.33467528       4.81202987       6.82810312      -0.03432000      -0.01982000       0.07844000
P       10.41149333       6.01108073      10.25540907       0.00018000       0.00010000       0.01120000
In       2.08230700       1.20222477       2.45809414      -0.00014000      -0.00007000      -0.00384000
In       4.16403511       2.40411044       5.99454021      -0.04635000      -0.02675000      -0.17252000
In       2.08230700       1.20222426       9.39578877      -0.00015000      -0.00010000       0.00156000
In       4.07595388       2.35325623      12.88018844      -0.05595000      -0.03230000      -0.02775000
In       4.16133674       4.81078257       2.55128522      -0.03816000       0.02184000      -0.02019000
In       6.24686300       6.01175932       5.99454021       0.00017000       0.05380000      -0.17252000
In       4.16201974       4.81039254       9.40506274       0.00974000      -0.00583000       0.00140000
In       6.24685779       6.11350414      12.88020212       0.00013000       0.06470000      -0.02780000
In       6.24692487       1.19843750       2.55128522      -0.00017000      -0.04397000      -0.02019000
In       8.32976490       2.40406693       5.99454021       0.04667000      -0.02675000      -0.17252000
In       6.24692903       1.19922326       9.40506274      -0.00019000       0.01135000       0.00140000
In       8.41787633       2.35318924      12.88020212       0.05610000      -0.03223000      -0.02779000
In       8.33244305       4.81074622       2.55128522       0.03784000       0.02183000      -0.02019000
In      10.41148084       6.01107383       5.97783886       0.00016000       0.00010000      -0.11566000
In       8.33176422       4.81034899       9.40506274      -0.01008000      -0.00583000       0.00139000
In      10.41148084       6.01107332      12.82133020       0.00015000       0.00009000       0.08033000
31
Lattice="8.329244 -8.7e-05 0.0 4.164548 7.213379 0.0 0.0 -1e-06 13.67842" Properties=species:S:1:pos:R:3:forces:R:3 config_type=Vacancy energy=-31222.92976936 pbc="T T T"
P        4.17004463       2.40758022       3.39710400      -0.16986000      -0.09807000      -0.00669000
P        2.08229450       1.20221724       6.83681628      -0.00019000      -0.00011000      -0.01680000
P        4.16782073       2.40629575      10.25840465      -0.11327000      -0.06540000       0.25335000
P        4.16513906       4.80856820       0.00116267       0.02580000      -0.01499000      -0.10098000
P        6.24687556       6.00484184       3.39710400       0.00018000       0.19642000      -0.00667000
P        4.15902119       4.81210956       6.82802105       0.03487000      -0.02036000       0.07901000
P        6.24687554       6.00740931      10.25839097       0.00019000       0.13112000       0.25343000
P        6.24690817       1.20283787       0.00116267      -0.00008000       0.02983000      -0.10098000
P        8.32378030       2.40753684       3.39710400       0.17020000      -0.09803000      -0.00668000
P        6.24690824       1.19576822       6.82802105      -0.00019000       0.04037000       0.07901000
P        8.32600423       2.40625232      10.25839097       0.11365000      -0.06538000       0.25344000
P        8.32860329       4.80852471       0.00116267      -0.02619000      -0.01512000      -0.10102000
P       10.41149333       6.01108123       3.42056249       0.00019000       0.00011000       0.03099000
P        8.33472942       4.81206594       6.82802105      -0.03526000      -0.02036000       0.07903000
P       10.41149333       6.01108073      10.25535436       0.00018000       0.00010000       0.01201000
In       2.08230700       1.20222477       2.45608342      -0.00014000      -0.00008000       0.00400000
In       4.16394766       2.40405995       5.99454021      -0.04628000      -0.02671000      -0.17443000
In       2.08230700       1.20222426       9.39570670      -0.00015000      -0.00010000       0.00175000
In       4.07414228       2.35221030      12.88132375      -0.04826000      -0.02786000      -0.03208000
In       4.16122013       4.81085471       2.55106637      -0.03747000       0.02144000      -0.01999000
In       6.24685883       6.01185309       5.99454021       0.00017000       0.05372000      -0.17443000
In       4.16199059       4.81041418       9.40515849       0.01058000      -0.00631000       0.00255000
In       6.24685777       6.11559603      12.88133743       0.00014000       0.05582000      -0.03212000
In       6.24692904       1.19830044       2.55106637      -0.00017000      -0.04317000      -0.01999000
In       8.32984403       2.40401643       5.99454021       0.04660000      -0.02671000      -0.17443000
In       6.24693319       1.19918719       9.40515849      -0.00019000       0.01232000       0.00255000
In       8.41968795       2.35214327      12.88133743       0.04841000      -0.02779000      -0.03211000
In       8.33256383       4.81081114       2.55106637       0.03714000       0.02142000      -0.02000000
In      10.41148084       6.01107383       5.97762000       0.00016000       0.00010000      -0.11436000
In       8.33178921       4.81036341       9.40515849      -0.01092000      -0.00631000       0.00254000
In      10.41148084       6.01107332      12.82148067       0.00015000       0.00009000       0.08014000
31
Lattice="8.329244 -8.7e-05 0.0 4.164548 7.213379 0.0 0.0 -1e-06 13.67842" Properties=species:S:1:pos:R:3:forces:R:3 config_type=Vacancy energy=-31222.93397046 pbc="T T T"
P        4.16863283       2.40676512       3.39308254      -0.17612000      -0.10169000      -0.00535000
P        2.08229450       1.20221724       6.83617339      -0.00019000      -0.00011000      -0.01358000
P        4.16680873       2.40571148      10.26186529      -0.11959000      -0.06905000       0.26482000
P        4.16559717       4.80830851      -0.00001368       0.02973000      -0.01726000      -0.10310000
P        6.24687555       6.00647207       3.39308254       0.00019000       0.20366000      -0.00533000
P        4.15852560       4.81239088       6.82717299       0.04360000      -0.02540000       0.08369000
P        6.24687136       6.00857067      10.26186529       0.00020000       0.13844000       0.26491000
P        6.24691233       1.20336445      -0.00001368      -0.00008000       0.03437000      -0.10311000
P        8.32519212       2.40672171       3.39309622       0.17648000      -0.10165000      -0.00534000
P        6.24691241       1.19519836       6.82717299      -0.00020000       0.05046000       0.08370000
P        8.32700791       2.40566802      10.26186529       0.11999000      -0.06904000       0.26491000
P        8.32815352       4.80826503      -0.00001368      -0.03013000      -0.01740000      -0.10315000
P       10.41149333       6.01108123       3.42119170       0.00019000       0.00011000       0.02415000
P        8.33522500       4.81234726       6.82715931      -0.04400000      -0.02541000       0.08371000
P       10.41149333       6.01108073      10.25491665       0.00019000       0.00011000       0.01923000
In       2.08230700       1.20222477       2.43767226      -0.00015000      -0.00008000       0.06573000
In       4.16318553       2.40361994       5.99459492      -0.04604000      -0.02657000      -0.19222000
In       2.08230700       1.20222426       9.39495438      -0.00016000      -0.00010000       0.00256000
In       4.05751304       2.34260941      12.89173303       0.01447000       0.00836000      -0.06655000
In       4.16009567       4.81150393       2.54906932      -0.03135000       0.01791000      -0.01938000
In       6.24685882       6.01273313       5.99459492       0.00017000       0.05345000      -0.19222000
In       4.16166991       4.81059452       9.40606126       0.01791000      -0.01055000       0.01305000
In       6.24685757       6.13479816      12.89174671       0.00020000      -0.01673000      -0.06659000
In       6.24692905       1.19700203       2.54906932      -0.00017000      -0.03610000      -0.01937000
In       8.33060616       2.40357641       5.99459492       0.04637000      -0.02657000      -0.19222000
In       6.24693319       1.19882652       9.40606126      -0.00019000       0.02078000       0.01305000
In       8.43631739       2.34254203      12.89174671      -0.01439000       0.00854000      -0.06658000
In       8.33368827       4.81146034       2.54905564       0.03102000       0.01789000      -0.01938000
In      10.41148084       6.01107383       5.97548617       0.00017000       0.00010000      -0.10293000
In       8.33211405       4.81055096       9.40606126      -0.01826000      -0.01055000       0.01304000
In      10.41148084       6.01107332      12.82291690       0.00015000       0.00009000       0.07980000
31
Lattice="8.329244 -8.7e-05 0.0 4.164548 7.213379 0.0 0.0 -1e-06 13.67842" Properties=species:S:1:pos:R:3:forces:R:3 config_type=Vacancy energy=-31222.94141086 pbc="T T T"
P        4.16605911       2.40527918       3.39228920      -0.15181000      -0.08765000      -0.01645000
P        2.08228617       1.20221724       6.83583143      -0.00015000      -0.00009000      -0.00901000
P        4.16508459       2.40471604      10.26595514      -0.10391000      -0.06000000       0.23782000
P        4.16602613       4.80805604      -0.00160038       0.03031000      -0.01757000      -0.08751000
P        6.24687552       6.00944400       3.39228920       0.00015000       0.17554000      -0.01644000
P        4.15891291       4.81216726       6.82808944       0.04345000      -0.02527000       0.06740000
P        6.24687550       6.01056879      10.26594146       0.00015000       0.12027000       0.23789000
P        6.24690816       1.20386218      -0.00160038      -0.00006000       0.03503000      -0.08751000
P        8.32776587       2.40523571       3.39228920       0.15210000      -0.08763000      -0.01645000
P        6.24691240       1.19564559       6.82808944      -0.00016000       0.05026000       0.06740000
P        8.32874873       2.40467255      10.26594146       0.10423000      -0.05999000       0.23789000
P        8.32771623       4.80801257      -0.00161405      -0.03064000      -0.01769000      -0.08755000
P       10.41149750       6.01108844       3.42173883       0.00016000       0.00009000       0.01237000
P        8.33483770       4.81212365       6.82808944      -0.04377000      -0.02527000       0.06742000
P       10.41150583       6.01108794      10.25501240       0.00015000       0.00009000       0.02226000
In       2.08230700       1.20222477       2.43445783      -0.00012000      -0.00007000       0.06115000
In       4.16242341       2.40317992       5.99221488      -0.03958000      -0.02284000      -0.17456000
In       2.08230700       1.20222426       9.39484496      -0.00013000      -0.00008000       0.00016000
In       4.05388984       2.34051755      12.89314191       0.02568000       0.01483000      -0.05943000
In       4.15938768       4.81190789       2.54842643      -0.02053000       0.01170000      -0.02365000
In       6.24686298       6.01362038       5.99221488       0.00014000       0.04593000      -0.17456000
In       4.16176153       4.81053681       9.40626644       0.02312000      -0.01351000       0.02897000
In       6.24686169       6.13898916      12.89315559       0.00019000      -0.02971000      -0.05946000
In       6.24692489       1.19618691       2.54842643      -0.00013000      -0.02363000      -0.02365000
In       8.33137662       2.40313638       5.99221488       0.03984000      -0.02284000      -0.17456000
In       6.24693319       1.19892751       9.40626644      -0.00015000       0.02678000       0.02897000
In       8.43994896       2.34045010      12.89315559      -0.02564000       0.01502000      -0.05945000
In       8.33439208       4.81187149       2.54842643       0.02027000       0.01168000      -0.02365000
In      10.41148084       6.01107383       5.97355751       0.00013000       0.00008000      -0.07236000
In       8.33201410       4.81049325       9.40626644      -0.02340000      -0.01351000       0.02896000
In      10.41148084       6.01107332      12.82427106       0.00012000       0.00007000       0.06759000
31
Lattice="8.329244 -8.7e-05 0.0 4.164548 7.213379 0.0 0.0 -1e-06 13.67842" Properties=species:S:1:pos:R:3:forces:R:3 config_type=Vacancy energy=-31222.96190934 pbc="T T T"
P        4.15052932       2.39631306       3.38743336      -0.00325000      -0.00188000      -0.08173000
P        2.08226951       1.20220281       6.83375231       0.00007000       0.00004000       0.01926000
P        4.15466477       2.39870016      10.29057629      -0.01021000      -0.00589000       0.06838000
P        4.16864986       4.80654119      -0.01120263       0.03391000      -0.01955000       0.00699000
P        6.24689615       6.02739821       3.38743336      -0.00007000       0.00371000      -0.08176000
P        4.16125761       4.81078948       6.83369760       0.04234000      -0.02435000      -0.03142000
P        6.24689204       6.02262963      10.29057629      -0.00008000       0.01169000       0.06838000
P        6.24689980       1.20689182      -0.01120263       0.00003000       0.03914000       0.00699000
P        8.34332499       2.39627648       3.38743336       0.00318000      -0.00193000      -0.08175000
P        6.24689155       1.19836505       6.83369760       0.00008000       0.04885000      -0.03142000
P        8.33919366       2.39865645      10.29057629       0.01009000      -0.00592000       0.06838000
P        8.32505506       4.80647614      -0.01120263      -0.03382000      -0.01953000       0.00697000
P       10.41151832       6.01109565       3.42496694      -0.00007000      -0.00004000      -0.06131000
P        8.33245138       4.81074591       6.83369760      -0.04218000      -0.02435000      -0.03142000
P       10.41151832       6.01109515      10.25553218      -0.00008000      -0.00005000       0.04092000
In       2.08229450       1.20221756       2.41499344       0.00001000       0.00001000       0.03304000
In       4.15777572       2.40049658       5.97786621      -0.00131000      -0.00076000      -0.06822000
In       2.08229450       1.20221705       9.39418839       0.00006000       0.00004000      -0.01312000
In       4.03202571       2.32789429      12.90166356       0.09374000       0.05412000      -0.01368000
In       4.15509393       4.81436771       2.54462383       0.04327000      -0.02489000      -0.04897000
In       6.24687125       6.01900160       5.97786621      -0.00008000       0.00138000      -0.06822000
In       4.16229877       4.81021220       9.40744278       0.05190000      -0.02987000       0.12512000
In       6.24686976       6.16425057      12.90167724       0.00009000      -0.10841000      -0.01365000
In       6.24690828       1.19123850       2.54462383       0.00008000       0.04991000      -0.04897000
In       8.33604102       2.40045294       5.97786621       0.00116000      -0.00076000      -0.06822000
In       6.24691236       1.19955508       9.40744278       0.00008000       0.05988000       0.12512000
In       8.46183001       2.32782638      12.90167724      -0.09385000       0.05428000      -0.01365000
In       8.33866080       4.81433123       2.54461015      -0.04313000      -0.02489000      -0.04900000
In      10.41149333       6.01108104       5.96184878      -0.00009000      -0.00005000       0.11473000
In       8.33145188       4.81016866       9.40744278      -0.05174000      -0.02987000       0.12514000
In      10.41148500       6.01108054      12.83242340      -0.00011000      -0.00007000      -0.00290000
31
Lattice="8.329244 -8.7e-05 0.0 4.164548 7.213379 0.0 0.0 -1e-06 13.67842" Properties=species:S:1:pos:R:3:forces:R:3 config_type=Vacancy energy=-31222.96450286 pbc="T T T"
P        4.15020448       2.39612552       3.39025111       0.01720000       0.00993000      -0.08977000
P        2.08226951       1.20220281       6.83410795       0.00010000       0.00006000       0.01826000
P        4.15448986       2.39859917      10.29013858       0.00410000       0.00237000       0.03923000
P        4.16855823       4.80658447      -0.01113423       0.03040000      -0.01750000       0.01761000
P        6.24689615       6.02778773       3.39025111      -0.00009000      -0.01994000      -0.08979000
P        4.16195727       4.81038552       6.83491498       0.03515000      -0.02018000      -0.04483000
P        6.24689620       6.02283882      10.29015226      -0.00010000      -0.00487000       0.03922000
P        6.24689980       1.20679083      -0.01113423       0.00004000       0.03508000       0.01761000
P        8.34366233       2.39608171       3.39025111      -0.01732000       0.00988000      -0.08979000
P        6.24689155       1.19917295       6.83491498       0.00010000       0.04053000      -0.04483000
P        8.33937691       2.39855546      10.29015226      -0.00427000       0.00234000       0.03922000
P        8.32514251       4.80652663      -0.01113423      -0.03026000      -0.01747000       0.01759000
P       10.41151832       6.01109565       3.42467969      -0.00010000      -0.00006000      -0.06079000
P        8.33175173       4.81034196       6.83491498      -0.03495000      -0.02018000      -0.04484000
P       10.41151832       6.01109515      10.25599725      -0.00011000      -0.00006000       0.03624000
In       2.08229450       1.20221756       2.42864451       0.00004000       0.00002000      -0.02430000
In       4.15796313       2.40060478       5.97634791       0.00190000       0.00109000      -0.04093000
In       2.08229450       1.20221705       9.39473553       0.00008000       0.00005000      -0.01534000
In       4.04400725       2.33481184      12.89371640       0.04547000       0.02625000       0.02409000
In       4.15566865       4.81403589       2.54588224       0.04332000      -0.02489000      -0.05224000
In       6.24687542       6.01879241       5.97634791      -0.00010000      -0.00236000      -0.04093000
In       4.16268192       4.80999580       9.40695036       0.04882000      -0.02807000       0.12494000