65
Lattice="11.80255 0.0 0.0 0.0 11.80255 0.0 0.0 0.0 11.80255" Properties=species:S:1:pos:R:3:forces:R:3 config_type=Interstitial energy=-64624.83663682 pbc="T T T"
P        1.47531875       1.47531875       4.42595625       0.01396000      -0.01397000      -0.08233000
P        4.42595625       1.47531875       1.47531875       0.68557000       0.68556000       0.68556000
P        1.47531875       4.42595625       1.47531875       0.01396000      -0.08233000      -0.01397000
P        4.42595625       4.42595625       4.42595625      -0.01422000      -0.00894000      -0.00894000
P        1.47531875       1.47531875      10.32723125      -0.68557000       0.68556000      -0.68557000
P        4.42595625       1.47531875       7.37659375      -0.01396000      -0.01397000       0.08233000
P        1.47531875       4.42595625       7.37659375       0.01421000      -0.00894000       0.00894000
P        4.42595625       4.42595625      10.32723125      -0.01396000      -0.08233000       0.01397000
P        1.47531875       7.37659375       4.42595625       0.01421000       0.00894000      -0.00894000
P        4.42595625       7.37659375       1.47531875      -0.01396000       0.08233000      -0.01397000
P        1.47531875      10.32723125       1.47531875      -0.68557000      -0.68557000       0.68556000
P        4.42595625      10.32723125       4.42595625      -0.01396000       0.01397000      -0.08233000
P        1.47531875       7.37659375      10.32723125       0.01396000       0.08233000       0.01397000
P        4.42595625       7.37659375       7.37659375      -0.01422000       0.00894000       0.00894000
P        1.47531875      10.32723125       7.37659375       0.01396000       0.01397000       0.08233000
P        4.42595625      10.32723125      10.32723125       0.68557000      -0.68556000      -0.68557000
P        7.37659375       1.47531875       4.42595625      -0.00895000      -0.01422000      -0.00894000
P       10.32723125       1.47531875       1.47531875       0.08234000      -0.01397000      -0.01397000
P        7.37659375       4.42595625       1.47531875      -0.00895000      -0.00894000      -0.01422000
P       10.32723125       4.42595625       4.42595625       0.01457000      -0.01457000      -0.01457000
P        7.37659375       1.47531875      10.32723125      -0.08234000      -0.01397000       0.01397000
P       10.32723125       1.47531875       7.37659375       0.00895000      -0.01422000       0.00894000
P        7.37659375       4.42595625       7.37659375      -0.01458000      -0.01457000       0.01457000
P       10.32723125       4.42595625      10.32723125       0.00895000      -0.00894000       0.01422000
P        7.37659375       7.37659375       4.42595625      -0.01458000       0.01457000      -0.01457000
P       10.32723125       7.37659375       1.47531875       0.00895000       0.00894000      -0.01422000
P        7.37659375      10.32723125       1.47531875      -0.08234000       0.01397000      -0.01397000
P       10.32723125      10.32723125       4.42595625       0.00895000       0.01422000      -0.00894000
P        7.37659375       7.37659375      10.32723125      -0.00895000       0.00894000       0.01422000
P       10.32723125       7.37659375       7.37659375       0.01457000       0.01457000       0.01457000
P        7.37659375      10.32723125       7.37659375      -0.00895000       0.01422000       0.00894000
P       10.32723125      10.32723125      10.32723125       0.08234000       0.01397000       0.01397000
In       0.00000000       0.00000000       0.00000000      -1.51904000      -0.00000000      -0.00000000
In       2.95063750       0.00000000       2.95063750       0.00000000      -0.00000000       1.51904000
In       0.00000000       2.95063750       2.95063750      -0.04696000       0.04696000       0.04697000
In       2.95063750       2.95063750       0.00000000       0.00001000       1.51904000      -0.00000000
In       0.00000000       0.00000000       5.90127500      -0.07766000      -0.00000000      -0.00000000
In       2.95063750       0.00000000       8.85191250       0.00001000      -0.00000000      -1.51903000
In       0.00000000       2.95063750       8.85191250      -0.30047000       0.30047000      -0.30046000
In       2.95063750       2.95063750       5.90127500       0.00001000       0.07767000      -0.00000000
In       0.00000000       5.90127500       0.00000000      -0.07766000      -0.00000000      -0.00000000
In       2.95063750       5.90127500       2.95063750       0.00001000      -0.00000000       0.07767000
In       0.00000000       8.85191250       2.95063750      -0.30047000      -0.30046000       0.30047000
In       2.95063750       8.85191250       0.00000000       0.00000000      -1.51903000      -0.00000000
In       0.00000000       5.90127500       5.90127500      -0.01558000      -0.00000000      -0.00000000
In       2.95063750       5.90127500       8.85191250       0.00000000      -0.00000000      -0.07766000
In       0.00000000       8.85191250       8.85191250      -0.04696000      -0.04696000      -0.04696000
In       2.95063750       8.85191250       5.90127500       0.00001000      -0.07766000      -0.00000000
In       5.90127500       0.00000000       0.00000000       1.51903000      -0.00000000      -0.00000000
In       8.85191250       0.00000000       2.95063750       0.00000000      -0.00000000       0.07767000
In       5.90127500       2.95063750       2.95063750       0.30046000       0.30047000       0.30047000
In       8.85191250       2.95063750       0.00000000       0.00000000       0.07767000      -0.00000000
In       5.90127500       0.00000000       5.90127500       0.07766000      -0.00000000      -0.00000000
In       8.85191250       0.00000000       8.85191250       0.00000000      -0.00000000      -0.07766000
In       5.90127500       2.95063750       8.85191250       0.04696000       0.04696000      -0.04696000
In       8.85191250       2.95063750       5.90127500       0.00000000       0.01559000      -0.00000000
In       5.90127500       5.90127500       0.00000000       0.07766000      -0.00000000      -0.00000000
In       8.85191250       5.90127500       2.95063750       0.00000000      -0.00000000       0.01559000
In       5.90127500       8.85191250       2.95063750       0.04696000      -0.04695000       0.04697000
In       8.85191250       8.85191250       0.00000000       0.00000000      -0.07766000      -0.00000000
In       5.90127500       5.90127500       5.90127500       0.01558000      -0.00000000      -0.00000000
In       8.85191250       5.90127500       8.85191250       0.00000000      -0.00000000      -0.01558000
In       5.90127500       8.85191250       8.85191250       0.30046000      -0.30046000      -0.30046000
In       8.85191250       8.85191250       5.90127500       0.00000000      -0.01558000      -0.00000000
In       2.95063750       0.00000000       0.00000000       0.00001000      -0.00000000      -0.00000000
65
Lattice="11.80255 0.0 0.0 0.0 11.80255 0.0 0.0 0.0 11.80255" Properties=species:S:1:pos:R:3:forces:R:3 config_type=Interstitial energy=-64624.86396164 pbc="T T T"
P        1.47534236       1.47529514       4.42585003       0.01021000      -0.01022000      -0.07616000
P        4.42686505       1.47622755       1.47622755       0.67192000       0.67192000       0.67192000
P        1.47534236       4.42585003       1.47529514       0.01021000      -0.07616000      -0.01022000
P        4.42593264       4.42594445       4.42594445      -0.01367000      -0.00746000      -0.00746000
P        1.47440995       1.47622755      10.32632245      -0.67193000       0.67192000      -0.67192000
P        4.42593264       1.47529514       7.37669997      -0.01022000      -0.01022000       0.07615000
P        1.47534236       4.42594445       7.37660555       0.01367000      -0.00746000       0.00746000
P        4.42593264       4.42585003      10.32725486      -0.01022000      -0.07616000       0.01022000
P        1.47534236       7.37660555       4.42594445       0.01367000       0.00746000      -0.00746000
P        4.42593264       7.37669997       1.47529514      -0.01022000       0.07615000      -0.01022000
P        1.47440995      10.32632245       1.47622755      -0.67193000      -0.67192000       0.67192000
P        4.42593264      10.32725486       4.42585003      -0.01022000       0.01022000      -0.07616000
P        1.47534236       7.37669997      10.32725486       0.01021000       0.07615000       0.01022000
P        4.42593264       7.37660555       7.37660555      -0.01367000       0.00746000       0.00746000
P        1.47534236      10.32725486       7.37669997       0.01021000       0.01022000       0.07615000
P        4.42686505      10.32632245      10.32632245       0.67192000      -0.67192000      -0.67192000
P        7.37658195       1.47529514       4.42594445      -0.00747000      -0.01368000      -0.00746000
P       10.32733747       1.47529514       1.47529514       0.07616000      -0.01022000      -0.01022000
P        7.37658195       4.42594445       1.47529514      -0.00747000      -0.00746000      -0.01368000
P       10.32725486       4.42593264       4.42593264       0.01414000      -0.01414000      -0.01414000
P        7.37648753       1.47529514      10.32725486      -0.07616000      -0.01022000       0.01022000
P       10.32724305       1.47529514       7.37660555       0.00747000      -0.01368000       0.00746000
P        7.37657014       4.42593264       7.37661736      -0.01415000      -0.01414000       0.01414000
P       10.32724305       4.42594445      10.32725486       0.00747000      -0.00747000       0.01367000
P        7.37657014       7.37661736       4.42593264      -0.01415000       0.01414000      -0.01414000
P       10.32724305       7.37660555       1.47529514       0.00747000       0.00746000      -0.01368000
P        7.37648753      10.32725486       1.47529514      -0.07616000       0.01022000      -0.01022000
P       10.32724305      10.32725486       4.42594445       0.00747000       0.01367000      -0.00747000
P        7.37658195       7.37660555      10.32725486      -0.00747000       0.00746000       0.01367000
P       10.32725486       7.37661736       7.37661736       0.01414000       0.01414000       0.01414000
P        7.37658195      10.32725486       7.37660555      -0.00747000       0.01367000       0.00746000
P       10.32733747      10.32725486      10.32725486       0.07616000       0.01022000       0.01022000
In      -0.00201824       0.00000000       0.00000000      -1.48830000      -0.00000000      -0.00000000
In       2.95063750       0.00000000       2.95265574       0.00000000      -0.00000000       1.48830000
In      -0.00005901       2.95069651       2.95069651      -0.04578000       0.04578000       0.04578000
In       2.95063750       2.95265574       0.00000000       0.00000000       1.48830000      -0.00000000
In      -0.00010622       0.00000000       5.90127500      -0.07652000      -0.00000000      -0.00000000
In       2.95063750       0.00000000       8.84989426       0.00000000      -0.00000000      -1.48829000
In      -0.00040129       2.95103879       8.85151121      -0.29975000       0.29975000      -0.29974000
In       2.95063750       2.95074372       5.90127500       0.00000000       0.07652000      -0.00000000
In      -0.00010622       5.90127500       0.00000000      -0.07652000      -0.00000000      -0.00000000
In       2.95063750       5.90127500       2.95074372       0.00000000      -0.00000000       0.07652000
In      -0.00040129       8.85151121       2.95103879      -0.29975000      -0.29974000       0.29975000
In       2.95063750       8.84989426       0.00000000       0.00000000      -1.48829000      -0.00000000
In      -0.00002361       5.90127500       5.90127500      -0.01408000      -0.00000000      -0.00000000
In       2.95063750       5.90127500       8.85180628       0.00000000      -0.00000000      -0.07651000
In      -0.00005901       8.85185349       8.85185349      -0.04578000      -0.04577000      -0.04577000
In       2.95063750       8.85180628       5.90127500       0.00000000      -0.07651000      -0.00000000
In       5.90329324       0.00000000       0.00000000       1.48829000      -0.00000000      -0.00000000
In       8.85191250       0.00000000       2.95074372       0.00000000      -0.00000000       0.07652000
In       5.90167629       2.95103879       2.95103879       0.29975000       0.29975000       0.29975000
In       8.85191250       2.95074372       0.00000000       0.00000000       0.07652000      -0.00000000
In       5.90138122       0.00000000       5.90127500       0.07652000      -0.00000000      -0.00000000
In       8.85191250       0.00000000       8.85180628       0.00001000      -0.00000000      -0.07651000
In       5.90133401       2.95069651       8.85185349       0.04578000       0.04578000      -0.04577000
In       8.85191250       2.95066111       5.90127500       0.00000000       0.01408000      -0.00000000
In       5.90138122       5.90127500       0.00000000       0.07652000      -0.00000000      -0.00000000
In       8.85191250       5.90127500       2.95066111       0.00000000      -0.00000000       0.01408000
In       5.90133401       8.85185349       2.95069651       0.04578000      -0.04577000       0.04578000
In       8.85191250       8.85180628       0.00000000       0.00001000      -0.07651000      -0.00000000
In       5.90129861       5.90127500       5.90127500       0.01407000      -0.00000000      -0.00000000
In       8.85191250       5.90127500       8.85188889       0.00000000      -0.00000000      -0.01407000
In       5.90167629       8.85151121       8.85151121       0.29975000      -0.29974000      -0.29974000
In       8.85191250       8.85188889       5.90127500       0.00000000      -0.01407000      -0.00000000
In       2.95063750       0.00000000       0.00000000       0.00001000      -0.00000000      -0.00000000
65
Lattice="11.80255 0.0 0.0 0.0 11.80255 0.0 0.0 0.0 11.80255" Properties=species:S:1:pos:R:3:forces:R:3 config_type=Interstitial energy=-64625.59380067 pbc="T T T"
P        1.47627476       1.47436274       4.42033824      -0.20672000       0.20672000       0.24867000
P        4.47270615       1.52206865       1.52206865       0.04251000       0.04251000       0.04251000
P        1.47627476       4.42033824       1.47436274      -0.20672000       0.24867000       0.20672000
P        4.42498844       4.42534252       4.42534252       0.01348000       0.07049000       0.07049000
P        1.42856885       1.52206865      10.28048135      -0.04251000       0.04250000      -0.04250000
P        4.42500024       1.47436274       7.38221176       0.20672000       0.20672000      -0.24867000
P        1.47628656       4.42534252       7.37720748      -0.01348000       0.07049000      -0.07049000
P        4.42500024       4.42033824      10.32818726       0.20672000       0.24867000      -0.20672000
P        1.47628656       7.37720748       4.42534252      -0.01348000      -0.07049000       0.07049000
P        4.42500024       7.38221176       1.47436274       0.20672000      -0.24867000       0.20672000
P        1.42856885      10.28048135       1.52206865      -0.04251000      -0.04250000       0.04250000
P        4.42500024      10.32818726       4.42033824       0.20672000      -0.20672000       0.24867000
P        1.47627476       7.38221176      10.32818726      -0.20672000      -0.24867000      -0.20672000
P        4.42498844       7.37720748       7.37720748       0.01348000      -0.07049000      -0.07049000
P        1.47627476      10.32818726       7.38221176      -0.20672000      -0.20672000      -0.24867000
P        4.47270615      10.28048135      10.28048135       0.04251000      -0.04251000      -0.04251000
P        7.37598002       1.47435094       4.42534252       0.07049000       0.01348000       0.07049000
P       10.33284926       1.47436274       1.47436274      -0.24867000       0.20672000       0.20672000
P        7.37598002       4.42534252       1.47435094       0.07049000       0.07049000       0.01348000
P       10.32822266       4.42496484       4.42496484      -0.00798000       0.00798000       0.00798000
P        7.37097574       1.47436274      10.32818726       0.24867000       0.20672000      -0.20672000
P       10.32784498       1.47435094       7.37720748      -0.07049000       0.01348000      -0.07049000
P        7.37560234       4.42496484       7.37758516       0.00798000       0.00798000      -0.00798000
P       10.32784498       4.42534252      10.32819906      -0.07049000       0.07049000      -0.01348000
P        7.37560234       7.37758516       4.42496484       0.00798000      -0.00798000       0.00798000
P       10.32784498       7.37720748       1.47435094      -0.07049000      -0.07049000       0.01348000
P        7.37097574      10.32818726       1.47436274       0.24867000      -0.20672000       0.20672000
P       10.32784498      10.32819906       4.42534252      -0.07049000      -0.01348000       0.07049000
P        7.37598002       7.37720748      10.32819906       0.07049000      -0.07049000      -0.01348000
P       10.32822266       7.37758516       7.37758516      -0.00798000      -0.00798000      -0.00798000
P        7.37598002      10.32819906       7.37720748       0.07049000      -0.01348000      -0.07049000
P       10.33284926      10.32818726      10.32818726      -0.24867000      -0.20672000      -0.20672000
In      -0.10359098       0.00000000       0.00000000      -0.08912000      -0.00000000      -0.00000000
In       2.95063750       0.00000000       3.05422848       0.00000000      -0.00000000       0.08912000
In      -0.00319849       2.95383599       2.95383599       0.01185000      -0.01185000      -0.01185000
In       2.95063750       3.05422848       0.00000000       0.00000000       0.08912000      -0.00000000
In      -0.00529934       0.00000000       5.90127500      -0.02590000      -0.00000000      -0.00000000
In       2.95063750       0.00000000       8.74832152      -0.00000000      -0.00000000      -0.08912000
In      -0.02048923       2.97112673       8.83142327      -0.28325000       0.28325000      -0.28325000
In       2.95063750       2.95593684       5.90127500       0.00000000       0.02590000      -0.00000000
In      -0.00529934       5.90127500       0.00000000      -0.02590000      -0.00000000      -0.00000000
In       2.95063750       5.90127500       2.95593684       0.00000000      -0.00000000       0.02590000
In      -0.02048923       8.83142327       2.97112673      -0.28325000      -0.28325000       0.28325000
In       2.95063750       8.74832152       0.00000000      -0.00000000      -0.08912000       0.00000000
In      -0.00106223       5.90127500       5.90127500       0.06376000      -0.00000000      -0.00000000
In       2.95063750       5.90127500       8.84661316       0.00000000      -0.00000000      -0.02590000
In      -0.00319849       8.84871401       8.84871401       0.01185000       0.01185000       0.01185000
In       2.95063750       8.84661316       5.90127500       0.00000000      -0.02590000      -0.00000000
In       6.00486598       0.00000000       0.00000000       0.08912000      -0.00000000      -0.00000000
In       8.85191250       0.00000000       2.95593684       0.00000000      -0.00000000       0.02590000
In       5.92176423       2.97112673       2.97112673       0.28325000       0.28325000       0.28325000
In       8.85191250       2.95593684       0.00000000       0.00000000       0.02590000      -0.00000000
In       5.90657434       0.00000000       5.90127500       0.02590000      -0.00000000      -0.00000000
In       8.85191250       0.00000000       8.84661316       0.00000000      -0.00000000      -0.02590000
In       5.90447349       2.95383599       8.84871401      -0.01185000      -0.01185000       0.01185000
In       8.85191250       2.95169973       5.90127500       0.00000000      -0.06376000      -0.00000000
In       5.90657434       5.90127500       0.00000000       0.02590000      -0.00000000      -0.00000000
In       8.85191250       5.90127500       2.95169973       0.00000000      -0.00000000      -0.06376000
In       5.90447349       8.84871401       2.95383599      -0.01185000       0.01185000      -0.01185000
In       8.85191250       8.84661316       0.00000000       0.00000000      -0.02590000      -0.00000000
In       5.90233723       5.90127500       5.90127500      -0.06376000      -0.00000000      -0.00000000
In       8.85191250       5.90127500       8.85085027       0.00000000      -0.00000000       0.06376000
In       5.92176423       8.83142327       8.83142327       0.28325000      -0.28325000      -0.28325000
In       8.85191250       8.85085027       5.90127500       0.00000000       0.06376000      -0.00000000
In       2.95063750       0.00000000       0.00000000      -0.00000000       0.00000000       0.00000000
65
Lattice="11.80255 0.0 0.0 0.0 11.80255 0.0 0.0 0.0 11.80255" Properties=species:S:1:pos:R:3:forces:R:3 config_type=Interstitial energy=-64625.60521251 pbc="T T T"
P        1.47606231       1.47457519       4.42014940      -0.22845000       0.22845000       0.27942000
P        4.47743897       1.52680147       1.52680147      -0.01629000      -0.01629000      -0.01629000
P        1.47606231       4.42014940       1.47457519      -0.22845000       0.27942000       0.22845000
P        4.42490582       4.42538973       4.42538973       0.01508000       0.07824000       0.07824000
P        1.42383603       1.52680147      10.27574853       0.01629000      -0.01629000       0.01630000
P        4.42521269       1.47457519       7.38240060       0.22845000       0.22845000      -0.27942000
P        1.47636918       4.42538973       7.37716027      -0.01508000       0.07824000      -0.07824000
P        4.42521269       4.42014940      10.32797481       0.22845000       0.27942000      -0.22845000
P        1.47636918       7.37716027       4.42538973      -0.01508000      -0.07824000       0.07824000
P        4.42521269       7.38240060       1.47457519       0.22845000      -0.27942000       0.22845000
P        1.42383603      10.27574853       1.52680147       0.01629000       0.01630000      -0.01629000
P        4.42521269      10.32797481       4.42014940       0.22845000      -0.22845000       0.27942000
P        1.47606231       7.38240060      10.32797481      -0.22845000      -0.27942000      -0.22845000
P        4.42490582       7.37716027       7.37716027       0.01508000      -0.07823000      -0.07823000
P        1.47606231      10.32797481       7.38240060      -0.22845000      -0.22845000      -0.27942000
P        4.47743897      10.27574853      10.27574853      -0.01629000       0.01629000       0.01629000
P        7.37602723       1.47426832       4.42538973       0.07823000       0.01507000       0.07824000
P       10.33303810       1.47457519       1.47457519      -0.27942000       0.22845000       0.22845000
P        7.37602723       4.42538973       1.47426832       0.07823000       0.07824000       0.01507000
P       10.32831708       4.42487042       4.42487042      -0.01035000       0.01035000       0.01035000
P        7.37078690       1.47457519      10.32797481       0.27942000       0.22845000      -0.22845000
P       10.32779777       1.47426832       7.37716027      -0.07823000       0.01507000      -0.07824000
P        7.37550792       4.42487042       7.37767958       0.01035000       0.01035000      -0.01035000
P       10.32779777       4.42538973      10.32828168      -0.07823000       0.07824000      -0.01507000
P        7.37550792       7.37767958       4.42487042       0.01035000      -0.01035000       0.01035000
P       10.32779777       7.37716027       1.47426832      -0.07823000      -0.07824000       0.01507000
P        7.37078690      10.32797481       1.47457519       0.27942000      -0.22845000       0.22845000
P       10.32779777      10.32828168       4.42538973      -0.07823000      -0.01507000       0.07824000
P        7.37602723       7.37716027      10.32828168       0.07823000      -0.07824000      -0.01507000
P       10.32831708       7.37767958       7.37767958      -0.01035000      -0.01035000      -0.01035000
P        7.37602723      10.32828168       7.37716027       0.07824000      -0.01507000      -0.07824000
P       10.33303810      10.32797481      10.32797481      -0.27942000      -0.22845000      -0.22845000
In      -0.11404804       0.00000000       0.00000000       0.03936000      -0.00000000      -0.00000000
In       2.95063750       0.00000000       3.06468554       0.00000000      -0.00000000      -0.03936000
In      -0.00350536       2.95414286       2.95414286       0.01664000      -0.01665000      -0.01665000
In       2.95063750       3.06468554       0.00000000      -0.00000000      -0.03936000      -0.00000000
In      -0.00586587       0.00000000       5.90127500      -0.02216000      -0.00000000      -0.00000000
In       2.95063750       0.00000000       8.73786446      -0.00000000      -0.00000000       0.03936000
In      -0.02294416       2.97358166       8.82896834      -0.27993000       0.27993000      -0.27993000
In       2.95063750       2.95650337       5.90127500      -0.00000000       0.02216000      -0.00000000
In      -0.00586587       5.90127500       0.00000000      -0.02216000      -0.00000000      -0.00000000
In       2.95063750       5.90127500       2.95650337      -0.00000000      -0.00000000       0.02216000
In      -0.02294416       8.82896834       2.97358166      -0.27993000      -0.27993000       0.27993000
In       2.95063750       8.73786446       0.00000000      -0.00000000       0.03936000       0.00000000
In      -0.00107403       5.90127500       5.90127500       0.07012000      -0.00000000      -0.00000000
In       2.95063750       5.90127500       8.84604663       0.00000000      -0.00000000      -0.02216000
In      -0.00350536       8.84840714       8.84840714       0.01664000       0.01665000       0.01664000
In       2.95063750       8.84604663       5.90127500      -0.00000000      -0.02216000      -0.00000000
In       6.01532304       0.00000000       0.00000000      -0.03936000      -0.00000000       0.00000000
In       8.85191250       0.00000000       2.95650337       0.00000000      -0.00000000       0.02216000
In       5.92421916       2.97358166       2.97358166       0.27993000       0.27993000       0.27993000
In       8.85191250       2.95650337       0.00000000       0.00000000       0.02216000      -0.00000000
In       5.90714087       0.00000000       5.90127500       0.02216000      -0.00000000      -0.00000000
In       8.85191250       0.00000000       8.84604663      -0.00000000      -0.00000000      -0.02216000
In       5.90478036       2.95414286       8.84840714      -0.01665000      -0.01665000       0.01665000
In       8.85191250       2.95171153       5.90127500      -0.00000000      -0.07012000      -0.00000000
In       5.90714087       5.90127500       0.00000000       0.02216000      -0.00000000      -0.00000000
In       8.85191250       5.90127500       2.95171153      -0.00000000      -0.00000000      -0.07012000
In       5.90478036       8.84840714       2.95414286      -0.01665000       0.01665000      -0.01665000
In       8.85191250       8.84604663       0.00000000      -0.00000000      -0.02216000      -0.00000000
In       5.90234903       5.90127500       5.90127500      -0.07012000      -0.00000000      -0.00000000
In       8.85191250       5.90127500       8.85083847       0.00000000      -0.00000000       0.07012000
In       5.92421916       8.82896834       8.82896834       0.27992000      -0.27992000      -0.27992000
In       8.85191250       8.85083847       5.90127500       0.00000000       0.07012000      -0.00000000
In       2.95063750       0.00000000       0.00000000      -0.00000000       0.00000000       0.00000000
65
Lattice="11.80255 0.0 0.0 0.0 11.80255 0.0 0.0 0.0 11.80255" Properties=species:S:1:pos:R:3:forces:R:3 config_type=Interstitial energy=-64625.60664082 pbc="T T T"
P        1.47596789       1.47466961       4.42005498      -0.23898000       0.23898000       0.29410000
P        4.47968146       1.52904396       1.52904396      -0.04385000      -0.04385000      -0.04385000
P        1.47596789       4.42005498       1.47466961      -0.23898000       0.29410000       0.23898000
P        4.42487042       4.42541333       4.42541333       0.01583000       0.08195000       0.08195000
P        1.42159354       1.52904396      10.27350604       0.04386000      -0.04386000       0.04386000
P        4.42530711       1.47466961       7.38249502       0.23898000       0.23898000      -0.29410000
P        1.47640458       4.42541333       7.37713667      -0.01583000       0.08195000      -0.08195000
P        4.42530711       4.42005498      10.32788039       0.23898000       0.29410000      -0.23898000
P        1.47640458       7.37713667       4.42541333      -0.01583000      -0.08195000       0.08195000
P        4.42530711       7.38249502       1.47466961       0.23898000      -0.29410000       0.23898000
P        1.42159354      10.27350604       1.52904396       0.04386000       0.04386000      -0.04386000
P        4.42530711      10.32788039       4.42005498       0.23898000      -0.23898000       0.29410000
P        1.47596789       7.38249502      10.32788039      -0.23898000      -0.29410000      -0.23898000
P        4.42487042       7.37713667       7.37713667       0.01583000      -0.08195000      -0.08195000
P        1.47596789      10.32788039       7.38249502      -0.23898000      -0.23898000      -0.29410000
P        4.47968146      10.27350604      10.27350604      -0.04385000       0.04385000       0.04385000
P        7.37605083       1.47423292       4.42541333       0.08195000       0.01583000       0.08195000