65
Lattice="11.801682 -8e-06 -8e-06 -8e-06 11.801682 -8e-06 -8e-06 -8e-06 11.801682" Properties=species:S:1:pos:R:3:forces:R:3 config_type=Interstitial energy=-63090.1798021 pbc="T T T"
P        1.39343237       1.46195299       4.47192681      -0.00885000      -0.02122000       0.01901000
P        3.95063366       2.20647370       2.20647370       0.00463000      -0.00047000      -0.00047000
P        1.39343237       4.47192681       1.46195299      -0.00884000       0.01901000      -0.02122000
P        4.45824453       4.47665517       4.47665517       0.02879000       0.04770000       0.04771000
P        1.39367631       1.44323161      10.23514841      -0.00912000       0.01563000      -0.01402000
P        4.41704496       1.45263746       7.35338804      -0.00862000      -0.00348000      -0.00286000
P        1.46892380       4.39497581       7.34443057       0.00240000      -0.00134000       0.01151000
P        4.41574277       4.38584909      10.32085998       0.00361000       0.02666000      -0.02773000
P        1.46892380       7.34443057       4.39497581       0.00240000       0.01151000      -0.00134000
P        4.41704496       7.35338804       1.45263746      -0.00862000      -0.00286000      -0.00348000
P        1.39367631      10.23514841       1.44323161      -0.00912000      -0.01402000       0.01563000
P        4.41574277      10.32085998       4.38584909       0.00361000      -0.02773000       0.02666000
P        1.46916761       7.36234151      10.31174907       0.00263000      -0.01661000      -0.00392000
P        4.37128584       7.35306543       7.35306543       0.01284000      -0.00444000      -0.00444000
P        1.46916761      10.31174907       7.36234151       0.00263000      -0.00392000      -0.01662000
P        4.45849637      10.22958179      10.22958179       0.02632000      -0.04660000      -0.04661000
P        7.43271895       1.42652027       4.43695436      -0.01198000       0.02057000      -0.00162000
P       10.34224863       1.45272005       1.45272005      -0.00578000      -0.00363000      -0.00363000
P        7.43271895       4.43695436       1.42652027      -0.01198000      -0.00162000       0.02057000
P       10.31226833       4.41942488       4.41942488      -0.00667000      -0.00071000      -0.00071000
P        7.43290379       1.47849092      10.26975863      -0.01179000      -0.01717000       0.01018000
P       10.28004977       1.45253907       7.35337227       0.01621000      -0.00478000      -0.00425000
P        7.35753823       4.41508187       7.36756966      -0.00930000      -0.00573000      -0.00282000
P       10.33192596       4.41931467      10.28746899       0.00356000      -0.00864000       0.00679000
P        7.35753823       7.36756966       4.41508187      -0.00930000      -0.00282000      -0.00573000
P       10.28004977       7.35337227       1.45253907       0.01621000      -0.00425000      -0.00478000
P        7.43290379      10.26975863       1.47849092      -0.01179000       0.01017000      -0.01717000
P       10.33192596      10.28746899       4.41931467       0.00356000       0.00679000      -0.00864000
P        7.35752246       7.33901741      10.29155241      -0.01126000      -0.00059000       0.00078000
P       10.31799997       7.35346265       7.35346265      -0.00966000      -0.00300000      -0.00300000
P        7.35752246      10.29155241       7.33901741      -0.01126000       0.00077000      -0.00059000
P       10.31235479      10.28750043      10.28750043      -0.00804000      -0.00223000      -0.00223000
P        3.95060030       0.69728743       0.69728743       0.00423000       0.00076000       0.00076000
In      -0.01831616      -0.03885110      -0.03885110       0.00630000       0.01754000       0.01754000
In       2.75829895      -0.11765489       3.02309347       0.05735000       0.04437000      -0.04147000
In      -0.01827300       2.94426984       2.94426984       0.00606000      -0.01545000      -0.01545000
In       2.75829895       3.02309347      -0.11765489       0.05735000      -0.04147000       0.04437000
In      -0.04520444      -0.02700623       5.92335866      -0.01166000       0.00684000       0.02339000
In       2.96714931      -0.03213219       8.84475678      -0.01937000      -0.01342000      -0.00651000
In      -0.04517298       2.93199215       8.78363591      -0.01181000      -0.00463000      -0.02092000
In       2.96693689       2.93722023       5.86210388      -0.01912000       0.01590000       0.00890000
In      -0.04520444       5.92335866      -0.02700623      -0.01166000       0.02339000       0.00684000
In       2.96693689       5.86210388       2.93722023      -0.01913000       0.00890000       0.01589000
In      -0.04517298       8.78363591       2.93199215      -0.01181000      -0.02092000      -0.00463000
In       2.96714931       8.84475678      -0.03213219      -0.01937000      -0.00652000      -0.01342000
In       0.00167966       5.88668679       5.88668679       0.01353000      -0.00470000      -0.00470000
In       2.92886066       5.86638391       8.84020916      -0.01669000       0.00537000      -0.00271000
In       0.00181730       8.82025250       8.82025250       0.01342000       0.00699000       0.00699000
In       2.92886066       8.84020916       5.86638391      -0.01669000      -0.00271000       0.00537000
In       6.10047848      -0.16810718      -0.16810718      -0.03418000       0.01078000       0.01078000
In       8.89379279      -0.02915817       2.93426979       0.00923000      -0.00036000       0.00279000
In       6.10012004       3.07282133       3.07282133      -0.03453000      -0.00907000      -0.00907000
In       8.89379279       2.93426979      -0.02915817       0.00923000       0.00279000      -0.00036000
In       5.88781977      -0.01219911       5.87797716       0.00883000      -0.00974000      -0.00871000
In       8.84636966      -0.04508259       8.80688121       0.00744000       0.01654000      -0.00694000
In       5.88799281       2.91723600       8.82885594       0.00835000       0.01197000       0.01089000
In       8.84636960       2.95002105       5.89978265       0.00707000      -0.01407000       0.00916000
In       5.88781977       5.87797716      -0.01219911       0.00883000      -0.00871000      -0.00974000
In       8.84636960       5.89978265       2.95002105       0.00707000       0.00916000      -0.01407000
In       5.88799281       8.82885594       2.91723600       0.00835000       0.01089000       0.01197000
In       8.84636966       8.80688121      -0.04508259       0.00743000      -0.00694000       0.01654000
In       5.88844119       5.93158817       5.93158817       0.01518000       0.00025000       0.00025000
In       8.84543330       5.87779214       8.82881652      -0.00113000      -0.00070000       0.00339000
In       5.88841373       8.77454063       8.77454063       0.01556000       0.00267000       0.00267000
In       8.84543330       8.82881652       5.87779214      -0.00113000       0.00339000      -0.00070000
65
Lattice="11.801682 -8e-06 -8e-06 -8e-06 11.801682 -8e-06 -8e-06 -8e-06 11.801682" Properties=species:S:1:pos:R:3:forces:R:3 config_type=Interstitial energy=-63090.21376674 pbc="T T T"
P        1.39324355       1.46045417       4.47409832       0.00491000      -0.01053000      -0.00398000
P        3.95227409       2.20706378       2.20706378      -0.01816000      -0.00537000      -0.00537000
P        1.39324355       4.47409832       1.46045417       0.00490000      -0.00398000      -0.01053000
P        4.46059306       4.48285104       4.48285104      -0.01649000      -0.00962000      -0.00962000
P        1.39342848       1.44415214      10.23361419       0.00581000       0.01261000       0.00371000
P        4.41574677       1.45225980       7.35322282       0.00388000       0.00046000       0.00126000
P        1.46884118       4.39523544       7.34574056      -0.01124000       0.00613000       0.00814000
P        4.41689934       4.38845726      10.31825181      -0.01377000       0.00470000      -0.00543000
P        1.46884118       7.34574056       4.39523544      -0.01124000       0.00814000       0.00613000
P        4.41574677       7.35322282       1.45225980       0.00388000       0.00126000       0.00046000
P        1.39342848      10.23361419       1.44415214       0.00582000       0.00371000       0.01261000
P        4.41689934      10.31825181       4.38845726      -0.01377000      -0.00543000       0.00470000
P        1.46907320       7.36044144      10.31071052      -0.01008000      -0.00669000      -0.00562000
P        4.37289087       7.35254615       7.35254615      -0.00618000       0.00135000       0.00135000
P        1.46907320      10.31071052       7.36044144      -0.01008000      -0.00562000      -0.00669000
P        4.46050266      10.22363374      10.22363374      -0.01268000       0.00618000       0.00618000
P        7.43099591       1.42872718       4.43710778      -0.00069000       0.00150000      -0.00850000
P       10.34176476       1.45246041       1.45246041      -0.00566000       0.00023000       0.00023000
P        7.43099591       4.43710778       1.42872718      -0.00069000      -0.00850000       0.00150000
P       10.31176086       4.41917705       4.41917705       0.00129000      -0.00371000      -0.00371000
P        7.43118074       1.47686229      10.27083258       0.00039000      -0.00260000       0.00733000
P       10.28147777       1.45197259       7.35300641      -0.00536000       0.00036000       0.00047000
P        7.35681832       4.41471601       7.36782930       0.00866000      -0.00756000      -0.00257000
P       10.33200857       4.41848856      10.28810628       0.00473000      -0.00156000       0.00088000
P        7.35681832       7.36782930       4.41471601       0.00866000      -0.00257000      -0.00756000
P       10.28147777       7.35300641       1.45197259      -0.00536000       0.00047000       0.00036000
P        7.43118074      10.27083258       1.47686229       0.00039000       0.00733000      -0.00260000
P       10.33200857      10.28810628       4.41848856       0.00474000       0.00088000      -0.00155000
P        7.35655472       7.33848633      10.29136359       0.00907000       0.00390000       0.00794000
P       10.31703224       7.35304960       7.35304960       0.00217000       0.00011000       0.00011000
P        7.35655472      10.29136359       7.33848633       0.00907000       0.00795000       0.00390000
P       10.31164669      10.28741782      10.28741782       0.00312000       0.00354000       0.00354000
P        3.95216993       0.69709860       0.69709860      -0.01953000       0.00612000       0.00613000
In      -0.01758446      -0.03730508      -0.03730508       0.00711000       0.00114000       0.00114000
In       2.76473087      -0.11377214       3.01963557       0.02589000       0.00718000      -0.00749000
In      -0.01750588       2.94288904       2.94288904       0.01039000      -0.00363000      -0.00363000
In       2.76473087       3.01963557      -0.11377214       0.02589000      -0.00749000       0.00718000
In      -0.04629020      -0.02661678       5.92565999      -0.00084000      -0.01190000      -0.00328000
In       2.96515483      -0.03469315       8.84277410      -0.00177000      -0.00365000       0.00525000
In      -0.04628233       2.93141387       8.78149980      -0.00201000       0.00794000       0.00303000
In       2.96502501       2.93979300       5.86439340       0.00145000       0.00380000      -0.00659000
In      -0.04629020       5.92565999      -0.02661678      -0.00083000      -0.00328000      -0.01190000
In       2.96502501       5.86439340       2.93979300       0.00146000      -0.00659000       0.00380000
In      -0.04628233       8.78149980       2.93141387      -0.00201000       0.00303000       0.00794000
In       2.96515483       8.84277410      -0.03469315      -0.00177000       0.00525000      -0.00365000
In       0.00283623       5.88633274       5.88633274      -0.00137000      -0.00368000      -0.00368000
In       2.92753887       5.86700940       8.83951286      -0.00017000       0.00521000      -0.00677000
In       0.00291486       8.82044133       8.82044133      -0.00358000       0.00317000       0.00317000
In       2.92753887       8.83951286       5.86700940      -0.00017000      -0.00677000       0.00521000
In       6.09687897      -0.16790655      -0.16790655      -0.00670000      -0.01979000      -0.01978000
In       8.89407603      -0.02878052       2.93438781      -0.00869000       0.00244000       0.00286000
In       6.09655593       3.07324619       3.07324619      -0.00447000       0.01970000       0.01970000
In       8.89407603       2.93438781      -0.02878052      -0.00869000       0.00287000       0.00244000
In       5.88844526      -0.01333207       5.87729266      -0.00173000       0.00639000       0.00094000
In       8.84680633      -0.04370179       8.80611410      -0.00478000       0.00018000       0.00215000
In       5.88859469       2.91854598       8.82995349      -0.00288000      -0.00862000      -0.00197000
In       8.84684167       2.94869926       5.90084481       0.00030000       0.00272000       0.00012000
In       5.88844526       5.87729266      -0.01333207      -0.00173000       0.00094000       0.00639000
In       8.84684167       5.90084481       2.94869926       0.00030000       0.00012000       0.00272000
In       5.88859469       8.82995349       2.91854598      -0.00288000      -0.00197000      -0.00862000
In       8.84680633       8.80611410      -0.04370179      -0.00477000       0.00215000       0.00017000
In       5.89027045       5.93263852       5.93263852       0.03703000       0.01684000       0.01683000
In       8.84504385       5.87737908       8.82924138       0.00076000      -0.00294000       0.00316000
In       5.89016038       8.77358469       8.77358469       0.03003000      -0.01711000      -0.01711000
In       8.84504385       8.82924138       5.87737908       0.00076000       0.00316000      -0.00294000
65
Lattice="11.801682 -8e-06 -8e-06 -8e-06 11.801682 -8e-06 -8e-06 -8e-06 11.801682" Properties=species:S:1:pos:R:3:forces:R:3 config_type=Interstitial energy=-63090.21469811 pbc="T T T"
P        1.39403426       1.45848329       4.47390950       0.00288000      -0.00272000      -0.00065000
P        3.95055105       2.20686315       2.20686315       0.00433000       0.01674000       0.01675000
P        1.39403426       4.47390950       1.45848329       0.00288000      -0.00065000      -0.00272000
P        4.45988495       4.48414923       4.48414923      -0.00154000       0.00968000       0.00968000
P        1.39413658       1.44604041      10.23390923       0.00352000       0.00384000       0.00143000
P        4.41564056       1.45211818       7.35327003      -0.00415000       0.00058000       0.00090000
P        1.46729516       4.39627399       7.34688532      -0.00093000      -0.00096000      -0.00611000
P        4.41587259       4.38966104      10.31688282       0.00097000       0.00091000      -0.00078000
P        1.46729516       7.34688532       4.39627399      -0.00093000      -0.00611000      -0.00096000
P        4.41564056       7.35327003       1.45211818      -0.00415000       0.00090000       0.00058000
P        1.39413658      10.23390923       1.44604041       0.00352000       0.00143000       0.00384000
P        4.41587259      10.31688282       4.38966104       0.00097000      -0.00078000       0.00091000
P        1.46753898       7.35919046      10.30936513      -0.00002000       0.00802000       0.00050000
P        4.37376419       7.35248714       7.35248714      -0.00352000      -0.00027000      -0.00027000
P        1.46753898      10.30936513       7.35919046      -0.00002000       0.00050000       0.00802000
P        4.45977096      10.22196971      10.22196971      -0.00253000      -0.00768000      -0.00768000
P        7.42999276       1.43015519       4.43645869       0.00101000      -0.00433000      -0.00231000
P       10.34097405       1.45247222       1.45247222      -0.00408000       0.00061000       0.00061000
P        7.42999276       4.43645869       1.43015519       0.00102000      -0.00231000      -0.00433000
P       10.31197329       4.41853976       4.41853976       0.00700000      -0.00659000      -0.00659000
P        7.43009499       1.47561131      10.27190654       0.00208000       0.00585000       0.00355000
P       10.28125354       1.45181916       7.35300641       0.00065000      -0.00065000       0.00094000
P        7.35849416       4.41378368       7.36791191       0.00323000      -0.00729000       0.00969000
P       10.33248064       4.41806370      10.28846033      -0.00977000      -0.00485000       0.00393000
P        7.35849416       7.36791191       4.41378368       0.00323000       0.00969000      -0.00729000
P       10.28125354       7.35300641       1.45181916       0.00065000       0.00094000      -0.00065000
P        7.43009499      10.27190654       1.47561131       0.00208000       0.00356000       0.00585000
P       10.33248064      10.28846033       4.41806370      -0.00977000       0.00393000      -0.00486000
P        7.35798273       7.33854534      10.29218970       0.00488000      -0.00672000       0.00694000
P       10.31718566       7.35294338       7.35294338      -0.00203000       0.00026000       0.00026000
P        7.35798273      10.29218970       7.33854534       0.00488000       0.00694000      -0.00672000
P       10.31165849      10.28803151      10.28803151       0.00650000       0.00547000       0.00547000
P        3.95023445       0.69742905       0.69742905       0.00140000      -0.01600000      -0.01600000
In      -0.01645150      -0.03619572      -0.03619572       0.00684000      -0.00420000      -0.00420000
In       2.76921550      -0.11191927       3.01781810       0.00360000      -0.01150000       0.01105000
In      -0.01588905       2.94160266       2.94160266       0.00818000       0.00283000       0.00283000
In       2.76921550       3.01781810      -0.11191927       0.00360000       0.01105000      -0.01150000
In      -0.04684487      -0.02812739       5.92582521       0.00238000       0.00283000      -0.00747000
In       2.96399827      -0.03592052       8.84279771      -0.00424000       0.00394000      -0.00138000
In      -0.04699044       2.93244062       8.78140539       0.00203000      -0.00421000       0.00656000
In       2.96432871       2.94091416       5.86425178      -0.00329000      -0.00415000       0.00119000
In      -0.04684487       5.92582521      -0.02812739       0.00238000      -0.00747000       0.00283000
In       2.96432871       5.86425178       2.94091416      -0.00329000       0.00119000      -0.00415000
In      -0.04699044       8.78139359       2.93244062       0.00203000       0.00656000      -0.00421000
In       2.96399827       8.84279771      -0.03592052      -0.00424000      -0.00137000       0.00394000
In       0.00274181       5.88591968       5.88591968      -0.00977000      -0.00264000      -0.00265000
In       2.92670095       5.86790633       8.83836810       0.00387000       0.00181000      -0.00356000
In       0.00247820       8.82075997       8.82075997      -0.01137000       0.00227000       0.00227000
In       2.92670095       8.83836810       5.86790633       0.00387000      -0.00356000       0.00181000
In       6.09418819      -0.17006625      -0.17006625      -0.00854000      -0.01307000      -0.01307000
In       8.89293127      -0.02811962       2.93455303      -0.00681000       0.00035000       0.00076000
In       6.09425460       3.07557112       3.07557112      -0.00673000       0.01148000       0.01149000
In       8.89293127       2.93455303      -0.02811962      -0.00682000       0.00076000       0.00035000
In       5.88849247      -0.01281280       5.87712744      -0.00430000       0.00157000      -0.00020000
In       8.84651128      -0.04317072       8.80630293       0.00159000      -0.00012000       0.00980000
In       5.88852388       2.91779067       8.83017773      -0.00406000      -0.00341000      -0.00140000
In       8.84726653       2.94854584       5.90112805       0.00369000       0.00073000      -0.01018000
In       5.88849247       5.87712744      -0.01281280      -0.00430000      -0.00020000       0.00157000
In       8.84726653       5.90112805       2.94854584       0.00369000      -0.01018000       0.00073000
In       5.88852388       8.83017773       2.91779067      -0.00406000      -0.00140000      -0.00341000
In       8.84651128       8.80630293      -0.04317072       0.00159000       0.00980000      -0.00012000
In       5.89565202       5.93472741       5.93472741       0.00551000      -0.00269000      -0.00269000
In       8.84581096       5.87682440       8.82991408       0.00358000       0.00066000       0.00011000
In       5.89463323       8.77149579       8.77149579       0.00557000       0.00033000       0.00033000
In       8.84581096       8.82991408       5.87682440       0.00358000       0.00011000       0.00066000
65
Lattice="11.801682 -8e-06 -8e-06 -8e-06 11.801682 -8e-06 -8e-06 -8e-06 11.801682" Properties=species:S:1:pos:R:3:forces:R:3 config_type=Interstitial energy=-63090.21517637 pbc="T T T"
P        1.39506101       1.45693727       4.47402751       0.00431000       0.00388000      -0.00531000
P        3.95037402       2.20866881       2.20866881      -0.00472000      -0.03020000      -0.03020000
P        1.39506101       4.47402751       1.45693727       0.00431000      -0.00531000       0.00389000
P        4.45934207       4.48666299       4.48666299      -0.00533000       0.00837000       0.00837000
P        1.39510432       1.44757463      10.23398004       0.00381000      -0.00393000       0.00611000
P        4.41467282       1.45205917       7.35341165      -0.00316000      -0.00067000      -0.00037000
P        1.46619761       4.39648642       7.34674370      -0.00020000       0.00024000      -0.00297000
P        4.41550674       4.39068779      10.31570265       0.01130000       0.00268000      -0.00258000
P        1.46619761       7.34674370       4.39648642      -0.00020000      -0.00297000       0.00024000
P        4.41467282       7.35341165       1.45205917      -0.00316000      -0.00037000      -0.00067000
P        1.39510432      10.23398004       1.44757463       0.00381000       0.00611000      -0.00393000
P        4.41550674      10.31570265       4.39068779       0.01130000      -0.00258000       0.00268000
P        1.46651224       7.35943830      10.30877505       0.00098000       0.00321000      -0.00129000
P        4.37415365       7.35232192       7.35232192       0.00825000      -0.00076000      -0.00076000
P        1.46651224      10.30877505       7.35943830       0.00098000      -0.00129000       0.00320000
P        4.45894484      10.21950316      10.21950316      -0.00531000      -0.00899000      -0.00899000
P        7.42923745       1.43080428       4.43592761      -0.00386000      -0.00083000       0.00274000
P       10.34010072       1.45256663       1.45256663       0.00443000       0.00010000       0.00010000
P        7.42923745       4.43592761       1.43080428      -0.00386000       0.00274000      -0.00083000
P       10.31321247       4.41701734       4.41701734       0.00192000      -0.00310000      -0.00310000
P        7.42932788       1.47524546      10.27293328      -0.00376000       0.00220000      -0.00041000
P       10.28153678       1.45158313       7.35313623       0.00136000      -0.00090000      -0.00004000
P        7.35991036       4.41216685       7.36911568       0.00050000      -0.00130000       0.00261000
P       10.33150110       4.41690713      10.28948708      -0.00417000      -0.00274000       0.00176000
P        7.35991036       7.36911568       4.41216685       0.00050000       0.00261000      -0.00130000
P       10.28153678       7.35313623       1.45158313       0.00136000      -0.00004000      -0.00090000
P        7.42932788      10.27293328       1.47524546      -0.00376000      -0.00041000       0.00220000
P       10.33150110      10.28948708       4.41690713      -0.00417000       0.00176000      -0.00274000
P        7.35939893       7.33775463      10.29362951       0.00049000      -0.00129000       0.00156000
P       10.31676080       7.35290798       7.35290798      -0.00197000      -0.00064000      -0.00064000
P        7.35939893      10.29362951       7.33775463       0.00049000       0.00156000      -0.00129000
P       10.31254362      10.28937690      10.28937690       0.00064000       0.00227000       0.00227000
P        3.94960896       0.69582402       0.69582402      -0.00666000       0.03157000       0.03157000
In      -0.01474025      -0.03579447      -0.03579447       0.00624000       0.00377000       0.00377000
In       2.77261439      -0.11223792       3.01813675      -0.00571000      -0.00587000       0.00633000
In      -0.01368214       2.94098897       2.94098897       0.00703000      -0.00408000      -0.00408000
In       2.77261439       3.01813675      -0.11223792      -0.00571000       0.00633000      -0.00587000
In      -0.04693929      -0.02849325       5.92519972      -0.00048000       0.00178000      -0.00377000
In       2.96259387      -0.03634538       8.84239645      -0.00082000       0.00464000      -0.00064000
In      -0.04720287       2.93227539       8.78204268      -0.00053000      -0.00165000       0.00346000
In       2.96336098       2.94125641       5.86467664      -0.00104000      -0.00449000       0.00068000
In      -0.04692748       5.92519972      -0.02849325      -0.00048000      -0.00377000       0.00178000
In       2.96336098       5.86467664       2.94125641      -0.00104000       0.00068000      -0.00450000
In      -0.04720287       8.78204268       2.93227539      -0.00053000       0.00346000      -0.00165000
In       2.96259387       8.84239645      -0.03634538      -0.00082000      -0.00064000       0.00464000
In       0.00156165       5.88501095       5.88501095      -0.00865000       0.00252000       0.00252000
In       2.92654753       5.86869705       8.83716433      -0.00278000       0.00084000      -0.00037000
In       0.00087317       8.82153888       8.82153888      -0.00880000      -0.00222000      -0.00222000
In       2.92654753       8.83716433       5.86869705      -0.00278000      -0.00037000       0.00084000
In       6.09142660      -0.17304027      -0.17304027       0.00876000      -0.00696000      -0.00696000
In       8.89123183      -0.02745873       2.93456483      -0.00284000       0.00404000      -0.00487000
In       6.09203588       3.07858055       3.07858055       0.00890000       0.00582000       0.00582000
In       8.89123183       2.93456483      -0.02745873      -0.00284000      -0.00487000       0.00404000
In       5.88796139      -0.01228172       5.87698582      -0.00275000       0.00173000       0.00074000
In       8.84680632      -0.04253343       8.80766012       0.00239000       0.00217000       0.00577000
In       5.88793380       2.91692915       8.83028394      -0.00175000      -0.00261000      -0.00041000
In       8.84822247       2.94813278       5.90008950       0.00224000      -0.00192000      -0.00537000
In       5.88796139       5.87698582      -0.01228172      -0.00275000       0.00074000       0.00173000
In       8.84822247       5.90008950       2.94813278       0.00224000      -0.00537000      -0.00192000
In       5.88793380       8.83028394       2.91692915      -0.00175000      -0.00041000      -0.00261000
In       8.84680632       8.80766012      -0.04253343       0.00238000       0.00577000       0.00217000
In       5.89934594       5.93570695       5.93570695       0.00140000      -0.00308000      -0.00308000
In       8.84658987       5.87618711       8.83071659       0.00292000       0.00213000      -0.00185000
In       5.89783148       8.77024481       8.77024481       0.00095000       0.00274000       0.00274000
In       8.84658987       8.83071659       5.87618711       0.00292000      -0.00185000       0.00213000
65
Lattice="11.801682 -8e-06 -8e-06 -8e-06 11.801682 -8e-06 -8e-06 -8e-06 11.801682" Properties=species:S:1:pos:R:3:forces:R:3 config_type=Interstitial energy=-63090.21544777 pbc="T T T"
P        1.39641820       1.45580431       4.47333122       0.00147000       0.00560000      -0.00081000
P        3.94965412       2.20748864       2.20748864       0.01892000       0.01622000       0.01622000
P        1.39641820       4.47333122       1.45580431       0.00147000      -0.00081000       0.00560000
P        4.45837433       4.48949539       4.48949539      -0.00672000      -0.00390000      -0.00390000
P        1.39633169       1.44867218      10.23495958       0.00107000      -0.00608000       0.00127000
P        4.41338644       1.45188215       7.35351786       0.00036000      -0.00040000      -0.00065000
P        1.46508825       4.39655723       7.34633064      -0.00199000       0.00079000       0.00302000
P        4.41643907       4.39196237      10.31434545       0.00653000      -0.00019000      -0.00061000
P        1.46508825       7.34633064       4.39655723      -0.00199000       0.00302000       0.00079000
P        4.41338644       7.35351786       1.45188215       0.00036000      -0.00065000      -0.00040000
P        1.39633169      10.23495958       1.44867218       0.00107000       0.00127000      -0.00608000
P        4.41643907      10.31434545       4.39196237       0.00653000      -0.00061000      -0.00019000
P        1.46557990       7.35994577      10.30819676      -0.00194000      -0.00390000      -0.00077000
P        4.37551084       7.35207408       7.35207408       0.01067000      -0.00039000      -0.00039000
P        1.46557990      10.30819676       7.35994577      -0.00194000      -0.00077000      -0.00390000
P        4.45772928      10.21661175      10.21661175      -0.00511000       0.00188000       0.00188000