64
Lattice="11.802547 0.0 0.0 0.0 11.802547 0.0 0.0 0.0 11.802547" Properties=species:S:1:pos:R:3:forces:R:3 config_type=Antisite energy=-61339.97717851 pbc="T T T"
P        1.47531838       1.47531838       4.42595512      -0.00592000      -0.00592000      -0.00104000
P        4.42595512       1.47531838       1.47531838      -0.00104000      -0.00592000      -0.00593000
P        1.47531838       4.42595512       1.47531838      -0.00592000      -0.00104000      -0.00592000
P        4.42595512       4.42595512       4.42595512      -0.00164000      -0.00164000      -0.00164000
P        0.00000000       0.00000000       0.00000000       0.00000000      -0.00000000      -0.00000000
P        1.47531838       1.47531838      10.32722863      -0.31978000      -0.31978000       0.31978000
P        4.42595512       1.47531838       7.37659188      -0.00257000       0.01333000       0.00257000
P        1.47531838       4.42595512       7.37659188       0.01332000      -0.00257000       0.00257000
P        4.42595512       4.42595512      10.32722863      -0.00257000      -0.00257000      -0.01332000
P        1.47531838       7.37659188       4.42595512       0.01333000       0.00257000      -0.00257000
P        4.42595512       7.37659188       1.47531838      -0.00257000       0.00257000       0.01333000
P        1.47531838      10.32722863       1.47531838      -0.31978000       0.31978000      -0.31978000
P        4.42595512      10.32722863       4.42595512      -0.00257000      -0.01332000      -0.00257000
P        1.47531838       7.37659188      10.32722863      -0.00592000       0.00104000       0.00593000
P        4.42595512       7.37659188       7.37659188      -0.00164000       0.00164000       0.00164000
P        1.47531838      10.32722863       7.37659188      -0.00593000       0.00593000       0.00104000
P        4.42595512      10.32722863      10.32722863      -0.00103000       0.00593000       0.00593000
P        7.37659188       1.47531838       4.42595512       0.00257000       0.01333000      -0.00257000
P       10.32722863       1.47531838       1.47531838       0.31978000      -0.31978000      -0.31978000
P        7.37659188       4.42595512       1.47531838       0.00257000      -0.00257000       0.01332000
P       10.32722863       4.42595512       4.42595512      -0.01332000      -0.00257000      -0.00257000
P        7.37659188       1.47531838      10.32722863       0.00104000      -0.00592000       0.00593000
P       10.32722863       1.47531838       7.37659188       0.00592000      -0.00592000       0.00104000
P        7.37659188       4.42595512       7.37659188       0.00164000      -0.00164000       0.00164000
P       10.32722863       4.42595512      10.32722863       0.00592000      -0.00104000       0.00593000
P        7.37659188       7.37659188       4.42595512       0.00164000       0.00164000      -0.00164000
P       10.32722863       7.37659188       1.47531838       0.00592000       0.00104000      -0.00593000
P        7.37659188      10.32722863       1.47531838       0.00104000       0.00593000      -0.00593000
P       10.32722863      10.32722863       4.42595512       0.00592000       0.00593000      -0.00104000
P        7.37659188       7.37659188      10.32722863       0.00257000       0.00257000      -0.01332000
P       10.32722863       7.37659188       7.37659188      -0.01333000       0.00257000       0.00257000
P        7.37659188      10.32722863       7.37659188       0.00257000      -0.01332000       0.00257000
P       10.32722863      10.32722863      10.32722863       0.31978000       0.31978000       0.31978000
In       2.95063675       0.00000000       2.95063675      -0.00682000       0.04254000      -0.00682000
In       0.00000000       2.95063675       2.95063675       0.04254000      -0.00682000      -0.00682000
In       2.95063675       2.95063675       0.00000000      -0.00682000      -0.00682000       0.04255000
In       0.00000000       0.00000000       5.90127350      -0.00000000       0.00000000      -0.00001000
In       2.95063675       0.00000000       8.85191025      -0.00682000      -0.04254000       0.00683000
In       0.00000000       2.95063675       8.85191025      -0.04254000      -0.00682000       0.00683000
In       2.95063675       2.95063675       5.90127350       0.00195000       0.00195000       0.00543000
In       0.00000000       5.90127350       0.00000000       0.00000000      -0.00000000      -0.00000000
In       2.95063675       5.90127350       2.95063675       0.00194000       0.00542000       0.00194000
In       0.00000000       8.85191025       2.95063675      -0.04254000       0.00683000      -0.00682000
In       2.95063675       8.85191025       0.00000000      -0.00683000       0.00683000      -0.04254000
In       0.00000000       5.90127350       5.90127350       0.00000000      -0.00001000      -0.00001000
In       2.95063675       5.90127350       8.85191025       0.00194000      -0.00544000      -0.00195000
In       0.00000000       8.85191025       8.85191025       0.04254000       0.00682000       0.00683000
In       2.95063675       8.85191025       5.90127350       0.00195000      -0.00195000      -0.00544000
In       5.90127350       0.00000000       0.00000000      -0.00001000       0.00000000       0.00000000
In       8.85191025       0.00000000       2.95063675       0.00682000      -0.04254000      -0.00682000
In       5.90127350       2.95063675       2.95063675       0.00543000       0.00195000       0.00194000
In       8.85191025       2.95063675       0.00000000       0.00682000      -0.00683000      -0.04254000
In       5.90127350       0.00000000       5.90127350      -0.00000000       0.00000000      -0.00001000
In       8.85191025       0.00000000       8.85191025       0.00682000       0.04254000       0.00683000
In       5.90127350       2.95063675       8.85191025      -0.00544000       0.00194000      -0.00195000
In       8.85191025       2.95063675       5.90127350      -0.00194000       0.00195000      -0.00544000
In       5.90127350       5.90127350       0.00000000      -0.00001000      -0.00001000       0.00000000
In       8.85191025       5.90127350       2.95063675      -0.00195000      -0.00544000       0.00195000
In       5.90127350       8.85191025       2.95063675      -0.00544000      -0.00194000       0.00195000
In       8.85191025       8.85191025       0.00000000       0.00682000       0.00682000       0.04254000
In       5.90127350       5.90127350       5.90127350      -0.00001000      -0.00001000      -0.00001000
In       8.85191025       5.90127350       8.85191025      -0.00195000       0.00542000      -0.00194000
In       5.90127350       8.85191025       8.85191025       0.00543000      -0.00194000      -0.00195000
In       8.85191025       8.85191025       5.90127350      -0.00195000      -0.00194000       0.00542000
64
Lattice="11.802547 0.0 0.0 0.0 11.802547 0.0 0.0 0.0 11.802547" Properties=species:S:1:pos:R:3:forces:R:3 config_type=Antisite energy=-61339.97888352 pbc="T T T"
P        1.47530657       1.47530657       4.42595512      -0.00574000      -0.00574000      -0.00067000
P        4.42595512       1.47530657       1.47530657      -0.00067000      -0.00574000      -0.00574000
P        1.47530657       4.42595512       1.47530657      -0.00574000      -0.00067000      -0.00574000
P        4.42595512       4.42595512       4.42595512      -0.00159000      -0.00159000      -0.00159000
P        0.00000000       0.00000000       0.00000000       0.00000000       0.00000000       0.00000000
P        1.47488168       1.47488168      10.32766532      -0.31748000      -0.31748000       0.31747000
P        4.42595512       1.47534198       7.37659188      -0.00279000       0.01311000       0.00279000
P        1.47534198       4.42595512       7.37659188       0.01311000      -0.00279000       0.00279000
P        4.42595512       4.42595512      10.32720502      -0.00279000      -0.00279000      -0.01311000
P        1.47534198       7.37659188       4.42595512       0.01311000       0.00279000      -0.00279000
P        4.42595512       7.37659188       1.47534198      -0.00279000       0.00279000       0.01311000
P        1.47488168      10.32766532       1.47488168      -0.31747000       0.31747000      -0.31747000
P        4.42595512      10.32720502       4.42595512      -0.00279000      -0.01311000      -0.00279000
P        1.47530657       7.37659188      10.32724043      -0.00574000       0.00067000       0.00573000
P        4.42595512       7.37659188       7.37659188      -0.00159000       0.00159000       0.00159000
P        1.47530657      10.32724043       7.37659188      -0.00574000       0.00574000       0.00067000
P        4.42595512      10.32724043      10.32724043      -0.00067000       0.00574000       0.00574000
P        7.37659188       1.47534198       4.42595512       0.00279000       0.01311000      -0.00279000
P       10.32766532       1.47488168       1.47488168       0.31747000      -0.31748000      -0.31747000
P        7.37659188       4.42595512       1.47534198       0.00279000      -0.00279000       0.01311000
P       10.32720502       4.42595512       4.42595512      -0.01311000      -0.00279000      -0.00279000
P        7.37659188       1.47530657      10.32724043       0.00067000      -0.00574000       0.00574000
P       10.32724043       1.47530657       7.37659188       0.00574000      -0.00574000       0.00067000
P        7.37659188       4.42595512       7.37659188       0.00159000      -0.00159000       0.00159000
P       10.32724043       4.42595512      10.32724043       0.00574000      -0.00067000       0.00574000
P        7.37659188       7.37659188       4.42595512       0.00159000       0.00159000      -0.00159000
P       10.32724043       7.37659188       1.47530657       0.00574000       0.00067000      -0.00574000
P        7.37659188      10.32724043       1.47530657       0.00067000       0.00574000      -0.00574000
P       10.32724043      10.32724043       4.42595512       0.00574000       0.00574000      -0.00067000
P        7.37659188       7.37659188      10.32720502       0.00279000       0.00279000      -0.01311000
P       10.32720502       7.37659188       7.37659188      -0.01311000       0.00279000       0.00279000
P        7.37659188      10.32720502       7.37659188       0.00279000      -0.01311000       0.00279000
P       10.32766532      10.32766532      10.32766532       0.31747000       0.31747000       0.31747000
In       2.95062495       0.00005901       2.95062495      -0.00746000       0.04080000      -0.00746000
In       0.00005901       2.95062495       2.95062495       0.04080000      -0.00746000      -0.00746000
In       2.95062495       2.95062495       0.00005901      -0.00746000      -0.00746000       0.04080000
In       0.00000000       0.00000000       5.90127350       0.00000000      -0.00000000      -0.00001000
In       2.95062495      -0.00005901       8.85192205      -0.00746000      -0.04080000       0.00746000
In      -0.00005901       2.95062495       8.85192205      -0.04080000      -0.00746000       0.00746000
In       2.95063675       2.95063675       5.90128530       0.00186000       0.00186000       0.00516000
In       0.00000000       5.90127350       0.00000000       0.00000000      -0.00000000       0.00000000
In       2.95063675       5.90128530       2.95063675       0.00186000       0.00516000       0.00186000
In      -0.00005901       8.85192205       2.95062495      -0.04080000       0.00746000      -0.00746000
In       2.95062495       8.85192205      -0.00005901      -0.00746000       0.00746000      -0.04080000
In       0.00000000       5.90127350       5.90127350       0.00000000      -0.00001000      -0.00001000
In       2.95063675       5.90126170       8.85191025       0.00186000      -0.00517000      -0.00186000
In       0.00005901       8.85192205       8.85192205       0.04080000       0.00746000       0.00746000
In       2.95063675       8.85191025       5.90126170       0.00186000      -0.00186000      -0.00517000
In       5.90127350       0.00000000       0.00000000      -0.00001000      -0.00000000       0.00000000
In       8.85192205      -0.00005901       2.95062495       0.00746000      -0.04080000      -0.00746000
In       5.90128530       2.95063675       2.95063675       0.00516000       0.00186000       0.00186000
In       8.85192205       2.95062495      -0.00005901       0.00746000      -0.00746000      -0.04080000
In       5.90127350       0.00000000       5.90127350      -0.00001000      -0.00000000      -0.00001000
In       8.85192205       0.00005901       8.85192205       0.00746000       0.04080000       0.00746000
In       5.90126170       2.95063675       8.85191025      -0.00517000       0.00186000      -0.00186000
In       8.85191025       2.95063675       5.90126170      -0.00186000       0.00186000      -0.00517000
In       5.90127350       5.90127350       0.00000000      -0.00001000      -0.00001000      -0.00000000
In       8.85191025       5.90126170       2.95063675      -0.00186000      -0.00517000       0.00186000
In       5.90126170       8.85191025       2.95063675      -0.00517000      -0.00186000       0.00186000
In       8.85192205       8.85192205       0.00005901       0.00746000       0.00746000       0.04080000
In       5.90127350       5.90127350       5.90127350      -0.00001000      -0.00000000      -0.00000000
In       8.85191025       5.90128530       8.85191025      -0.00186000       0.00516000      -0.00186000
In       5.90128530       8.85191025       8.85191025       0.00516000      -0.00186000      -0.00186000
In       8.85191025       8.85191025       5.90128530      -0.00186000      -0.00186000       0.00516000
64
Lattice="11.802547 0.0 0.0 0.0 11.802547 0.0 0.0 0.0 11.802547" Properties=species:S:1:pos:R:3:forces:R:3 config_type=Antisite energy=-61340.07390068 pbc="T T T"
P        1.47426795       1.47426795       4.42576628       0.01366000       0.01365000       0.04503000
P        4.42577809       1.47426795       1.47426795       0.04503000       0.01365000       0.01366000
P        1.47426795       4.42576628       1.47426795       0.01365000       0.04503000       0.01366000
P        4.42566006       4.42566006       4.42566006      -0.00122000      -0.00121000      -0.00121000
P        0.00000000       0.00000000       0.00000000      -0.00000000       0.00000000       0.00000000
P        1.41890220       1.41890220      10.38364480       0.04615000       0.04614000      -0.04615000
P        4.42550663       1.47766708       7.37704037      -0.03404000      -0.01982000       0.03402000
P        1.47766708       4.42550663       7.37704037      -0.01981000      -0.03403000       0.03403000
P        4.42550663       4.42550663      10.32487992      -0.03404000      -0.03403000       0.01981000
P        1.47766708       7.37704037       4.42550663      -0.01981000       0.03403000      -0.03403000
P        4.42550663       7.37704037       1.47766708      -0.03404000       0.03403000      -0.01981000
P        1.41890220      10.38364480       1.41890220       0.04615000      -0.04615000       0.04615000
P        4.42550663      10.32487992       4.42550663      -0.03404000       0.01981000      -0.03403000
P        1.47426795       7.37678072      10.32827905       0.01366000      -0.04503000      -0.01366000
P        4.42566006       7.37688694       7.37688694      -0.00122000       0.00121000       0.00121000
P        1.47426795      10.32827905       7.37678072       0.01366000      -0.01366000      -0.04504000
P        4.42577809      10.32827905      10.32827905       0.04503000      -0.01366000      -0.01366000
P        7.37704037       1.47766708       4.42550663       0.03403000      -0.01982000      -0.03403000
P       10.38364480       1.41890220       1.41890220      -0.04614000       0.04614000       0.04615000
P        7.37704037       4.42550663       1.47766708       0.03403000      -0.03403000      -0.01981000
P       10.32487992       4.42550663       4.42550663       0.01981000      -0.03403000      -0.03403000
P        7.37678072       1.47426795      10.32827905      -0.04504000       0.01365000      -0.01366000
P       10.32827905       1.47426795       7.37678072      -0.01365000       0.01366000      -0.04504000
P        7.37688694       4.42566006       7.37688694       0.00121000      -0.00121000       0.00121000
P       10.32827905       4.42576628      10.32827905      -0.01365000       0.04503000      -0.01366000
P        7.37688694       7.37688694       4.42566006       0.00121000       0.00121000      -0.00121000
P       10.32827905       7.37678072       1.47426795      -0.01365000      -0.04504000       0.01366000
P        7.37678072      10.32827905       1.47426795      -0.04504000      -0.01366000       0.01366000
P       10.32827905      10.32827905       4.42576628      -0.01365000      -0.01366000       0.04503000
P        7.37704037       7.37704037      10.32487992       0.03402000       0.03403000       0.01981000
P       10.32487992       7.37704037       7.37704037       0.01982000       0.03403000       0.03402000
P        7.37704037      10.32487992       7.37704037       0.03403000       0.01981000       0.03402000
P       10.38364480      10.38364480      10.38364480      -0.04614000      -0.04615000      -0.04615000
In       2.94943289       0.00750642       2.94943289      -0.10770000      -0.09324000      -0.10771000
In       0.00750642       2.94943289       2.94943289      -0.09325000      -0.10771000      -0.10771000
In       2.94943289       2.94943289       0.00750642      -0.10770000      -0.10770000      -0.09325000
In       0.00000000       0.00000000       5.90127350       0.00000000       0.00000000       0.00001000
In       2.94943289      -0.00750642       8.85311411      -0.10770000       0.09324000       0.10771000
In      -0.00750642       2.94943289       8.85311411       0.09324000      -0.10770000       0.10770000
In       2.95097902       2.95097902       5.90222951      -0.00529000      -0.00529000      -0.01145000
In       0.00000000       5.90127350       0.00000000      -0.00000000       0.00000000       0.00000000
In       2.95097902       5.90222951       2.95097902      -0.00529000      -0.01145000      -0.00530000
In      -0.00750642       8.85311411       2.94943289       0.09324000       0.10770000      -0.10771000
In       2.94943289       8.85311411      -0.00750642      -0.10770000       0.10770000       0.09324000
In       0.00000000       5.90127350       5.90127350      -0.00000000       0.00001000       0.00001000
In       2.95097902       5.90031749       8.85156798      -0.00529000       0.01146000       0.00530000
In       0.00750642       8.85311411       8.85311411      -0.09324000       0.10770000       0.10771000
In       2.95097902       8.85156798       5.90031749      -0.00529000       0.00530000       0.01147000
In       5.90127350       0.00000000       0.00000000       0.00001000       0.00000000      -0.00000000
In       8.85311411      -0.00750642       2.94943289       0.10770000       0.09324000      -0.10771000
In       5.90222951       2.95097902       2.95097902      -0.01145000      -0.00529000      -0.00529000
In       8.85311411       2.94943289      -0.00750642       0.10770000      -0.10770000       0.09325000
In       5.90127350       0.00000000       5.90127350       0.00001000      -0.00000000       0.00001000
In       8.85311411       0.00750642       8.85311411       0.10770000      -0.09324000       0.10771000
In       5.90031749       2.95097902       8.85156798       0.01146000      -0.00529000       0.00530000
In       8.85156798       2.95097902       5.90031749       0.00529000      -0.00529000       0.01147000
In       5.90127350       5.90127350       0.00000000       0.00001000       0.00001000      -0.00000000
In       8.85156798       5.90031749       2.95097902       0.00530000       0.01146000      -0.00530000
In       5.90031749       8.85156798       2.95097902       0.01147000       0.00529000      -0.00530000
In       8.85311411       8.85311411       0.00750642       0.10770000       0.10771000      -0.09324000
In       5.90127350       5.90127350       5.90127350       0.00001000       0.00000000       0.00001000
In       8.85156798       5.90222951       8.85156798       0.00529000      -0.01145000       0.00529000
In       5.90222951       8.85156798       8.85156798      -0.01145000       0.00529000       0.00530000
In       8.85156798       8.85156798       5.90222951       0.00529000       0.00529000      -0.01145000
64
Lattice="11.802547 0.0 0.0 0.0 11.802547 0.0 0.0 0.0 11.802547" Properties=species:S:1:pos:R:3:forces:R:3 config_type=Antisite energy=-61340.07664418 pbc="T T T"
P        1.47443318       1.47443318       4.42584890       0.01078000       0.01077000       0.03767000
P        4.42584890       1.47443318       1.47443318       0.03766000       0.01077000       0.01078000
P        1.47443318       4.42584890       1.47443318       0.01077000       0.03767000       0.01077000
P        4.42570727       4.42570727       4.42570727      -0.00118000      -0.00117000      -0.00117000
P        0.00000000       0.00000000       0.00000000      -0.00000000       0.00000000       0.00000000
P        1.42692793       1.42692793      10.37561907      -0.00958000      -0.00958000       0.00958000
P        4.42553023       1.47731301       7.37701677      -0.02963000      -0.01512000       0.02962000
P        1.47731301       4.42553023       7.37701677      -0.01512000      -0.02963000       0.02962000
P        4.42553023       4.42553023      10.32523399      -0.02963000      -0.02963000       0.01511000
P        1.47731301       7.37701677       4.42553023      -0.01512000       0.02963000      -0.02963000
P        4.42553023       7.37701677       1.47731301      -0.02963000       0.02963000      -0.01511000
P        1.42692793      10.37561907       1.42692793      -0.00958000       0.00958000      -0.00958000
P        4.42553023      10.32523399       4.42553023      -0.02963000       0.01511000      -0.02962000
P        1.47443318       7.37669810      10.32811382       0.01078000      -0.03767000      -0.01078000
P        4.42570727       7.37683973       7.37683973      -0.00118000       0.00117000       0.00117000
P        1.47443318      10.32811382       7.37669810       0.01078000      -0.01078000      -0.03768000
P        4.42584890      10.32811382      10.32811382       0.03766000      -0.01078000      -0.01078000
P        7.37701677       1.47731301       4.42553023       0.02963000      -0.01512000      -0.02963000
P       10.37561907       1.42692793       1.42692793       0.00959000      -0.00958000      -0.00958000
P        7.37701677       4.42553023       1.47731301       0.02963000      -0.02963000      -0.01511000
P       10.32523399       4.42553023       4.42553023       0.01512000      -0.02963000      -0.02963000
P        7.37669810       1.47443318      10.32811382      -0.03767000       0.01077000      -0.01078000
P       10.32811382       1.47443318       7.37669810      -0.01077000       0.01077000      -0.03767000
P        7.37683973       4.42570727       7.37683973       0.00117000      -0.00117000       0.00117000
P       10.32811382       4.42584890      10.32811382      -0.01077000       0.03767000      -0.01078000
P        7.37683973       7.37683973       4.42570727       0.00117000       0.00117000      -0.00117000
P       10.32811382       7.37669810       1.47443318      -0.01077000      -0.03767000       0.01078000
P        7.37669810      10.32811382       1.47443318      -0.03767000      -0.01078000       0.01078000
P       10.32811382      10.32811382       4.42584890      -0.01077000      -0.01078000       0.03767000
P        7.37701677       7.37701677      10.32523399       0.02962000       0.02962000       0.01511000
P       10.32523399       7.37701677       7.37701677       0.01512000       0.02963000       0.02962000
P        7.37701677      10.32523399       7.37701677       0.02962000       0.01511000       0.02962000
P       10.37561907      10.37561907      10.37561907       0.00959000       0.00958000       0.00958000
In       2.94948010       0.00633797       2.94948010      -0.09274000      -0.07413000      -0.09274000
In       0.00633797       2.94948010       2.94948010      -0.07413000      -0.09274000      -0.09275000
In       2.94948010       2.94948010       0.00633797      -0.09274000      -0.09274000      -0.07413000
In       0.00000000       0.00000000       5.90127350       0.00000000       0.00000000       0.00001000
In       2.94948010      -0.00633797       8.85306690      -0.09274000       0.07413000       0.09274000
In      -0.00633797       2.94948010       8.85306690       0.07413000      -0.09274000       0.09274000
In       2.95092001       2.95092001       5.90208788      -0.00417000      -0.00417000      -0.00877000
In       0.00000000       5.90127350       0.00000000      -0.00000000       0.00000000       0.00000000
In       2.95092001       5.90208788       2.95092001      -0.00417000      -0.00877000      -0.00417000
In      -0.00633797       8.85306690       2.94948010       0.07413000       0.09274000      -0.09275000
In       2.94948010       8.85306690      -0.00633797      -0.09274000       0.09274000       0.07413000
In       0.00000000       5.90127350       5.90127350      -0.00000000       0.00001000       0.00001000
In       2.95092001       5.90045912       8.85162699      -0.00417000       0.00878000       0.00417000
In       0.00633797       8.85306690       8.85306690      -0.07413000       0.09274000       0.09274000
In       2.95092001       8.85161519       5.90045912      -0.00417000       0.00418000       0.00878000
In       5.90127350       0.00000000       0.00000000       0.00001000       0.00000000      -0.00000000
In       8.85306690      -0.00633797       2.94948010       0.09274000       0.07413000      -0.09275000
In       5.90208788       2.95092001       2.95092001      -0.00877000      -0.00417000      -0.00417000
In       8.85306690       2.94948010      -0.00633797       0.09274000      -0.09274000       0.07413000
In       5.90127350       0.00000000       5.90127350       0.00000000      -0.00000000       0.00001000
In       8.85306690       0.00633797       8.85306690       0.09274000      -0.07413000       0.09274000
In       5.90045912       2.95092001       8.85162699       0.00878000      -0.00417000       0.00417000
In       8.85162699       2.95092001       5.90045912       0.00417000      -0.00417000       0.00878000
In       5.90127350       5.90127350       0.00000000       0.00001000       0.00001000      -0.00000000
In       8.85162699       5.90045912       2.95092001       0.00417000       0.00878000      -0.00417000
In       5.90045912       8.85162699       2.95092001       0.00878000       0.00417000      -0.00417000
In       8.85306690       8.85306690       0.00633797       0.09274000       0.09274000      -0.07413000
In       5.90127350       5.90127350       5.90127350       0.00001000       0.00000000       0.00001000
In       8.85162699       5.90208788       8.85162699       0.00417000      -0.00877000       0.00417000
In       5.90208788       8.85162699       8.85162699      -0.00877000       0.00417000       0.00417000
In       8.85162699       8.85162699       5.90208788       0.00417000       0.00417000      -0.00877000
64
Lattice="11.802547 0.0 0.0 0.0 11.802547 0.0 0.0 0.0 11.802547" Properties=species:S:1:pos:R:3:forces:R:3 config_type=Antisite energy=-61340.07711938 pbc="T T T"
P        1.47445679       1.47445679       4.42590791       0.01035000       0.01034000       0.03629000
P        4.42590791       1.47445679       1.47445679       0.03629000       0.01034000       0.01035000
P        1.47445679       4.42590791       1.47445679       0.01034000       0.03629000       0.01034000
P        4.42570727       4.42570727       4.42570727      -0.00116000      -0.00116000      -0.00115000
P        0.00000000       0.00000000       0.00000000      -0.00000000       0.00000000       0.00000000
P        1.42703416       1.42703416      10.37551284      -0.01094000      -0.01095000       0.01094000
P        4.42548302       1.47728940       7.37706398      -0.02945000      -0.01492000       0.02943000
P        1.47728940       4.42548302       7.37706398      -0.01492000      -0.02944000       0.02944000
P        4.42548302       4.42548302      10.32525760      -0.02944000      -0.02944000       0.01491000
P        1.47728940       7.37706398       4.42548302      -0.01492000       0.02944000      -0.02944000
P        4.42548302       7.37706398       1.47728940      -0.02944000       0.02944000      -0.01492000
P        1.42703416      10.37551284       1.42703416      -0.01094000       0.01094000      -0.01094000
P        4.42548302      10.32525760       4.42548302      -0.02944000       0.01492000      -0.02944000
P        1.47445679       7.37663909      10.32809021       0.01035000      -0.03629000      -0.01035000
P        4.42570727       7.37683973       7.37683973      -0.00116000       0.00116000       0.00115000
P        1.47445679      10.32809021       7.37663909       0.01035000      -0.01035000      -0.03630000
P        4.42590791      10.32809021      10.32809021       0.03629000      -0.01035000      -0.01035000
P        7.37706398       1.47728940       4.42548302       0.02944000      -0.01492000      -0.02944000
P       10.37551284       1.42703416       1.42703416       0.01095000      -0.01095000      -0.01094000
P        7.37706398       4.42548302       1.47728940       0.02944000      -0.02944000      -0.01492000
P       10.32525760       4.42548302       4.42548302       0.01492000      -0.02944000      -0.02944000