63
Lattice="11.802547 0.0 0.0 0.0 11.802547 0.0 0.0 0.0 11.802547" Properties=species:S:1:pos:R:3:forces:R:3 config_type=Vacancy energy=-62662.29687784 pbc="T T T"
P        4.42595512       1.47531838       1.47531838      -0.03623000       0.05505000       0.03624000
P        1.47531838       4.42595512       1.47531838       0.05505000      -0.03623000       0.03624000
P        4.42595512       4.42595512       4.42595512      -0.03623000      -0.03623000      -0.05504000
P        1.47531838       1.47531838      10.32722863       0.00001000       0.00001000      -0.00001000
P        4.42595512       1.47531838       7.37659188      -0.03623000      -0.05504000      -0.03623000
P        1.47531838       4.42595512       7.37659188      -0.05504000      -0.03623000      -0.03623000
P        4.42595512       4.42595512      10.32722863      -0.00614000      -0.00614000      -0.01292000
P        1.47531838       7.37659188       4.42595512       0.00001000      -0.00000000       0.00000000
P        4.42595512       7.37659188       1.47531838      -0.00614000       0.01291000       0.00615000
P        1.47531838      10.32722863       1.47531838      -0.05504000       0.03623000       0.03624000
P        4.42595512      10.32722863       4.42595512      -0.03623000       0.03623000       0.05505000
P        1.47531838       7.37659188      10.32722863       0.00001000      -0.00000000      -0.00001000
P        4.42595512       7.37659188       7.37659188      -0.00614000      -0.01291000      -0.00614000
P        1.47531838      10.32722863       7.37659188       0.05505000       0.03623000      -0.03623000
P        4.42595512      10.32722863      10.32722863      -0.00614000       0.00614000       0.01290000
P        7.37659188       1.47531838       4.42595512      -0.00000000       0.00001000       0.00000000
P       10.32722863       1.47531838       1.47531838       0.03623000      -0.05504000       0.03624000
P        7.37659188       4.42595512       1.47531838       0.01291000      -0.00614000       0.00615000
P       10.32722863       4.42595512       4.42595512       0.03623000      -0.03623000       0.05505000
P        7.37659188       1.47531838      10.32722863      -0.00000000       0.00001000      -0.00001000
P       10.32722863       1.47531838       7.37659188       0.03623000       0.05505000      -0.03623000
P        7.37659188       4.42595512       7.37659188      -0.01291000      -0.00614000      -0.00614000
P       10.32722863       4.42595512      10.32722863       0.00614000      -0.00614000       0.01290000
P        7.37659188       7.37659188       4.42595512      -0.00000000      -0.00000000       0.00000000
P       10.32722863       7.37659188       1.47531838       0.00614000      -0.01291000       0.00615000
P        7.37659188      10.32722863       1.47531838      -0.01291000       0.00614000       0.00615000
P       10.32722863      10.32722863       4.42595512       0.03623000       0.03623000      -0.05504000
P        7.37659188       7.37659188      10.32722863      -0.00000000      -0.00000000      -0.00001000
P       10.32722863       7.37659188       7.37659188       0.00614000       0.01291000      -0.00614000
P        7.37659188      10.32722863       7.37659188       0.01291000       0.00614000      -0.00614000
P       10.32722863      10.32722863      10.32722863       0.00614000       0.00614000      -0.01292000
In       0.00000000       0.00000000       0.00000000       0.00154000       0.00154000      -0.01131000
In       2.95063675       0.00000000       2.95063675      -0.28210000       0.28210000       0.28209000
In       0.00000000       2.95063675       2.95063675       0.28210000      -0.28210000       0.28209000
In       2.95063675       2.95063675       0.00000000      -0.00155000      -0.00155000      -0.01131000
In       0.00000000       0.00000000       5.90127350       0.28210000       0.28210000      -0.28210000
In       2.95063675       0.00000000       8.85191025      -0.00155000       0.00154000       0.01131000
In       0.00000000       2.95063675       8.85191025       0.00154000      -0.00155000       0.01131000
In       2.95063675       2.95063675       5.90127350      -0.28210000      -0.28210000      -0.28210000
In       0.00000000       5.90127350       0.00000000      -0.04101000       0.02017000      -0.02018000
In       2.95063675       5.90127350       2.95063675      -0.00155000       0.01130000       0.00154000
In       0.00000000       8.85191025       2.95063675       0.00154000      -0.01130000       0.00154000
In       2.95063675       8.85191025       0.00000000       0.04101000      -0.02017000      -0.02018000
In       0.00000000       5.90127350       5.90127350       0.00154000       0.01130000      -0.00155000
In       2.95063675       5.90127350       8.85191025       0.04101000       0.02017000       0.02019000
In       0.00000000       8.85191025       8.85191025      -0.04101000      -0.02017000       0.02019000
In       2.95063675       8.85191025       5.90127350      -0.00155000      -0.01130000      -0.00155000
In       5.90127350       0.00000000       0.00000000       0.02017000      -0.04101000      -0.02018000
In       8.85191025       0.00000000       2.95063675      -0.01130000       0.00154000       0.00154000
In       5.90127350       2.95063675       2.95063675       0.01130000      -0.00155000       0.00154000
In       8.85191025       2.95063675       0.00000000      -0.02017000       0.04101000      -0.02018000
In       5.90127350       0.00000000       5.90127350       0.01130000       0.00154000      -0.00155000
In       8.85191025       0.00000000       8.85191025      -0.02017000      -0.04101000       0.02019000
In       5.90127350       2.95063675       8.85191025       0.02017000       0.04101000       0.02019000
In       8.85191025       2.95063675       5.90127350      -0.01130000      -0.00155000      -0.00155000
In       5.90127350       5.90127350       0.00000000       0.00428000       0.00428000      -0.00428000
In       8.85191025       5.90127350       2.95063675      -0.02017000       0.02017000      -0.04102000
In       5.90127350       8.85191025       2.95063675       0.02017000      -0.02017000      -0.04102000
In       8.85191025       8.85191025       0.00000000      -0.00428000      -0.00428000      -0.00428000
In       5.90127350       5.90127350       5.90127350       0.02017000       0.02017000       0.04101000
In       8.85191025       5.90127350       8.85191025      -0.00428000       0.00428000       0.00429000
In       5.90127350       8.85191025       8.85191025       0.00428000      -0.00428000       0.00429000
In       8.85191025       8.85191025       5.90127350      -0.02017000      -0.02017000       0.04101000
63
Lattice="11.802547 0.0 0.0 0.0 11.802547 0.0 0.0 0.0 11.802547" Properties=species:S:1:pos:R:3:forces:R:3 config_type=Vacancy energy=-62662.29827888 pbc="T T T"
P        4.42590791       1.47538919       1.47536559      -0.03625000       0.05384000       0.03626000
P        1.47538919       4.42590791       1.47536559       0.05384000      -0.03625000       0.03626000
P        4.42590791       4.42590791       4.42588431      -0.03625000      -0.03625000      -0.05383000
P        1.47531838       1.47531838      10.32722863       0.00001000       0.00001000      -0.00001000
P        4.42590791       1.47524756       7.37654466      -0.03625000      -0.05383000      -0.03626000
P        1.47524756       4.42590791       7.37654466      -0.05383000      -0.03625000      -0.03626000
P        4.42594332       4.42594332      10.32721682      -0.00600000      -0.00600000      -0.01262000
P        1.47531838       7.37659188       4.42595512       0.00001000      -0.00000000       0.00000000
P        4.42594332       7.37660368       1.47533018      -0.00600000       0.01261000       0.00601000
P        1.47524756      10.32727584       1.47536559      -0.05383000       0.03625000       0.03626000
P        4.42590791      10.32727584       4.42602594      -0.03625000       0.03625000       0.05384000
P        1.47531838       7.37659188      10.32722863       0.00000000      -0.00000000      -0.00001000
P        4.42594332       7.37658007       7.37658007      -0.00600000      -0.01261000      -0.00600000
P        1.47538919      10.32727584       7.37654466       0.05384000       0.03625000      -0.03626000
P        4.42594332      10.32724043      10.32724043      -0.00600000       0.00600000       0.01261000
P        7.37659188       1.47531838       4.42595512      -0.00000000       0.00001000       0.00000000
P       10.32727584       1.47524756       1.47536559       0.03625000      -0.05383000       0.03626000
P        7.37660368       4.42594332       1.47533018       0.01261000      -0.00600000       0.00601000
P       10.32727584       4.42590791       4.42602594       0.03625000      -0.03625000       0.05384000
P        7.37659188       1.47531838      10.32722863      -0.00000000       0.00000000      -0.00001000
P       10.32727584       1.47538919       7.37654466       0.03625000       0.05384000      -0.03626000
P        7.37658007       4.42594332       7.37658007      -0.01261000      -0.00600000      -0.00600000
P       10.32724043       4.42594332      10.32724043       0.00600000      -0.00600000       0.01261000
P        7.37659188       7.37659188       4.42595512      -0.00000000      -0.00000000       0.00000000
P       10.32724043       7.37658007       1.47533018       0.00600000      -0.01261000       0.00601000
P        7.37658007      10.32724043       1.47533018      -0.01261000       0.00600000       0.00601000
P       10.32727584      10.32727584       4.42588431       0.03625000       0.03625000      -0.05383000
P        7.37659188       7.37659188      10.32722863      -0.00000000      -0.00000000      -0.00001000
P       10.32724043       7.37660368       7.37658007       0.00600000       0.01261000      -0.00600000
P        7.37660368      10.32724043       7.37658007       0.01261000       0.00600000      -0.00600000
P       10.32724043      10.32724043      10.32721682       0.00600000       0.00600000      -0.01262000
In       0.00000000       0.00000000      -0.00001180       0.00143000       0.00143000      -0.01109000
In       2.95025907       0.00037768       2.95101443      -0.28048000       0.28047000       0.28047000
In       0.00037768       2.95025907       2.95101443       0.28047000      -0.28048000       0.28047000
In       2.95063675       2.95063675      -0.00001180      -0.00143000      -0.00143000      -0.01109000
In       0.00037768       0.00037768       5.90089582       0.28047000       0.28047000      -0.28048000
In       2.95063675       0.00000000       8.85192205      -0.00143000       0.00143000       0.01109000
In       0.00000000       2.95063675       8.85192205       0.00143000      -0.00143000       0.01109000
In       2.95025907       2.95025907       5.90089582      -0.28047000      -0.28047000      -0.28048000
In      -0.00005901       5.90129711      -0.00002361      -0.04028000       0.01933000      -0.01934000
In       2.95063675       5.90128530       2.95063675      -0.00143000       0.01108000       0.00142000
In       0.00000000       8.85189845       2.95063675       0.00143000      -0.01108000       0.00142000
In       2.95069576       8.85188664      -0.00002361       0.04028000      -0.01933000      -0.01934000
In       0.00000000       5.90128530       5.90127350       0.00143000       0.01108000      -0.00144000
In       2.95069576       5.90129711       8.85193386       0.04028000       0.01933000       0.01935000
In      -0.00005901       8.85188664       8.85193386      -0.04028000      -0.01933000       0.01935000
In       2.95063675       8.85189845       5.90127350      -0.00143000      -0.01108000      -0.00143000
In       5.90129711      -0.00005901      -0.00002361       0.01933000      -0.04028000      -0.01934000
In       8.85189845       0.00000000       2.95063675      -0.01108000       0.00143000       0.00142000
In       5.90128530       2.95063675       2.95063675       0.01108000      -0.00143000       0.00142000
In       8.85188664       2.95069576      -0.00002361      -0.01933000       0.04028000      -0.01934000
In       5.90128530       0.00000000       5.90127350       0.01108000       0.00143000      -0.00144000
In       8.85188664      -0.00005901       8.85193386      -0.01933000      -0.04028000       0.01935000
In       5.90129711       2.95069576       8.85193386       0.01933000       0.04028000       0.01935000
In       8.85189845       2.95063675       5.90127350      -0.01108000      -0.00143000      -0.00143000
In       5.90128530       5.90128530       0.00000000       0.00410000       0.00410000      -0.00411000
In       8.85188664       5.90129711       2.95057774      -0.01933000       0.01933000      -0.04029000
In       5.90129711       8.85188664       2.95057774       0.01933000      -0.01933000      -0.04029000
In       8.85189845       8.85189845       0.00000000      -0.00410000      -0.00410000      -0.00411000
In       5.90129711       5.90129711       5.90133251       0.01933000       0.01933000       0.04028000
In       8.85189845       5.90128530       8.85191025      -0.00410000       0.00410000       0.00411000
In       5.90128530       8.85189845       8.85191025       0.00410000      -0.00410000       0.00411000
In       8.85188664       8.85188664       5.90133251      -0.01933000      -0.01933000       0.04028000
63
Lattice="11.802547 0.0 0.0 0.0 11.802547 0.0 0.0 0.0 11.802547" Properties=species:S:1:pos:R:3:forces:R:3 config_type=Vacancy energy=-62662.4266912 pbc="T T T"
P        4.41882639       1.48614131       1.48244711      -0.04087000      -0.12294000       0.04085000
P        1.48614131       4.41882639       1.48244711      -0.12294000      -0.04087000       0.04085000
P        4.41882639       4.41882639       4.41513219      -0.04087000      -0.04087000       0.12292000
P        1.47531838       1.47531838      10.32722863      -0.00001000      -0.00001000       0.00001000
P        4.41882639       1.46449544       7.36946314      -0.04087000       0.12292000      -0.04085000
P        1.46449544       4.41882639       7.36946314       0.12292000      -0.04087000      -0.04085000
P        4.42475127       4.42475127      10.32469108       0.01709000       0.01709000       0.03147000
P        1.47531838       7.37659188       4.42595512      -0.00001000       0.00000000      -0.00001000
P        4.42475127       7.37912942       1.47652223       0.01709000      -0.03146000      -0.01712000
P        1.46449544      10.33435736       1.48244711       0.12293000       0.04087000       0.04084000
P        4.41882639      10.33435736       4.43677806      -0.04087000       0.04087000      -0.12295000
P        1.47531838       7.37659188      10.32722863      -0.00001000       0.00000000       0.00001000
P        4.42475127       7.37405433       7.37538802       0.01709000       0.03146000       0.01711000
P        1.48614131      10.33435736       7.36946314      -0.12294000       0.04087000      -0.04085000
P        4.42475127      10.32843248      10.32976617       0.01709000      -0.01709000      -0.03144000
P        7.37659188       1.47531838       4.42595512       0.00000000      -0.00001000      -0.00001000
P       10.33435736       1.46449544       1.48244711       0.04087000       0.12293000       0.04084000
P        7.37912942       4.42475127       1.47652223      -0.03146000       0.01709000      -0.01712000
P       10.33435736       4.41882639       4.43677806       0.04087000      -0.04087000      -0.12295000
P        7.37659188       1.47531838      10.32722863       0.00000000      -0.00001000       0.00001000
P       10.33435736       1.48614131       7.36946314       0.04087000      -0.12294000      -0.04085000
P        7.37405433       4.42475127       7.37538802       0.03146000       0.01709000       0.01711000
P       10.32843248       4.42475127      10.32976617      -0.01709000       0.01709000      -0.03144000
P        7.37659188       7.37659188       4.42595512       0.00000000       0.00000000      -0.00001000
P       10.32843248       7.37405433       1.47652223      -0.01709000       0.03146000      -0.01712000
P        7.37405433      10.32843248       1.47652223       0.03146000      -0.01709000      -0.01712000
P       10.33435736      10.33435736       4.41513219       0.04087000       0.04087000       0.12292000
P        7.37659188       7.37659188      10.32722863       0.00000000       0.00000000       0.00001000
P       10.32843248       7.37912942       7.37538802      -0.01709000      -0.03146000       0.01711000
P        7.37912942      10.32843248       7.37538802      -0.03146000      -0.01709000       0.01711000
P       10.32843248      10.32843248      10.32469108      -0.01709000      -0.01709000       0.03147000
In       0.00030687       0.00030687      -0.00221888      -0.01100000      -0.01100000       0.00921000
In       2.89515298       0.05548377       3.00612052      -0.11119000       0.11120000       0.11121000
In       0.05548377       2.89515298       3.00612052       0.11120000      -0.11119000       0.11122000
In       2.95032988       2.95032988      -0.00221888       0.01102000       0.01102000       0.00921000
In       0.05548377       0.05548377       5.84578973       0.11120000       0.11120000      -0.11120000
In       2.95032988       0.00030687       8.85412913       0.01102000      -0.01100000      -0.00922000
In       0.00030687       2.95032988       8.85412913      -0.01100000       0.01102000      -0.00922000
In       2.89515298       2.89515298       5.84578973      -0.11120000      -0.11120000      -0.11120000
In      -0.00807294       5.90523916      -0.00396566       0.05042000      -0.09004000       0.09005000
In       2.95032988       5.90349238       2.95094362       0.01102000      -0.00920000      -0.01099000
In       0.00030687       8.84969137       2.95094362      -0.01100000       0.00919000      -0.01099000
In       2.95869789       8.84794459      -0.00396566      -0.05041000       0.09003000       0.09005000
In       0.00030687       5.90349238       5.90096663      -0.01100000      -0.00920000       0.01101000
In       2.95869789       5.90523916       8.85587591      -0.05041000      -0.09004000      -0.09006000
In      -0.00807294       8.84794459       8.85587591       0.05042000       0.09003000      -0.09006000
In       2.95032988       8.84969137       5.90096663       0.01102000       0.00919000       0.01101000
In       5.90523916      -0.00807294      -0.00396566      -0.09004000       0.05042000       0.09005000
In       8.84969137       0.00030687       2.95094362       0.00919000      -0.01100000      -0.01099000
In       5.90349238       2.95032988       2.95094362      -0.00920000       0.01102000      -0.01099000
In       8.84794459       2.95869789      -0.00396566       0.09003000      -0.05041000       0.09005000
In       5.90349238       0.00030687       5.90096663      -0.00919000      -0.01100000       0.01101000
In       8.84794459      -0.00807294       8.85587591       0.09003000       0.05042000      -0.09006000
In       5.90523916       2.95869789       8.85587591      -0.09004000      -0.05041000      -0.09006000
In       8.84969137       2.95032988       5.90096663       0.00919000       0.01102000       0.01101000
In       5.90211148       5.90211148      -0.00083798      -0.01975000      -0.01975000       0.01976000
In       8.84794459       5.90523916       2.94256381       0.09003000      -0.09004000       0.05043000
In       5.90523916       8.84794459       2.94256381      -0.09004000       0.09003000       0.05043000
In       8.85107227       8.85107227      -0.00083798       0.01974000       0.01974000       0.01976000
In       5.90523916       5.90523916       5.90933464      -0.09004000      -0.09004000      -0.05041000
In       8.85107227       5.90211148       8.85274823       0.01974000      -0.01975000      -0.01977000
In       5.90211148       8.85107227       8.85274823      -0.01975000       0.01974000      -0.01977000
In       8.84794459       8.84794459       5.90933464       0.09004000       0.09004000      -0.05041000
63
Lattice="11.802547 0.0 0.0 0.0 11.802547 0.0 0.0 0.0 11.802547" Properties=species:S:1:pos:R:3:forces:R:3 config_type=Vacancy energy=-62662.4359783 pbc="T T T"
P        4.41650128       1.48936341       1.48478402      -0.04412000      -0.17384000       0.04408000
P        1.48936341       4.41650128       1.48478402      -0.17384000      -0.04412000       0.04408000
P        4.41650128       4.41650128       4.41191009      -0.04412000      -0.04412000       0.17380000
P        1.47531838       1.47531838      10.32722863      -0.00001000      -0.00001000       0.00002000
P        4.41650128       1.46127334       7.36713803      -0.04412000       0.17381000      -0.04410000
P        1.46127334       4.41650128       7.36713803       0.17381000      -0.04412000      -0.04410000
P        4.42439719       4.42439719      10.32393571       0.02396000       0.02396000       0.04482000
P        1.47531838       7.37659188       4.42595512      -0.00001000       0.00000000      -0.00002000
P        4.42439719       7.37988479       1.47687631       0.02396000      -0.04479000      -0.02399000
P        1.46127334      10.33668247       1.48478402       0.17381000       0.04412000       0.04408000
P        4.41650128      10.33668247       4.44000016      -0.04412000       0.04412000      -0.17384000
P        1.47531838       7.37659188      10.32722863      -0.00001000       0.00000000       0.00002000
P        4.42439719       7.37329896       7.37503394       0.02396000       0.04480000       0.02398000
P        1.48936341      10.33668247       7.36712623      -0.17383000       0.04412000      -0.04410000
P        4.42439719      10.32878656      10.33052154       0.02396000      -0.02396000      -0.04478000
P        7.37659188       1.47531838       4.42595512       0.00000000      -0.00001000      -0.00002000
P       10.33668247       1.46127334       1.48478402       0.04412000       0.17381000       0.04408000
P        7.37988479       4.42439719       1.47687631      -0.04479000       0.02396000      -0.02399000
P       10.33668247       4.41650128       4.44000016       0.04412000      -0.04412000      -0.17384000
P        7.37659188       1.47531838      10.32722863       0.00000000      -0.00001000       0.00002000
P       10.33668247       1.48936341       7.36712623       0.04412000      -0.17383000      -0.04410000
P        7.37329896       4.42439719       7.37503394       0.04480000       0.02396000       0.02398000
P       10.32878656       4.42439719      10.33052154      -0.02396000       0.02396000      -0.04478000
P        7.37659188       7.37659188       4.42595512       0.00000000       0.00000000      -0.00002000
P       10.32878656       7.37329896       1.47687631      -0.02396000       0.04480000      -0.02399000
P        7.37329896      10.32878656       1.47687631       0.04480000      -0.02396000      -0.02399000
P       10.33668247      10.33668247       4.41191009       0.04411000       0.04411000       0.17380000
P        7.37659188       7.37659188      10.32722863       0.00000000       0.00000000       0.00002000
P       10.32878656       7.37988479       7.37503394      -0.02396000      -0.04480000       0.02398000
P        7.37988479      10.32878656       7.37503394      -0.04480000      -0.02396000       0.02398000
P       10.32878656      10.32878656      10.32393571      -0.02396000      -0.02396000       0.04482000
In       0.00037768       0.00037768      -0.00291523      -0.01449000      -0.01449000       0.01590000
In       2.87734293       0.07329382       3.02393057      -0.05442000       0.05443000       0.05445000
In       0.07329382       2.87734293       3.02393057       0.05443000      -0.05442000       0.05445000
In       2.95025907       2.95025907      -0.00291523       0.01451000       0.01451000       0.01589000
In       0.07329382       0.07329382       5.82797968       0.05443000       0.05443000      -0.05442000
In       2.95025907       0.00037768       8.85482548       0.01451000      -0.01449000      -0.01592000
In       0.00037768       2.95025907       8.85482548      -0.01449000       0.01451000      -0.01592000
In       2.87734293       2.87734293       5.82797968      -0.05443000      -0.05443000      -0.05443000
In      -0.01053967       5.90634860      -0.00507510       0.07740000      -0.12143000       0.12144000
In       2.95025907       5.90418873       2.95101443       0.01451000      -0.01588000      -0.01446000
In       0.00037768       8.84899502       2.95101443      -0.01449000       0.01588000      -0.01446000
In       2.96117642       8.84683515      -0.00507510      -0.07739000       0.12142000       0.12144000
In       0.00037768       5.90418873       5.90089582      -0.01449000      -0.01588000       0.01450000
In       2.96117642       5.90634860       8.85698535      -0.07738000      -0.12143000      -0.12146000
In      -0.01053967       8.84683515       8.85698535       0.07740000       0.12142000      -0.12146000
In       2.95025907       8.84899502       5.90089582       0.01451000       0.01587000       0.01450000
In       5.90634860      -0.01053967      -0.00507510      -0.12143000       0.07740000       0.12144000
In       8.84899502       0.00037768       2.95101443       0.01588000      -0.01449000      -0.01446000
In       5.90418873       2.95025907       2.95101443      -0.01588000       0.01451000      -0.01447000
In       8.84683515       2.96117642      -0.00507510       0.12142000      -0.07739000       0.12144000
In       5.90418873       0.00037768       5.90089582      -0.01588000      -0.01449000       0.01450000
In       8.84683515      -0.01053967       8.85698535       0.12142000       0.07740000      -0.12146000
In       5.90634860       2.96117642       8.85698535      -0.12143000      -0.07738000      -0.12146000
In       8.84899502       2.95025907       5.90089582       0.01587000       0.01451000       0.01450000
In       5.90234753       5.90234753      -0.00107403      -0.02665000      -0.02665000       0.02667000
In       8.84683515       5.90634860       2.94009708       0.12142000      -0.12143000       0.07742000
In       5.90634860       8.84683515       2.94009708      -0.12143000       0.12142000       0.07742000
In       8.85083622       8.85083622      -0.00107403       0.02665000       0.02665000       0.02667000
In       5.90634860       5.90634860       5.91181317      -0.12143000      -0.12143000      -0.07739000
In       8.85083622       5.90234753       8.85298428       0.02665000      -0.02665000      -0.02669000
In       5.90234753       8.85083622       8.85298428      -0.02665000       0.02665000      -0.02669000
In       8.84683515       8.84683515       5.91181317       0.12142000       0.12142000      -0.07739000
63
Lattice="11.802547 0.0 0.0 0.0 11.802547 0.0 0.0 0.0 11.802547" Properties=species:S:1:pos:R:3:forces:R:3 config_type=Vacancy energy=-62662.43733833 pbc="T T T"
P        4.41624163       1.48938701       1.48503187      -0.04498000      -0.17497000       0.04494000
P        1.48938701       4.41624163       1.48503187      -0.17497000      -0.04498000       0.04494000
P        4.41624163       4.41624163       4.41188649      -0.04497000      -0.04497000       0.17493000
P        1.47531838       1.47531838      10.32722863      -0.00001000      -0.00001000       0.00002000
P        4.41624163       1.46124974       7.36687838      -0.04498000       0.17494000      -0.04495000
P        1.46124974       4.41624163       7.36687838       0.17494000      -0.04498000      -0.04495000
P        4.42439719       4.42439719      10.32393571       0.02400000       0.02400000       0.04492000
P        1.47531838       7.37659188       4.42595512      -0.00001000       0.00000000      -0.00002000
P        4.42439719       7.37988479       1.47687631       0.02400000      -0.04490000      -0.02404000
P        1.46124974      10.33694212       1.48503187       0.17494000       0.04498000       0.04494000
P        4.41624163      10.33694212       4.44002376      -0.04497000       0.04497000      -0.17497000
P        1.47531838       7.37659188      10.32722863      -0.00001000       0.00000000       0.00002000
P        4.42439719       7.37329896       7.37503394       0.02400000       0.04490000       0.02403000
P        1.48938701      10.33694212       7.36687838      -0.17496000       0.04498000      -0.04495000
P        4.42439719      10.32878656      10.33052154       0.02401000      -0.02400000      -0.04488000
P        7.37659188       1.47531838       4.42595512       0.00000000      -0.00001000      -0.00002000
P       10.33694212       1.46124974       1.48503187       0.04498000       0.17494000       0.04494000
P        7.37988479       4.42439719       1.47687631      -0.04490000       0.02400000      -0.02404000
P       10.33694212       4.41624163       4.44002376       0.04497000      -0.04497000      -0.17497000
P        7.37659188       1.47531838      10.32722863       0.00000000      -0.00001000       0.00002000
P       10.33694212       1.48938701       7.36687838       0.04498000      -0.17496000      -0.04495000
P        7.37329896       4.42439719       7.37503394       0.04490000       0.02400000       0.02403000
P       10.32878656       4.42439719      10.33052154      -0.02400000       0.02401000      -0.04488000
P        7.37659188       7.37659188       4.42595512       0.00000000       0.00000000      -0.00002000
P       10.32878656       7.37329896       1.47687631      -0.02400000       0.04490000      -0.02404000