 +-------------------------------------------------+
 |                                                 |
 |      CCC   AA    SSS  TTTTT  EEEEE  PPPP        |
 |     C     A  A  S       T    E      P   P       |
 |     C     AAAA   SS     T    EEE    PPPP        |
 |     C     A  A     S    T    E      P           |
 |      CCC  A  A  SSS     T    EEEEE  P           |
 |                                                 |
 +-------------------------------------------------+
 |                                                 |
 | Welcome to Academic Release CASTEP version 24.1 |
 | Ab Initio Total Energy Program                  |
 |                                                 |
 | Authors:                                        |
 | M. Segall, M. Probert, C. Pickard, P. Hasnip,   |
 | S. Clark, K. Refson, J. R. Yates,               |
 | A. Bartok-Partay, M. Payne                      |
 |                                                 |
 | Contributors:                                   |
 | P. Lindan, P. Haynes, J. White, V. Milman,      |
 | N. Govind, M. Gibson, P. Tulip, V. Cocula,      |
 | B. Montanari, D. Quigley, M. Glover,            |
 | L. Bernasconi, A. Perlov, M. Plummer,           |
 | E. McNellis, J. Meyer, J. Gale, D. Jochym       |
 | J. Aarons, B. Walker, R. Gillen, D. Jones       |
 | T. Green, I. J. Bush, C. J. Armstrong,          |
 | E. J. Higgins, E. L. Brown, M. S. McFly,        |
 | J. Wilkins, B-C. Shih, P. J. P. Byrne,          |
 | R. J. Maurer, J. C. Womack, J. Dziedzic,        |
 | L. LeBlanc, T. K. Stenczel, J. Kermode,         |
 | S. Sturniolo, B. Shi, B. Durham, M. Evans,      |
 | M. J. Smith, A. Tamerus, Z. Hawkhead,           |
 | V. Ravindran, T. Hollins, S. A. Joyce,          |
 | R. T. Strong, A. M. Reilly, S. J. Donaldson     |
 |                                                 |
 | Copyright (c) 2000 - 2023                       |
 |                                                 |
 |     Distributed under license from Cambridge    |
 |     Enterprise for academic use only.           |
 |                                                 |
 | Please cite                                     |
 |                                                 |
 |     "First principles methods using CASTEP"     |
 |                                                 |
 |         Zeitschrift fuer Kristallographie       |
 |           220(5-6) pp. 567-570 (2005)           |
 |                                                 |
 | S. J. Clark, M. D. Segall, C. J. Pickard,       |
 | P. J. Hasnip, M. J. Probert, K. Refson,         |
 | M. C. Payne                                     |
 |                                                 |
 |       in all publications arising from          |
 |              your use of CASTEP                 |
 |                                                 |
 +-------------------------------------------------+
 |                                                 |
 |              http://www.castep.org              |
 |                                                 |
 +-------------------------------------------------+



 Compiled for  GNU 11.2.0 on 04-04-2024 18:39:17
 from code version 6355fd106 Castep241_branch Thu Mar 7 17:56:19 2024 +0000
 Compiler: GNU Fortran 11.2.0; Optimisation: FAST
 Comms   : MPI VERSION : CRAY MPICH version 8.1.23.14 (ANL base 3.4a2)
 MATHLIBS: default (LAPACK version 3.10.1)
 FFT Lib : fftw3 version commercial-fftw-3.3.10-sse2-avx-avx2-avx2_128
 Fundamental constants values: CODATA 2018

 Run started: Sun, 27 Apr 2025 04:36:43 +0100

 Atomic calculation performed for P: 1s2 2s2 2p6 3s2 3p3

 Converged in 47 iterations to an ae energy of -9309.074 eV

   ============================================================                
   | Pseudopotential Report - Date of generation 27-04-2025   |                
   ------------------------------------------------------------                
   | Element: P Ionic charge:  5.00 Level of theory: RSCAN    |                
   | Atomic Solver: Koelling-Harmon                           |                
   |                                                          |                
   |               Reference Electronic Structure             |                
   |         Orbital         Occupation         Energy        |                
   |            3s              2.000           -0.535        |                
   |            3p              3.000           -0.209        |                
   |                                                          |                
   |                 Pseudopotential Definition               |                
   |        Beta     l      e      Rc     scheme   norm       |                
   |          1      0   -0.535   1.807     qc      0         |                
   |          2      0    0.250   1.807     qc      0         |                
   |          3      1   -0.209   1.807     qc      0         |                
   |          4      1    0.250   1.807     qc      0         |                
   |          5      2    0.000   1.807     qc      0         |                
   |          6      2    0.250   1.807     qc      0         |                
   |         loc     3    0.000   1.807     pn      0         |                
   |                                                          |                
   | Augmentation charge Rinner = 1.263                       |                
   | Partial core correction Rc = 1.263                       |                
   ------------------------------------------------------------                
   | "3|1.8|4|4|5|30:31:32"                                   |                
   ------------------------------------------------------------                
   |      Author: Chris J. Pickard, Cambridge University      |                
   ============================================================                
 Warning: otfg_output_psp cannot write out meta-GGA pseudopotentials presently.

 Atomic calculation performed for In:
 1s2 2s2 2p6 3s2 3p6 3d10 4s2 4p6 4d10 5s2 5p1

 Converged in 84 iterations to an ae energy of -160093.328 eV

   ============================================================                
   | Pseudopotential Report - Date of generation 27-04-2025   |                
   ------------------------------------------------------------                
   | Element: In Ionic charge: 13.00 Level of theory: RSCAN   |                
   | Atomic Solver: Koelling-Harmon                           |                
   |                                                          |                
   |               Reference Electronic Structure             |                
   |         Orbital         Occupation         Energy        |                
   |            4d             10.000           -0.711        |                
   |            5s              2.000           -0.313        |                
   |            5p              1.000           -0.095        |                
   |                                                          |                
   |                 Pseudopotential Definition               |                
   |        Beta     l      e      Rc     scheme   norm       |                
   |          1      0   -0.313   2.501     qc      0         |                
   |          2      0    0.250   2.501     qc      0         |                
   |          3      1   -0.095   2.501     qc      0         |                
   |          4      1    0.250   2.501     qc      0         |                
   |          5      2   -0.711   2.207     qc      0         |                
   |          6      2    0.250   2.207     qc      0         |                
   |         loc     3    0.000   2.501     pn      0         |                
   |                                                          |                
   | Augmentation charge Rinner = 1.504                       |                
   | Partial core correction Rc = 1.504                       |                
   ------------------------------------------------------------                
   | "3|2.5|2.5|1.5|7|8|9|50:51:42U2.2U2.2"                   |                
   ------------------------------------------------------------                
   |      Author: Chris J. Pickard, Cambridge University      |                
   ============================================================                
 Warning: otfg_output_psp cannot write out meta-GGA pseudopotentials presently.

 Pseudo atomic calculation performed for P 3s2 3p3

 Converged in 23 iterations to a total energy of -208.0292 eV

 Pseudo atomic calculation performed for In 4d10 5s2 5p1

 Converged in 42 iterations to a total energy of -1747.4501 eV
 Calculation parallelised over 108 processes.
 Data is distributed by G-vector(3-way) and k-point(36-way)
 Each process may use up to 16 threads.

 ************************************ Title ************************************
 

 ***************************** General Parameters ******************************
  
 output verbosity                               : normal  (1)
 write checkpoint data to                       : In_Interstitial_Migration_Tetra_Octa_Singlepoints_2.check
 type of calculation                            : single point energy
 stress calculation                             : off
 density difference calculation                 : off
 electron localisation func (ELF) calculation   : off
 Hirshfeld analysis                             : on
 polarisation (Berry phase) analysis            : off
 molecular orbital projected DOS                : off
 deltaSCF calculation                           : off
 unlimited duration calculation
 timing information                             : on
 memory usage estimate                          : on
 write extra output files                       : on
 write final potential to formatted file        : off
 write final density to formatted file          : off
 write BibTeX reference list                    : on
 write OTFG pseudopotential files               : on
 write electrostatic potential file             : on
 write bands file                               : on
 checkpoint writing                             : off
  
 output         length unit                     : A
 output           mass unit                     : amu
 output           time unit                     : ps
 output         charge unit                     : e
 output           spin unit                     : hbar/2
 output         energy unit                     : eV
 output          force unit                     : eV/A
 output       velocity unit                     : A/ps
 output       pressure unit                     : GPa
 output     inv_length unit                     : 1/A
 output      frequency unit                     : cm-1
 output force constant unit                     : eV/A**2
 output         volume unit                     : A**3
 output   IR intensity unit                     : (D/A)**2/amu
 output         dipole unit                     : D
 output         efield unit                     : eV/A/e
 output        entropy unit                     : J/mol/K
 output    efield chi2 unit                     : pm/V
  
 wavefunctions paging                           : none
 random number generator seed                   :   43644053
 data distribution                              : optimal for this architecture
 optimization strategy                          : balance speed and memory

 *********************** Exchange-Correlation Parameters ***********************
  
 using functional                               : RSCAN
 relativistic treatment                         : Koelling-Harmon
 DFT+D: Semi-empirical dispersion correction    : off

 ************************* Pseudopotential Parameters **************************
  
 pseudopotential representation                 : reciprocal space
 <beta|phi> representation                      : reciprocal space
 spin-orbit coupling                            : off

 **************************** Basis Set Parameters *****************************
  
 plane wave basis set cut-off                   :   900.0000   eV
 size of standard grid                          :     2.0000
 size of   fine   gmax                          :    30.7390   1/A
 finite basis set correction                    : none

 **************************** Electronic Parameters ****************************
  
 number of  electrons                           :  589.0    
 net charge of system                           :  0.000    
 net spin   of system                           :  1.000    
 number of  up  spins                           :  295.0    
 number of down spins                           :  294.0    
 treating system as spin-polarized
 number of bands                                :        354

 ********************* Electronic Minimization Parameters **********************
  
 Method: Treating system as metallic with density mixing treatment of electrons,
         and number of  SD  steps               :          1
         and number of  CG  steps               :          4
  
 total energy / atom convergence tol.           : 0.1000E-07   eV
 eigen-energy convergence tolerance             : 0.2203E-08   eV
 max force / atom convergence tol.              : ignored
 convergence tolerance window                   :          3   cycles
 max. number of SCF cycles                      :        100
 number of fixed-spin iterations                :         10
 smearing scheme                                : Gaussian
 smearing width                                 : 0.2000       eV
 Fermi energy convergence tolerance             : 0.2721E-13   eV
 periodic dipole correction                     : NONE

 ************************** Density Mixing Parameters **************************
  
 density-mixing scheme                          : Pulay
 max. length of mixing history                  :         20
 charge density mixing amplitude                : 0.5000    
   spin density mixing amplitude                :  2.000    
 cut-off energy for mixing                      :  900.0       eV

 *********************** Population Analysis Parameters ************************
  
 Population analysis with cutoff                :  3.000       A
 Population analysis output                     : summary and pdos components

 *******************************************************************************
  

                           -------------------------------
                                      Unit Cell
                           -------------------------------
        Real Lattice(A)                      Reciprocal Lattice(1/A)
    11.8025500     0.0000000     0.0000000        0.532358288   0.000000000   0.000000000
     0.0000000    11.8025500     0.0000000        0.000000000   0.532358288   0.000000000
     0.0000000     0.0000000    11.8025500        0.000000000   0.000000000   0.532358288

                       Lattice parameters(A)       Cell Angles
                    a =     11.802550          alpha =   90.000000
                    b =     11.802550          beta  =   90.000000
                    c =     11.802550          gamma =   90.000000

                       Current cell volume =          1644.097416       A**3
                                   density =             2.907464   AMU/A**3
                                           =             4.827958     g/cm^3

                           -------------------------------
                                     Cell Contents
                           -------------------------------
                         Total number of ions in cell =   65
                      Total number of species in cell =    2
                        Max number of any one species =   33

            xxxxxxxxxxxxxxxxxxxxxxxxxxxxxxxxxxxxxxxxxxxxxxxxxxxxxxxxxxxx
            x  Element    Atom        Fractional coordinates of atoms  x
            x            Number           u          v          w      x
            x----------------------------------------------------------x
            x  P            1         0.130310   0.119690   0.379810   x 
            x  P            2         0.383864   0.127653   0.128523   x 
            x  P            3         0.130310   0.378939   0.120560   x 
            x  P            4         0.375389   0.377300   0.378171   x 
            x  P            5         0.122347   0.127653   0.867007   x 
            x  P            6         0.376870   0.123241   0.623927   x 
            x  P            7         0.125400   0.375202   0.624559   x 
            x  P            8         0.390036   0.384852   0.860834   x 
            x  P            9         0.125400   0.623689   0.376072   x 
            x  P           10         0.376870   0.623057   0.124111   x 
            x  P           11         0.122347   0.866136   0.128523   x 
            x  P           12         0.390036   0.859964   0.385722   x 
            x  P           13         0.126759   0.623057   0.874000   x 
            x  P           14         0.378072   0.625672   0.626542   x 
            x  P           15         0.126759   0.873130   0.623927   x 
            x  P           16         0.371347   0.878653   0.879523   x 
            x  P           17         0.626311   0.124600   0.376072   x 
            x  P           18         0.871060   0.119690   0.120560   x 
            x  P           19         0.626311   0.375202   0.125470   x 
            x  P           20         0.883381   0.366619   0.367489   x 
            x  P           21         0.626943   0.123241   0.874000   x 
            x  P           22         0.874798   0.124600   0.624559   x 
            x  P           23         0.629788   0.373435   0.621082   x 
            x  P           24         0.872700   0.377300   0.875481   x 
            x  P           25         0.629788   0.620212   0.374305   x 
            x  P           26         0.874798   0.623689   0.125470   x 
            x  P           27         0.626943   0.873130   0.124111   x 
            x  P           28         0.872700   0.874611   0.378171   x 
            x  P           29         0.624328   0.625672   0.872798   x 
            x  P           30         0.876565   0.620212   0.621082   x 
            x  P           31         0.624328   0.871928   0.626542   x 
            x  P           32         0.865148   0.859964   0.860834   x 
            x  In           1        -0.023336  -0.015917  -0.015047   x 
            x  In           2         0.265917  -0.015917   0.274206   x 
            x  In           3         0.009776   0.240224   0.241094   x 
            x  In           4         0.265917   0.273336  -0.015047   x 
            x  In           5        -0.000239  -0.001418   0.502262   x 
            x  In           6         0.249571   0.000429   0.748078   x 
            x  In           7        -0.004472   0.254472   0.747607   x 
            x  In           8         0.251418   0.250239   0.502262   x 
            x  In           9        -0.000239   0.501392  -0.000547   x 
            x  In          10         0.251418   0.501392   0.251109   x 
            x  In          11        -0.004472   0.746737   0.255342   x 
            x  In          12         0.249571   0.747207   0.001299   x 
            x  In          13         0.000243   0.494939   0.495809   x 
            x  In          14         0.250343   0.502169   0.745426   x 
            x  In          15         0.003995   0.743017   0.743887   x 
            x  In          16         0.250343   0.744555   0.503039   x 
            x  In          17         0.502793   0.000429   0.001299   x 
            x  In          18         0.748608  -0.001418   0.251109   x 
            x  In          19         0.503263   0.254472   0.255342   x 
            x  In          20         0.748608   0.250239  -0.000547   x 
            x  In          21         0.505445  -0.000343   0.503039   x 
            x  In          22         0.747831  -0.000343   0.745426   x 
            x  In          23         0.506983   0.246005   0.743887   x 
            x  In          24         0.755061   0.249757   0.495809   x 
            x  In          25         0.505445   0.502169   0.000527   x 
            x  In          26         0.755061   0.494939   0.250627   x 
            x  In          27         0.506983   0.743017   0.246875   x 
            x  In          28         0.747831   0.744555   0.000527   x 
            x  In          29         0.502697   0.500736   0.501606   x 
            x  In          30         0.749264   0.500736   0.748173   x 
            x  In          31         0.496529   0.753471   0.754342   x 
            x  In          32         0.749264   0.747303   0.501606   x 
            x  In          33         0.160057   0.089943   0.090814   x 
            xxxxxxxxxxxxxxxxxxxxxxxxxxxxxxxxxxxxxxxxxxxxxxxxxxxxxxxxxxxx


                         No user defined ionic velocities

                           -------------------------------
                                   Details of Species
                           -------------------------------

                               Mass of species in AMU
                                    P   30.9737600
                                    In  114.8180000

                          Electric Quadrupole Moment (Barn)
                                    P    1.0000000 No Isotope Defined
                                    In    0.7700000 Isotope115

                          Files used for pseudopotentials:
                                    P 3|1.8|4|4|5|30:31:32
                                    In 3|2.5|2.5|1.5|7|8|9|50:51:42U2.2U2.2

                           -------------------------------
                              k-Points For BZ Sampling
                           -------------------------------
                       MP grid size for SCF calculation is  4  4  4
                            with an offset of   0.125  0.125  0.125
                       Number of kpoints used =            36

                           -------------------------------
                               Symmetry and Constraints
                           -------------------------------

                      Maximum deviation from symmetry =  0.00000         ANG

                      Number of symmetry operations   =           1
                      Number of ionic constraints     =           3
                      Point group of crystal =     1: C1, 1, 1
                      Space group of crystal =   160: R3m, R 3 -2"

             Set iprint > 1 for details on symmetry rotations/translations

                         Centre of mass is constrained
             Set iprint > 1 for details of linear ionic constraints

                         Number of cell constraints= 0
                         Cell constraints are:  1 2 3 4 5 6

                         External pressure/stress (GPa)
                          0.00000   0.00000   0.00000
                                    0.00000   0.00000
                                              0.00000
 
+---------------- MEMORY AND SCRATCH DISK ESTIMATES PER PROCESS --------------+
|                                                     Memory          Disk    |
| Baseline code, static data and system overhead      368.0 MB         0.0 MB |
| BLAS internal memory storage                          0.0 MB         0.0 MB |
| Model and support data                             4331.9 MB         0.0 MB |
| Electronic energy minimisation requirements        1349.7 MB         0.0 MB |
| Force calculation requirements                      127.4 MB         0.0 MB |
|                                               ----------------------------- |
| Approx. total storage required per process         6049.6 MB         0.0 MB |
|                                                                             |
| Requirements will fluctuate during execution and may exceed these estimates |
+-----------------------------------------------------------------------------+
Calculating approximate eigenstates for fixed initial Hamiltonian
Cut-off for approx. calculation is   89.988 eV
Improving approx. states at cut-off of  450.000 eV
Resetting cut-off to  900.000 eV
Calculating total energy with cut-off of  900.000 eV.
------------------------------------------------------------------------ <-- SCF
SCF loop      Energy           Fermi           Energy gain       Timer   <-- SCF
                               energy          per atom          (sec)   <-- SCF
------------------------------------------------------------------------ <-- SCF
Initial  -6.48021055E+004  0.00000000E+000                       456.50  <-- SCF
      1  -6.45474289E+004  3.76921939E+000  -3.91810286E+000     905.01  <-- SCF
      2  -6.45477418E+004  3.76402420E+000   4.81482180E-003    1220.98  <-- SCF
      3  -6.46176366E+004  3.94461163E+000   1.07530363E+000    1568.44  <-- SCF
      4  -6.46299894E+004  4.01155597E+000   1.90043425E-001    2066.89  <-- SCF
      5  -6.46367858E+004  4.17121303E+000   1.04559975E-001    2419.72  <-- SCF
      6  -6.46254722E+004  4.40557252E+000  -1.74055327E-001    2771.77  <-- SCF
      7  -6.46241822E+004  4.45022844E+000  -1.98456437E-002    3111.56  <-- SCF
      8  -6.46242377E+004  4.48080148E+000   8.53681319E-004    3484.92  <-- SCF
      9  -6.46250305E+004  4.49997784E+000   1.21970715E-002    3844.85  <-- SCF
     10  -6.46254564E+004  4.77110063E+000   6.55162711E-003    4195.19  <-- SCF
     11  -6.46254700E+004  4.76459382E+000   2.09367967E-004    4567.94  <-- SCF
     12  -6.46254754E+004  4.76214041E+000   8.27018728E-005    4940.94  <-- SCF
     13  -6.46254779E+004  4.75880027E+000   3.88949391E-005    5306.17  <-- SCF
     14  -6.46254784E+004  4.75738390E+000   8.07936016E-006    5679.87  <-- SCF
     15  -6.46254786E+004  4.75684559E+000   3.37522802E-006    6029.53  <-- SCF
     16  -6.46254787E+004  4.75631813E+000   1.15042151E-006    6362.29  <-- SCF
     17  -6.46254787E+004  4.75602899E+000   3.58339526E-007    6697.09  <-- SCF
     18  -6.46254787E+004  4.75599918E+000   1.28559519E-007    7001.15  <-- SCF
     19  -6.46254787E+004  4.75602143E+000   6.12670917E-008    7284.39  <-- SCF
     20  -6.46254787E+004  4.75604682E+000   1.11361137E-008    7540.73  <-- SCF
     21  -6.46254787E+004  4.75605502E+000   1.37469019E-009    7801.60  <-- SCF
     22  -6.46254787E+004  4.75605955E+000   3.70658052E-010    8056.16  <-- SCF
------------------------------------------------------------------------ <-- SCF
 
Integrated Spin Density     =   -0.538602E-04 hbar/2
Integrated |Spin Density|   =    0.281289E-03 hbar/2
 
Final energy, E             =  -64625.35227751     eV
Final free energy (E-TS)    =  -64625.47873918     eV
(energies not corrected for finite basis set)
 
NB est. 0K energy (E-0.5TS)      =  -64625.41550834     eV
 

 ************************** Forces **************************
 *                                                          *
 *               Cartesian components (eV/A)                *
 * -------------------------------------------------------- *
 *                         x            y            z      *
 *                                                          *
 * P               1     -0.02659      0.02658      0.00545 *
 * P               2     -0.02459     -0.12497     -0.12743 *
 * P               3     -0.02677      0.00970      0.02281 *
 * P               4     -0.03946     -0.03474     -0.03679 *
 * P               5      0.12578     -0.12578      0.02823 *
 * P               6      0.02073      0.00457      0.01931 *
 * P               7     -0.00634     -0.01398      0.00430 *
 * P               8      0.05059      0.02163     -0.05160 *
 * P               9     -0.00598      0.00232     -0.01177 *
 * P              10      0.02080      0.01821      0.00605 *
 * P              11      0.12497      0.02460     -0.12743 *
 * P              12      0.05074     -0.05074      0.02184 *
 * P              13     -0.00459      0.01825     -0.01953 *
 * P              14      0.04172     -0.01633     -0.01397 *
 * P              15     -0.00457     -0.02074      0.01931 *
 * P              16      0.06807     -0.06808     -0.07259 *
 * P              17     -0.00233      0.00597     -0.01177 *
 * P              18     -0.00970      0.02677      0.02281 *
 * P              19     -0.00259     -0.01411      0.00871 *
 * P              20     -0.04727      0.04727      0.04935 *
 * P              21     -0.01824      0.00458     -0.01953 *
 * P              22      0.01397      0.00633      0.00429 *
 * P              23      0.00461      0.02231     -0.00857 *
 * P              24      0.03547     -0.03547      0.04277 *
 * P              25      0.00462     -0.00462      0.02501 *
 * P              26      0.01411      0.00258      0.00872 *
 * P              27     -0.01820     -0.02080      0.00605 *
 * P              28      0.03474      0.03945     -0.03679 *
 * P              29      0.01661     -0.01662     -0.04222 *
 * P              30     -0.02231     -0.00460     -0.00857 *
 * P              31      0.01633     -0.04171     -0.01398 *
 * P              32     -0.02163     -0.05060     -0.05160 *
 * In              1     -0.04164      0.01441      0.01432 *
 * In              2     -0.01440      0.01440      0.04157 *
 * In              3      0.09065     -0.09065     -0.09068 *
 * In              4     -0.01440      0.04164      0.01431 *
 * In              5      0.04756     -0.00134     -0.00482 *
 * In              6     -0.00225      0.00226     -0.03778 *
 * In              7     -0.02197      0.02198     -0.07879 *
 * In              8      0.00134     -0.04755     -0.00482 *
 * In              9      0.04760     -0.00479     -0.00138 *
 * In             10      0.00134     -0.00476     -0.04761 *
 * In             11     -0.02201     -0.07862      0.02178 *
 * In             12     -0.00230     -0.03766      0.00222 *
 * In             13      0.00686      0.00319      0.00299 *
 * In             14     -0.03123      0.00087      0.02267 *
 * In             15      0.00767     -0.02453     -0.02466 *
 * In             16     -0.03123      0.02284      0.00072 *
 * In             17      0.03766      0.00231      0.00222 *
 * In             18      0.00475     -0.00133     -0.04762 *
 * In             19      0.07863      0.02201      0.02177 *
 * In             20      0.00478     -0.04759     -0.00138 *
 * In             21     -0.02283      0.03124      0.00072 *
 * In             22     -0.00088      0.03124      0.02267 *
 * In             23      0.02452     -0.00766     -0.02466 *
 * In             24     -0.00319     -0.00686      0.00300 *
 * In             25     -0.02285      0.00086      0.03117 *
 * In             26     -0.00317      0.00317     -0.00698 *
 * In             27      0.02453     -0.02453     -0.00788 *
 * In             28     -0.00086      0.02286      0.03117 *
 * In             29     -0.00191     -0.02472     -0.02479 *
 * In             30      0.02472     -0.02473      0.00181 *
 * In             31     -0.01105      0.01105      0.01084 *
 * In             32      0.02471      0.00191     -0.02479 *
 * In             33     -0.54185      0.54184      0.54180 *
 *                                                          *
 ************************************************************

 Pseudo atomic calculation performed for P 3s2 3p3

 Converged in 23 iterations to a total energy of -208.0292 eV

 Pseudo atomic calculation performed for In 4d10 5s2 5p1

 Converged in 42 iterations to a total energy of -1747.4501 eV
Charge spilling parameter for spin component 1 = 0.26%
Charge spilling parameter for spin component 2 = 0.26%

                   Orbital Populations                  
  ---------------------------------------------------------------
     Ion    Atom   Orbital              Up        Down      Spin
  ---------------------------------------------------------------
      P     1      S                    0.873     0.873     0.000
      P     1      Px                   0.649     0.649    -0.000
      P     1      Py                   0.649     0.649     0.000
      P     1      Pz                   0.645     0.645    -0.000
      P     2      S                    0.883     0.883    -0.000
      P     2      Px                   0.627     0.627    -0.000
      P     2      Py                   0.654     0.654    -0.000
      P     2      Pz                   0.654     0.654    -0.000
      P     3      S                    0.873     0.873    -0.000
      P     3      Px                   0.649     0.649    -0.000
      P     3      Py                   0.645     0.645    -0.000
      P     3      Pz                   0.649     0.649    -0.000
      P     4      S                    0.868     0.868    -0.000
      P     4      Px                   0.655     0.655    -0.000
      P     4      Py                   0.657     0.657     0.000
      P     4      Pz                   0.657     0.657    -0.000
      P     5      S                    0.883     0.883    -0.000
      P     5      Px                   0.654     0.654    -0.000
      P     5      Py                   0.654     0.654    -0.000
      P     5      Pz                   0.627     0.627    -0.000
      P     6      S                    0.868     0.868     0.000
      P     6      Px                   0.653     0.653    -0.000
      P     6      Py                   0.658     0.657     0.000
      P     6      Pz                   0.658     0.658    -0.000
      P     7      S                    0.868     0.868     0.000
      P     7      Px                   0.655     0.655    -0.000
      P     7      Py                   0.657     0.657    -0.000
      P     7      Pz                   0.656     0.656    -0.000
      P     8      S                    0.869     0.869    -0.000
      P     8      Px                   0.654     0.654    -0.000
      P     8      Py                   0.657     0.657    -0.000
      P     8      Pz                   0.654     0.654    -0.000
      P     9      S                    0.868     0.868    -0.000
      P     9      Px                   0.655     0.655    -0.000
      P     9      Py                   0.656     0.656    -0.000
      P     9      Pz                   0.657     0.657    -0.000
      P    10      S                    0.868     0.868     0.000
      P    10      Px                   0.653     0.653    -0.000
      P    10      Py                   0.658     0.658    -0.000
      P    10      Pz                   0.657     0.657     0.000
      P    11      S                    0.883     0.883    -0.000
      P    11      Px                   0.654     0.654    -0.000
      P    11      Py                   0.627     0.627    -0.000
      P    11      Pz                   0.654     0.654    -0.000
      P    12      S                    0.869     0.869    -0.000
      P    12      Px                   0.654     0.654     0.000
      P    12      Py                   0.654     0.654    -0.000
      P    12      Pz                   0.657     0.657    -0.000
      P    13      S                    0.868     0.868    -0.000
      P    13      Px                   0.658     0.657     0.000
      P    13      Py                   0.658     0.658    -0.000
      P    13      Pz                   0.653     0.653     0.000
      P    14      S                    0.866     0.866    -0.000
      P    14      Px                   0.655     0.655    -0.000
      P    14      Py                   0.658     0.658     0.000
      P    14      Pz                   0.658     0.658     0.000
      P    15      S                    0.868     0.868    -0.000
      P    15      Px                   0.657     0.657     0.000
      P    15      Py                   0.653     0.653    -0.000
      P    15      Pz                   0.658     0.658    -0.000
      P    16      S                    0.869     0.869    -0.000
      P    16      Px                   0.656     0.656     0.000
      P    16      Py                   0.656     0.656     0.000
      P    16      Pz                   0.656     0.656    -0.000
      P    17      S                    0.868     0.868     0.000
      P    17      Px                   0.656     0.656    -0.000
      P    17      Py                   0.655     0.655    -0.000
      P    17      Pz                   0.657     0.657    -0.000
      P    18      S                    0.873     0.873     0.000
      P    18      Px                   0.645     0.645    -0.000
      P    18      Py                   0.649     0.649    -0.000
      P    18      Pz                   0.649     0.649    -0.000
      P    19      S                    0.868     0.868    -0.000
      P    19      Px                   0.656     0.656    -0.000
      P    19      Py                   0.657     0.657    -0.000
      P    19      Pz                   0.655     0.655    -0.000
      P    20      S                    0.872     0.872     0.000
      P    20      Px                   0.654     0.654     0.000
      P    20      Py                   0.654     0.654     0.000
      P    20      Pz                   0.654     0.654     0.000
      P    21      S                    0.868     0.868    -0.000
      P    21      Px                   0.658     0.658    -0.000
      P    21      Py                   0.658     0.657     0.000
      P    21      Pz                   0.653     0.653     0.000
      P    22      S                    0.868     0.868     0.000
      P    22      Px                   0.657     0.657    -0.000
      P    22      Py                   0.655     0.655    -0.000
      P    22      Pz                   0.656     0.656     0.000
      P    23      S                    0.867     0.867     0.000
      P    23      Px                   0.657     0.657    -0.000
      P    23      Py                   0.654     0.654    -0.000
      P    23      Pz                   0.657     0.657    -0.000
      P    24      S                    0.868     0.868    -0.000
      P    24      Px                   0.657     0.657    -0.000
      P    24      Py                   0.657     0.657     0.000
      P    24      Pz                   0.655     0.655     0.000
      P    25      S                    0.867     0.867     0.000
      P    25      Px                   0.657     0.657    -0.000
      P    25      Py                   0.657     0.657     0.000
      P    25      Pz                   0.654     0.654    -0.000
      P    26      S                    0.868     0.868    -0.000
      P    26      Px                   0.657     0.657    -0.000
      P    26      Py                   0.656     0.656    -0.000
      P    26      Pz                   0.655     0.655    -0.000
      P    27      S                    0.868     0.868    -0.000
      P    27      Px                   0.658     0.658    -0.000
      P    27      Py                   0.653     0.653    -0.000
      P    27      Pz                   0.657     0.657    -0.000
      P    28      S                    0.868     0.868     0.000
      P    28      Px                   0.657     0.657     0.000
      P    28      Py                   0.655     0.655    -0.000
      P    28      Pz                   0.657     0.657     0.000
      P    29      S                    0.866     0.866    -0.000
      P    29      Px                   0.658     0.658    -0.000
      P    29      Py                   0.658     0.658    -0.000
      P    29      Pz                   0.655     0.655    -0.000
      P    30      S                    0.867     0.867     0.000
      P    30      Px                   0.654     0.654     0.000
      P    30      Py                   0.657     0.657     0.000
      P    30      Pz                   0.657     0.657     0.000
      P    31      S                    0.866     0.866    -0.000
      P    31      Px                   0.658     0.658    -0.000
      P    31      Py                   0.655     0.655    -0.000
      P    31      Pz                   0.658     0.658    -0.000
      P    32      S                    0.869     0.869    -0.000
      P    32      Px                   0.657     0.657    -0.000
      P    32      Py                   0.654     0.654    -0.000
      P    32      Pz                   0.654     0.654    -0.000
     In     1      Dzz                  1.000     1.000     0.000
     In     1      Dzy                  0.998     0.998     0.000
     In     1      Dzx                  0.998     0.998     0.000
     In     1      Dxx-yy               1.000     1.000     0.000
     In     1      Dxy                  0.998     0.998     0.000
     In     1      S                    0.705     0.705     0.000
     In     1      Px                   0.229     0.229    -0.000
     In     1      Py                   0.244     0.244    -0.000
     In     1      Pz                   0.244     0.244    -0.000
     In     1      S                   -0.224    -0.224    -0.000
     In     2      Dzz                  0.999     0.999     0.000
     In     2      Dzy                  0.998     0.998     0.000
     In     2      Dzx                  0.998     0.998     0.000
     In     2      Dxx-yy               1.000     1.000     0.000
     In     2      Dxy                  0.998     0.998     0.000
     In     2      S                    0.705     0.705     0.000
     In     2      Px                   0.244     0.244    -0.000
     In     2      Py                   0.244     0.244    -0.000
     In     2      Pz                   0.229     0.229     0.000
     In     2      S                   -0.224    -0.224    -0.000
     In     3      Dzz                  1.000     1.000     0.000
     In     3      Dzy                  0.999     0.999     0.000
     In     3      Dzx                  0.999     0.999     0.000
     In     3      Dxx-yy               1.000     1.000     0.000
     In     3      Dxy                  0.999     0.999     0.000
     In     3      S                    0.694     0.694    -0.000
     In     3      Px                   0.249     0.249    -0.000
     In     3      Py                   0.249     0.249    -0.000
     In     3      Pz                   0.249     0.249    -0.000
     In     3      S                   -0.254    -0.254    -0.000
     In     4      Dzz                  1.000     1.000     0.000
     In     4      Dzy                  0.998     0.998     0.000
     In     4      Dzx                  0.998     0.998     0.000
     In     4      Dxx-yy               1.000     1.000     0.000
     In     4      Dxy                  0.998     0.998     0.000
     In     4      S                    0.705     0.705     0.000
     In     4      Px                   0.244     0.244    -0.000
     In     4      Py                   0.229     0.229    -0.000
     In     4      Pz                   0.244     0.244    -0.000
     In     4      S                   -0.224    -0.224    -0.000
     In     5      Dzz                  1.000     1.000     0.000
     In     5      Dzy                  0.999     0.999     0.000
     In     5      Dzx                  0.998     0.998     0.000
     In     5      Dxx-yy               1.000     1.000     0.000
     In     5      Dxy                  0.998     0.998    -0.000
     In     5      S                    0.713     0.713     0.000
     In     5      Px                   0.245     0.245     0.000
     In     5      Py                   0.242     0.242     0.000
     In     5      Pz                   0.238     0.238     0.000
     In     5      S                   -0.263    -0.263    -0.000
     In     6      Dzz                  1.000     1.000    -0.000
     In     6      Dzy                  0.998     0.998     0.000
     In     6      Dzx                  0.998     0.998     0.000
     In     6      Dxx-yy               1.000     1.000     0.000
     In     6      Dxy                  0.998     0.998     0.000
     In     6      S                    0.715     0.715     0.000
     In     6      Px                   0.244     0.244     0.000
     In     6      Py                   0.244     0.244     0.000
     In     6      Pz                   0.238     0.238     0.000
     In     6      S                   -0.270    -0.270     0.000
     In     7      Dzz                  1.000     1.000     0.000
     In     7      Dzy                  0.998     0.998     0.000
     In     7      Dzx                  0.998     0.998     0.000
     In     7      Dxx-yy               1.000     1.000     0.000
     In     7      Dxy                  0.998     0.998     0.000
     In     7      S                    0.721     0.721     0.000
     In     7      Px                   0.244     0.244    -0.000
     In     7      Py                   0.244     0.244    -0.000
     In     7      Pz                   0.238     0.238    -0.000
     In     7      S                   -0.275    -0.275    -0.000
     In     8      Dzz                  1.000     1.000     0.000
     In     8      Dzy                  0.998     0.998     0.000
     In     8      Dzx                  0.999     0.999     0.000
     In     8      Dxx-yy               1.000     1.000    -0.000
     In     8      Dxy                  0.998     0.998     0.000
     In     8      S                    0.713     0.713     0.000
     In     8      Px                   0.242     0.242    -0.000
     In     8      Py                   0.245     0.245     0.000
     In     8      Pz                   0.238     0.238     0.000
     In     8      S                   -0.263    -0.263    -0.000
     In     9      Dzz                  1.000     1.000     0.000
     In     9      Dzy                  0.999     0.999     0.000
     In     9      Dzx                  0.998     0.998     0.000
     In     9      Dxx-yy               1.000     1.000     0.000
     In     9      Dxy                  0.998     0.998     0.000
     In     9      S                    0.713     0.713     0.000
     In     9      Px                   0.245     0.245     0.000
     In     9      Py                   0.238     0.238     0.000
     In     9      Pz                   0.242     0.242     0.000
     In     9      S                   -0.263    -0.263     0.000
     In    10      Dzz                  1.000     1.000     0.000
     In    10      Dzy                  0.998     0.998     0.000
     In    10      Dzx                  0.998     0.998     0.000
     In    10      Dxx-yy               1.000     1.000     0.000
     In    10      Dxy                  0.999     0.999     0.000
     In    10      S                    0.713     0.713     0.000
     In    10      Px                   0.242     0.242     0.000
     In    10      Py                   0.238     0.238     0.000
     In    10      Pz                   0.245     0.245     0.000
     In    10      S                   -0.263    -0.263     0.000
     In    11      Dzz                  1.000     1.000     0.000
     In    11      Dzy                  0.998     0.998     0.000
     In    11      Dzx                  0.998     0.998    -0.000
     In    11      Dxx-yy               1.000     1.000     0.000
     In    11      Dxy                  0.998     0.998     0.000
     In    11      S                    0.721     0.721     0.000
     In    11      Px                   0.244     0.244    -0.000
     In    11      Py                   0.238     0.238    -0.000
     In    11      Pz                   0.244     0.244    -0.000
     In    11      S                   -0.275    -0.275    -0.000
     In    12      Dzz                  1.000     1.000    -0.000
     In    12      Dzy                  0.998     0.998     0.000
     In    12      Dzx                  0.998     0.998     0.000
     In    12      Dxx-yy               1.000     1.000     0.000
     In    12      Dxy                  0.998     0.998     0.000
     In    12      S                    0.715     0.715     0.000
     In    12      Px                   0.244     0.244    -0.000
     In    12      Py                   0.238     0.238     0.000
     In    12      Pz                   0.244     0.244     0.000
     In    12      S                   -0.270    -0.270     0.000
     In    13      Dzz                  1.000     1.000     0.000
     In    13      Dzy                  0.998     0.998     0.000
     In    13      Dzx                  0.998     0.998     0.000
     In    13      Dxx-yy               1.000     1.000    -0.000
     In    13      Dxy                  0.998     0.998     0.000
     In    13      S                    0.712     0.712     0.000
     In    13      Px                   0.243     0.243     0.000
     In    13      Py                   0.242     0.242    -0.000
     In    13      Pz                   0.242     0.242    -0.000
     In    13      S                   -0.263    -0.263     0.000
     In    14      Dzz                  1.000     1.000     0.000
     In    14      Dzy                  0.998     0.998     0.000
     In    14      Dzx                  0.998     0.998     0.000
     In    14      Dxx-yy               1.000     1.000    -0.000
     In    14      Dxy                  0.998     0.998     0.000
     In    14      S                    0.716     0.716    -0.000
     In    14      Px                   0.248     0.248    -0.000
     In    14      Py                   0.239     0.239    -0.000
     In    14      Pz                   0.239     0.239     0.000
     In    14      S                   -0.261    -0.261    -0.000
     In    15      Dzz                  1.000     1.000     0.000
     In    15      Dzy                  0.998     0.998     0.000
     In    15      Dzx                  0.998     0.998     0.000
     In    15      Dxx-yy               1.000     1.000     0.000
     In    15      Dxy                  0.998     0.998     0.000
     In    15      S                    0.714     0.714    -0.000
     In    15      Px                   0.244     0.244     0.000
     In    15      Py                   0.239     0.240    -0.000
     In    15      Pz                   0.240     0.240    -0.000
     In    15      S                   -0.268    -0.268    -0.000
     In    16      Dzz                  1.000     1.000     0.000
     In    16      Dzy                  0.998     0.998     0.000
     In    16      Dzx                  0.998     0.998     0.000
     In    16      Dxx-yy               1.000     1.000    -0.000
     In    16      Dxy                  0.998     0.998     0.000
     In    16      S                    0.716     0.716     0.000
     In    16      Px                   0.248     0.248    -0.000
     In    16      Py                   0.239     0.239    -0.000
     In    16      Pz                   0.239     0.239     0.000
     In    16      S                   -0.261    -0.261     0.000
     In    17      Dzz                  1.000     1.000    -0.000
     In    17      Dzy                  0.998     0.998     0.000
     In    17      Dzx                  0.998     0.998     0.000
     In    17      Dxx-yy               1.000     1.000     0.000
     In    17      Dxy                  0.998     0.998     0.000
     In    17      S                    0.715     0.715     0.000
     In    17      Px                   0.238     0.238     0.000
     In    17      Py                   0.244     0.244    -0.000
     In    17      Pz                   0.244     0.244     0.000
     In    17      S                   -0.270    -0.270    -0.000
     In    18      Dzz                  1.000     1.000     0.000
     In    18      Dzy                  0.998     0.998     0.000
     In    18      Dzx                  0.998     0.998     0.000
     In    18      Dxx-yy               1.000     1.000     0.000
     In    18      Dxy                  0.999     0.999     0.000
     In    18      S                    0.713     0.713     0.000
     In    18      Px                   0.238     0.238     0.000
     In    18      Py                   0.242     0.242     0.000
     In    18      Pz                   0.245     0.245     0.000
     In    18      S                   -0.263    -0.263     0.000
     In    19      Dzz                  1.000     1.000     0.000
     In    19      Dzy                  0.998     0.998     0.000
     In    19      Dzx                  0.998     0.998     0.000
     In    19      Dxx-yy               1.000     1.000     0.000
     In    19      Dxy                  0.998     0.998     0.000
     In    19      S                    0.721     0.721     0.000
     In    19      Px                   0.238     0.238    -0.000
     In    19      Py                   0.244     0.244    -0.000
     In    19      Pz                   0.244     0.244    -0.000
     In    19      S                   -0.275    -0.275    -0.000
     In    20      Dzz                  1.000     1.000    -0.000
     In    20      Dzy                  0.998     0.998     0.000
     In    20      Dzx                  0.999     0.999     0.000
     In    20      Dxx-yy               1.000     1.000     0.000
     In    20      Dxy                  0.998     0.998     0.000
     In    20      S                    0.713     0.713     0.000
     In    20      Px                   0.238     0.238     0.000
     In    20      Py                   0.245     0.245     0.000
     In    20      Pz                   0.242     0.242    -0.000
     In    20      S                   -0.263    -0.263    -0.000
     In    21      Dzz                  1.000     1.000    -0.000
     In    21      Dzy                  0.998     0.998     0.000
     In    21      Dzx                  0.998     0.998     0.000
     In    21      Dxx-yy               1.000     1.000    -0.000
     In    21      Dxy                  0.998     0.998     0.000
     In    21      S                    0.716     0.716     0.000
     In    21      Px                   0.239     0.239     0.000
     In    21      Py                   0.248     0.248     0.000
     In    21      Pz                   0.239     0.239     0.000
     In    21      S                   -0.261    -0.261    -0.000
     In    22      Dzz                  1.000     1.000     0.000
     In    22      Dzy                  0.998     0.998     0.000
     In    22      Dzx                  0.998     0.998     0.000
     In    22      Dxx-yy               1.000     1.000     0.000
     In    22      Dxy                  0.998     0.998     0.000
     In    22      S                    0.716     0.716     0.000
     In    22      Px                   0.239     0.239    -0.000
     In    22      Py                   0.248     0.248    -0.000
     In    22      Pz                   0.239     0.239     0.000
     In    22      S                   -0.261    -0.261    -0.000
     In    23      Dzz                  1.000     1.000     0.000
     In    23      Dzy                  0.998     0.998     0.000
     In    23      Dzx                  0.998     0.998     0.000
     In    23      Dxx-yy               1.000     1.000     0.000
     In    23      Dxy                  0.998     0.998     0.000
     In    23      S                    0.714     0.714     0.000
     In    23      Px                   0.240     0.240    -0.000
     In    23      Py                   0.244     0.244     0.000
     In    23      Pz                   0.240     0.240    -0.000
     In    23      S                   -0.268    -0.268    -0.000
     In    24      Dzz                  1.000     1.000     0.000
     In    24      Dzy                  0.998     0.998     0.000
     In    24      Dzx                  0.998     0.998     0.000
     In    24      Dxx-yy               1.000     1.000     0.000
     In    24      Dxy                  0.998     0.998    -0.000
     In    24      S                    0.712     0.712     0.000
     In    24      Px                   0.242     0.242    -0.000
     In    24      Py                   0.243     0.243     0.000
     In    24      Pz                   0.242     0.242     0.000
     In    24      S                   -0.263    -0.263     0.000
     In    25      Dzz                  0.999     0.999    -0.000
     In    25      Dzy                  0.998     0.998     0.000
     In    25      Dzx                  0.998     0.998     0.000
     In    25      Dxx-yy               1.000     1.000    -0.000
     In    25      Dxy                  0.998     0.998     0.000
     In    25      S                    0.716     0.716     0.000
     In    25      Px                   0.239     0.239    -0.000
     In    25      Py                   0.239     0.239    -0.000
     In    25      Pz                   0.248     0.248     0.000
     In    25      S                   -0.261    -0.261     0.000
     In    26      Dzz                  1.000     1.000     0.000
     In    26      Dzy                  0.998     0.998     0.000
     In    26      Dzx                  0.998     0.998     0.000
     In    26      Dxx-yy               1.000     1.000     0.000
     In    26      Dxy                  0.998     0.998     0.000
     In    26      S                    0.712     0.712     0.000
     In    26      Px                   0.242     0.242    -0.000
     In    26      Py                   0.242     0.242    -0.000
     In    26      Pz                   0.243     0.243    -0.000
     In    26      S                   -0.263    -0.263    -0.000
     In    27      Dzz                  1.000     1.000     0.000
     In    27      Dzy                  0.998     0.998     0.000
     In    27      Dzx                  0.998     0.998     0.000
     In    27      Dxx-yy               1.000     1.000     0.000
     In    27      Dxy                  0.998     0.998     0.000
     In    27      S                    0.714     0.714     0.000
     In    27      Px                   0.240     0.240    -0.000
     In    27      Py                   0.240     0.240    -0.000
     In    27      Pz                   0.244     0.244    -0.000
     In    27      S                   -0.268    -0.268    -0.000
     In    28      Dzz                  0.999     0.999     0.000
     In    28      Dzy                  0.998     0.998     0.000
     In    28      Dzx                  0.998     0.998     0.000
     In    28      Dxx-yy               1.000     1.000     0.000
     In    28      Dxy                  0.998     0.998     0.000
     In    28      S                    0.716     0.716     0.000
     In    28      Px                   0.239     0.239    -0.000
     In    28      Py                   0.239     0.239    -0.000
     In    28      Pz                   0.248     0.248     0.000
     In    28      S                   -0.261    -0.261     0.000
     In    29      Dzz                  1.000     1.000     0.000
     In    29      Dzy                  0.999     0.999     0.000
     In    29      Dzx                  0.998     0.998     0.000
     In    29      Dxx-yy               1.000     1.000     0.000
     In    29      Dxy                  0.998     0.998     0.000
     In    29      S                    0.713     0.713     0.000
     In    29      Px                   0.243     0.243     0.000
     In    29      Py                   0.241     0.241     0.000
     In    29      Pz                   0.241     0.241     0.000
     In    29      S                   -0.264    -0.264    -0.000
     In    30      Dzz                  1.000     1.000     0.000
     In    30      Dzy                  0.998     0.998     0.000
     In    30      Dzx                  0.998     0.998     0.000
     In    30      Dxx-yy               1.000     1.000     0.000
     In    30      Dxy                  0.999     0.998     0.000
     In    30      S                    0.713     0.713     0.000
     In    30      Px                   0.241     0.241     0.000
     In    30      Py                   0.241     0.241     0.000
     In    30      Pz                   0.243     0.243     0.000
     In    30      S                   -0.264    -0.264    -0.000
     In    31      Dzz                  1.000     1.000    -0.000
     In    31      Dzy                  0.998     0.998     0.000
     In    31      Dzx                  0.998     0.998     0.000
     In    31      Dxx-yy               1.000     1.000    -0.000
     In    31      Dxy                  0.998     0.998     0.000
     In    31      S                    0.716     0.716    -0.000
     In    31      Px                   0.240     0.240    -0.000
     In    31      Py                   0.240     0.240    -0.000
     In    31      Pz                   0.240     0.240     0.000
     In    31      S                   -0.267    -0.267     0.000
     In    32      Dzz                  1.000     1.000     0.000
     In    32      Dzy                  0.998     0.998     0.000
     In    32      Dzx                  0.999     0.998     0.000
     In    32      Dxx-yy               1.000     1.000     0.000
     In    32      Dxy                  0.998     0.998     0.000
     In    32      S                    0.713     0.713     0.000
     In    32      Px                   0.241     0.241     0.000
     In    32      Py                   0.243     0.243     0.000
     In    32      Pz                   0.241     0.241     0.000
     In    32      S                   -0.264    -0.264    -0.000
     In    33      Dzz                  0.998     0.998     0.000
     In    33      Dzy                  0.998     0.998    -0.000
     In    33      Dzx                  0.998     0.998    -0.000
     In    33      Dxx-yy               0.998     0.998     0.000
     In    33      Dxy                  0.998     0.998     0.000
     In    33      S                    0.762     0.762    -0.000
     In    33      Px                   0.222     0.222     0.000
     In    33      Py                   0.222     0.222     0.000
     In    33      Pz                   0.222     0.222     0.000
     In    33      S                   -0.041    -0.041    -0.000
  ---------------------------------------------------------------
                           Total:     294.500   294.500    -0.000
  ---------------------------------------------------------------

     Atomic Populations (Mulliken)
     -----------------------------
Species          Ion Spin      s       p       d       f      Total   Charge(e)   Spin(hbar/2)
==============================================================================================
  P               1   up:     0.873   1.943   0.000   0.000   2.816    -0.632       -0.000
                  1   dn:     0.873   1.943   0.000   0.000   2.816
  P               2   up:     0.883   1.935   0.000   0.000   2.818    -0.636       -0.000
                  2   dn:     0.883   1.935   0.000   0.000   2.818
  P               3   up:     0.873   1.943   0.000   0.000   2.816    -0.632       -0.000
                  3   dn:     0.873   1.943   0.000   0.000   2.816
  P               4   up:     0.868   1.968   0.000   0.000   2.836    -0.673       -0.000
                  4   dn:     0.868   1.968   0.000   0.000   2.836
  P               5   up:     0.883   1.935   0.000   0.000   2.818    -0.636       -0.000
                  5   dn:     0.883   1.935   0.000   0.000   2.818
  P               6   up:     0.868   1.969   0.000   0.000   2.836    -0.672       -0.000
                  6   dn:     0.868   1.969   0.000   0.000   2.836
  P               7   up:     0.868   1.967   0.000   0.000   2.835    -0.671       -0.000
                  7   dn:     0.868   1.967   0.000   0.000   2.835
  P               8   up:     0.869   1.965   0.000   0.000   2.835    -0.669       -0.000
                  8   dn:     0.869   1.965   0.000   0.000   2.835
  P               9   up:     0.868   1.967   0.000   0.000   2.835    -0.671       -0.000
                  9   dn:     0.868   1.967   0.000   0.000   2.835
  P              10   up:     0.868   1.969   0.000   0.000   2.836    -0.672        0.000
                 10   dn:     0.868   1.969   0.000   0.000   2.836
  P              11   up:     0.883   1.935   0.000   0.000   2.818    -0.636       -0.000
                 11   dn:     0.883   1.935   0.000   0.000   2.818
  P              12   up:     0.869   1.965   0.000   0.000   2.835    -0.669       -0.000
                 12   dn:     0.869   1.965   0.000   0.000   2.835
  P              13   up:     0.868   1.969   0.000   0.000   2.836    -0.672       -0.000
                 13   dn:     0.868   1.969   0.000   0.000   2.836
  P              14   up:     0.866   1.971   0.000   0.000   2.837    -0.674       -0.000
                 14   dn:     0.866   1.971   0.000   0.000   2.837
  P              15   up:     0.868   1.969   0.000   0.000   2.836    -0.672       -0.000
                 15   dn:     0.868   1.969   0.000   0.000   2.836
  P              16   up:     0.869   1.969   0.000   0.000   2.838    -0.675        0.000
                 16   dn:     0.869   1.969   0.000   0.000   2.838
  P              17   up:     0.868   1.967   0.000   0.000   2.835    -0.671       -0.000
                 17   dn:     0.868   1.967   0.000   0.000   2.835
  P              18   up:     0.873   1.943   0.000   0.000   2.816    -0.632       -0.000
                 18   dn:     0.873   1.943   0.000   0.000   2.816
  P              19   up:     0.868   1.967   0.000   0.000   2.835    -0.671       -0.000
                 19   dn:     0.868   1.967   0.000   0.000   2.835
  P              20   up:     0.872   1.961   0.000   0.000   2.832    -0.665        0.000
                 20   dn:     0.872   1.961   0.000   0.000   2.832
  P              21   up:     0.868   1.969   0.000   0.000   2.836    -0.672       -0.000
                 21   dn:     0.868   1.969   0.000   0.000   2.836
  P              22   up:     0.868   1.967   0.000   0.000   2.835    -0.671       -0.000
                 22   dn:     0.868   1.967   0.000   0.000   2.835
  P              23   up:     0.867   1.969   0.000   0.000   2.836    -0.673       -0.000
                 23   dn:     0.867   1.969   0.000   0.000   2.836
  P              24   up:     0.868   1.968   0.000   0.000   2.836    -0.673       -0.000
                 24   dn:     0.868   1.968   0.000   0.000   2.836
  P              25   up:     0.867   1.969   0.000   0.000   2.836    -0.673        0.000
                 25   dn:     0.867   1.969   0.000   0.000   2.836
  P              26   up:     0.868   1.967   0.000   0.000   2.835    -0.671       -0.000
                 26   dn:     0.868   1.967   0.000   0.000   2.835
  P              27   up:     0.868   1.969   0.000   0.000   2.836    -0.672       -0.000
                 27   dn:     0.868   1.969   0.000   0.000   2.836
  P              28   up:     0.868   1.968   0.000   0.000   2.836    -0.673        0.000
                 28   dn:     0.868   1.968   0.000   0.000   2.836
  P              29   up:     0.866   1.971   0.000   0.000   2.837    -0.674       -0.000
                 29   dn:     0.866   1.971   0.000   0.000   2.837
  P              30   up:     0.867   1.969   0.000   0.000   2.836    -0.673        0.000
                 30   dn:     0.867   1.969   0.000   0.000   2.836
  P              31   up:     0.866   1.971   0.000   0.000   2.837    -0.674       -0.000
                 31   dn:     0.866   1.971   0.000   0.000   2.837
  P              32   up:     0.869   1.965   0.000   0.000   2.835    -0.669       -0.000
                 32   dn:     0.869   1.965   0.000   0.000   2.835
  In              1   up:     0.480   0.717   4.994   0.000   6.191     0.618        0.000
                  1   dn:     0.480   0.717   4.994   0.000   6.191
  In              2   up:     0.480   0.717   4.994   0.000   6.191     0.618       -0.000
                  2   dn:     0.480   0.717   4.994   0.000   6.191
  In              3   up:     0.440   0.746   4.995   0.000   6.181     0.637       -0.000
                  3   dn:     0.440   0.746   4.995   0.000   6.181
  In              4   up:     0.480   0.717   4.994   0.000   6.191     0.618       -0.000
                  4   dn:     0.480   0.717   4.994   0.000   6.191
  In              5   up:     0.450   0.725   4.994   0.000   6.169     0.662        0.000
                  5   dn:     0.450   0.725   4.994   0.000   6.169
  In              6   up:     0.446   0.726   4.994   0.000   6.166     0.668        0.000
                  6   dn:     0.446   0.726   4.994   0.000   6.166
  In              7   up:     0.446   0.726   4.994   0.000   6.166     0.668        0.000
                  7   dn:     0.446   0.726   4.994   0.000   6.166
  In              8   up:     0.450   0.725   4.994   0.000   6.169     0.662        0.000
                  8   dn:     0.450   0.725   4.994   0.000   6.169
  In              9   up:     0.450   0.725   4.994   0.000   6.169     0.662        0.000
                  9   dn:     0.450   0.725   4.994   0.000   6.169
  In             10   up:     0.450   0.725   4.994   0.000   6.169     0.662        0.000
                 10   dn:     0.450   0.725   4.994   0.000   6.169
  In             11   up:     0.446   0.726   4.994   0.000   6.166     0.668        0.000
                 11   dn:     0.446   0.726   4.994   0.000   6.166
  In             12   up:     0.446   0.726   4.994   0.000   6.166     0.668        0.000
                 12   dn:     0.446   0.726   4.994   0.000   6.166
  In             13   up:     0.449   0.726   4.994   0.000   6.169     0.661        0.000
                 13   dn:     0.449   0.726   4.994   0.000   6.169
  In             14   up:     0.455   0.726   4.994   0.000   6.175     0.650       -0.000
                 14   dn:     0.455   0.726   4.994   0.000   6.175
  In             15   up:     0.446   0.723   4.994   0.000   6.164     0.672       -0.000
                 15   dn:     0.446   0.723   4.994   0.000   6.164
  In             16   up:     0.455   0.726   4.994   0.000   6.175     0.650        0.000
                 16   dn:     0.455   0.726   4.994   0.000   6.175
  In             17   up:     0.446   0.726   4.994   0.000   6.166     0.668        0.000
                 17   dn:     0.446   0.726   4.994   0.000   6.166
  In             18   up:     0.450   0.725   4.994   0.000   6.169     0.662        0.000
                 18   dn:     0.450   0.725   4.994   0.000   6.169
  In             19   up:     0.446   0.726   4.994   0.000   6.166     0.668        0.000
                 19   dn:     0.446   0.726   4.994   0.000   6.166
  In             20   up:     0.450   0.725   4.994   0.000   6.169     0.662        0.000
                 20   dn:     0.450   0.725   4.994   0.000   6.169
  In             21   up:     0.455   0.726   4.994   0.000   6.175     0.650        0.000
                 21   dn:     0.455   0.726   4.994   0.000   6.175
  In             22   up:     0.455   0.726   4.994   0.000   6.175     0.650        0.000
                 22   dn:     0.455   0.726   4.994   0.000   6.175
  In             23   up:     0.446   0.723   4.994   0.000   6.164     0.672        0.000
                 23   dn:     0.446   0.723   4.994   0.000   6.164
  In             24   up:     0.449   0.726   4.994   0.000   6.169     0.661        0.000
                 24   dn:     0.449   0.726   4.994   0.000   6.169
  In             25   up:     0.455   0.726   4.994   0.000   6.175     0.650        0.000
                 25   dn:     0.455   0.726   4.994   0.000   6.175
  In             26   up:     0.449   0.726   4.994   0.000   6.169     0.661        0.000
                 26   dn:     0.449   0.726   4.994   0.000   6.169
  In             27   up:     0.446   0.723   4.994   0.000   6.164     0.672       -0.000
                 27   dn:     0.446   0.723   4.994   0.000   6.164
  In             28   up:     0.455   0.726   4.994   0.000   6.175     0.650        0.000
                 28   dn:     0.455   0.726   4.994   0.000   6.175
  In             29   up:     0.449   0.725   4.994   0.000   6.168     0.663        0.000
                 29   dn:     0.449   0.725   4.994   0.000   6.168
  In             30   up:     0.449   0.725   4.994   0.000   6.168     0.663        0.000
                 30   dn:     0.449   0.725   4.994   0.000   6.168
  In             31   up:     0.449   0.721   4.995   0.000   6.165     0.671        0.000
                 31   dn:     0.449   0.721   4.995   0.000   6.164
  In             32   up:     0.449   0.725   4.994   0.000   6.168     0.663        0.000
                 32   dn:     0.449   0.725   4.994   0.000   6.168
  In             33   up:     0.721   0.666   4.992   0.000   6.379     0.242       -0.000
                 33   dn:     0.721   0.666   4.992   0.000   6.379
==============================================================================================

                 Bond                   Population        Spin       Length (A)
================================================================================
              P 32 -- In 1                   0.83         0.00          2.45445
              P 12 -- In 2                   0.83         0.00          2.45445
              P 8  -- In 4                   0.83         0.00          2.45445
              P 29 -- In 28                  0.66         0.00          2.52313
              P 14 -- In 16                  0.66         0.00          2.52313
              P 31 -- In 21                  0.66         0.00          2.52313
              P 31 -- In 22                  0.66         0.00          2.52313
              P 29 -- In 25                  0.66         0.00          2.52313
              P 14 -- In 14                  0.66         0.00          2.52313
              P 9  -- In 16                  0.66         0.00          2.54070
              P 26 -- In 28                  0.66         0.00          2.54070
              P 19 -- In 25                  0.66        -0.00          2.54070
              P 7  -- In 14                  0.66         0.00          2.54070
              P 17 -- In 21                  0.66         0.00          2.54070
              P 22 -- In 22                  0.66         0.00          2.54070
              P 21 -- In 23                  0.65        -0.00          2.54209
              P 6  -- In 23                  0.65         0.00          2.54209
              P 27 -- In 27                  0.65        -0.00          2.54209
              P 15 -- In 15                  0.65         0.00          2.54209
              P 13 -- In 15                  0.65        -0.00          2.54209
              P 10 -- In 27                  0.65         0.00          2.54209
              P 30 -- In 15                  0.67        -0.00          2.54236
              P 25 -- In 27                  0.67        -0.00          2.54236
              P 23 -- In 23                  0.67        -0.00          2.54236
              P 13 -- In 14                  0.65         0.00          2.54285
              P 10 -- In 25                  0.65         0.00          2.54285
              P 21 -- In 22                  0.65         0.00          2.54285
              P 6  -- In 21                  0.65         0.00          2.54285
              P 27 -- In 28                  0.65         0.00          2.54285
              P 15 -- In 16                  0.65         0.00          2.54285
              P 2  -- In 19                  0.61         0.00          2.54296
              P 11 -- In 11                  0.61         0.00          2.54296
              P 5  -- In 7                   0.61         0.00          2.54296
              P 26 -- In 9                   0.66        -0.00          2.54380
              P 9  -- In 10                  0.66         0.00          2.54380
              P 7  -- In 8                   0.66         0.00          2.54380
              P 19 -- In 20                  0.66        -0.00          2.54380
              P 22 -- In 5                   0.66         0.00          2.54380
              P 17 -- In 18                  0.66         0.00          2.54380
              P 11 -- In 12                  0.64         0.00          2.54553
              P 5  -- In 6                   0.64        -0.00          2.54553
              P 2  -- In 17                  0.64        -0.00          2.54553
              P 4  -- In 19                  0.65        -0.00          2.54578
              P 28 -- In 11                  0.65        -0.00          2.54578
              P 24 -- In 7                   0.65        -0.00          2.54578
              P 19 -- In 26                  0.64         0.00          2.54721
              P 7  -- In 13                  0.64         0.00          2.54721
              P 17 -- In 24                  0.64         0.00          2.54721
              P 22 -- In 24                  0.64        -0.00          2.54721
              P 9  -- In 13                  0.64        -0.00          2.54721
              P 26 -- In 26                  0.64         0.00          2.54721
              P 22 -- In 7                   0.64        -0.00          2.54736
              P 17 -- In 19                  0.64        -0.00          2.54736
              P 26 -- In 11                  0.64        -0.00          2.54736
              P 9  -- In 11                  0.64        -0.00          2.54736
              P 7  -- In 7                   0.64        -0.00          2.54736
              P 19 -- In 19                  0.64        -0.00          2.54736
              P 20 -- In 24                  0.66         0.00          2.54752
              P 20 -- In 13                  0.66         0.00          2.54752
              P 20 -- In 26                  0.66         0.00          2.54752
              P 32 -- In 22                  0.59         0.00          2.54772
              P 12 -- In 21                  0.59         0.00          2.54772
              P 12 -- In 16                  0.59         0.00          2.54772
              P 32 -- In 28                  0.59         0.00          2.54772
              P 8  -- In 14                  0.59         0.00          2.54772
              P 8  -- In 25                  0.59         0.00          2.54772
              P 32 -- In 15                  0.64        -0.00          2.54870
              P 12 -- In 27                  0.64        -0.00          2.54870
              P 8  -- In 23                  0.64        -0.00          2.54870
              P 30 -- In 30                  0.66         0.00          2.54870
              P 25 -- In 29                  0.66         0.00          2.54870
              P 25 -- In 32                  0.66         0.00          2.54870
              P 30 -- In 32                  0.66        -0.00          2.54870
              P 23 -- In 30                  0.66         0.00          2.54870
              P 23 -- In 29                  0.66         0.00          2.54870
              P 6  -- In 8                   0.65        -0.00          2.54971
              P 21 -- In 20                  0.65         0.00          2.54971
              P 15 -- In 5                   0.65        -0.00          2.54971
              P 27 -- In 18                  0.65         0.00          2.54971
              P 13 -- In 9                   0.65        -0.00          2.54971
              P 10 -- In 10                  0.65        -0.00          2.54971
              P 4  -- In 29                  0.65         0.00          2.55000
              P 28 -- In 32                  0.65         0.00          2.55000
              P 24 -- In 30                  0.65         0.00          2.55001
              P 25 -- In 26                  0.66         0.00          2.55009
              P 30 -- In 13                  0.66        -0.00          2.55009
              P 23 -- In 24                  0.66         0.00          2.55009
              P 31 -- In 31                  0.64        -0.00          2.55048
              P 29 -- In 31                  0.64        -0.00          2.55048
              P 14 -- In 31                  0.64        -0.00          2.55048
              P 27 -- In 17                  0.64        -0.00          2.55059
              P 15 -- In 6                   0.64         0.00          2.55059
              P 21 -- In 17                  0.64         0.00          2.55059
              P 6  -- In 6                   0.64        -0.00          2.55059
              P 13 -- In 12                  0.64        -0.00          2.55059
              P 10 -- In 12                  0.64        -0.00          2.55059
              P 18 -- In 20                  0.66        -0.00          2.55068
              P 1  -- In 8                   0.66         0.00          2.55068
              P 18 -- In 18                  0.66        -0.00          2.55068
              P 1  -- In 5                   0.66        -0.00          2.55068
              P 3  -- In 10                  0.66         0.00          2.55068
              P 3  -- In 9                   0.66         0.00          2.55068
              P 29 -- In 30                  0.66        -0.00          2.55190
              P 14 -- In 29                  0.66         0.00          2.55190
              P 31 -- In 32                  0.66         0.00          2.55190
              P 24 -- In 20                  0.64        -0.00          2.55634
              P 28 -- In 18                  0.64         0.00          2.55634
              P 28 -- In 5                   0.64         0.00          2.55634
              P 4  -- In 8                   0.64        -0.00          2.55634
              P 24 -- In 9                   0.64         0.00          2.55634
              P 4  -- In 10                  0.64         0.00          2.55635
              P 16 -- In 17                  0.64         0.00          2.55700
              P 16 -- In 12                  0.64        -0.00          2.55700
              P 16 -- In 6                   0.64         0.00          2.55700
              P 16 -- In 31                  0.66        -0.00          2.55904
              P 20 -- In 3                   0.62        -0.00          2.58384
              P 3  -- In 4                   0.61        -0.00          2.58394
              P 18 -- In 1                   0.61        -0.00          2.58394
              P 1  -- In 2                   0.61        -0.00          2.58394
              P 3  -- In 3                   0.58         0.00          2.59385
              P 18 -- In 3                   0.58         0.00          2.59385
              P 1  -- In 3                   0.58         0.00          2.59385
              P 5  -- In 33                  0.25        -0.00          2.71545
              P 2  -- In 33                  0.25        -0.00          2.71545
              P 11 -- In 33                  0.25        -0.00          2.71545
              P 11 -- In 2                   0.35         0.00          2.78668
              P 11 -- In 1                   0.35        -0.00          2.78668
              P 5  -- In 1                   0.35        -0.00          2.78668
              P 2  -- In 2                   0.35        -0.00          2.78668
              P 5  -- In 4                   0.35         0.00          2.78668
              P 2  -- In 4                   0.35        -0.00          2.78668
             In 4  -- In 33                 -0.45         0.00          2.79413
             In 1  -- In 33                 -0.45         0.00          2.79413
             In 2  -- In 33                 -0.45         0.00          2.79413
================================================================================

 Hirshfeld supercell size:           2           2           2
Standard grid dimensions: 240 240 240
Fine grid dimensions:     240 240 240


     Hirshfeld Analysis
     ------------------
Species   Ion     Hirshfeld Charge (e)  Spin (hbar/2)
===================================================
  P        1                -0.23        0.00
  P        2                -0.23       -0.00
  P        3                -0.23        0.00
  P        4                -0.24        0.00
  P        5                -0.23       -0.00
  P        6                -0.24        0.00
  P        7                -0.24       -0.00
  P        8                -0.23       -0.00
  P        9                -0.24       -0.00
  P       10                -0.24        0.00
  P       11                -0.23       -0.00
  P       12                -0.23       -0.00
  P       13                -0.24        0.00
  P       14                -0.24       -0.00
  P       15                -0.24        0.00
  P       16                -0.24        0.00
  P       17                -0.24       -0.00
  P       18                -0.23        0.00
  P       19                -0.24       -0.00
  P       20                -0.24       -0.00
  P       21                -0.24        0.00
  P       22                -0.24       -0.00
  P       23                -0.24       -0.00
  P       24                -0.24        0.00
  P       25                -0.24       -0.00
  P       26                -0.24       -0.00
  P       27                -0.24        0.00
  P       28                -0.24        0.00
  P       29                -0.24       -0.00
  P       30                -0.24       -0.00
  P       31                -0.24       -0.00
  P       32                -0.23       -0.00
  In       1                 0.23       -0.00
  In       2                 0.23       -0.00
  In       3                 0.22        0.00
  In       4                 0.23       -0.00
  In       5                 0.23        0.00
  In       6                 0.23        0.00
  In       7                 0.23        0.00
  In       8                 0.23        0.00
  In       9                 0.23        0.00
  In      10                 0.23        0.00
  In      11                 0.23        0.00
  In      12                 0.23        0.00
  In      13                 0.23       -0.00
  In      14                 0.23       -0.00
  In      15                 0.24       -0.00
  In      16                 0.23       -0.00
  In      17                 0.23        0.00
  In      18                 0.23        0.00
  In      19                 0.23        0.00
  In      20                 0.23        0.00
  In      21                 0.23       -0.00
  In      22                 0.23       -0.00
  In      23                 0.24       -0.00
  In      24                 0.23       -0.00
  In      25                 0.23       -0.00
  In      26                 0.23       -0.00
  In      27                 0.24       -0.00
  In      28                 0.23       -0.00
  In      29                 0.24       -0.00
  In      30                 0.24       -0.00
  In      31                 0.24       -0.00
  In      32                 0.24       -0.00
  In      33                 0.08       -0.00
===================================================

 
 A BibTeX formatted list of references used in this run has been written to 
 In_Interstitial_Migration_Tetra_Octa_Singlepoints_2.bib
 
Initialisation time =     31.11 s
Calculation time    =   8291.57 s
Finalisation time   =    162.70 s
Total time          =   8485.38 s
Peak Memory Use     = 9648168 kB
 
Overall parallel efficiency rating: Terrible (34%)
 
Data was distributed by:-
G-vector (3-way); efficiency rating: Poor (37%)
k-point (36-way); efficiency rating: Very good (85%)
