 +-------------------------------------------------+
 |                                                 |
 |      CCC   AA    SSS  TTTTT  EEEEE  PPPP        |
 |     C     A  A  S       T    E      P   P       |
 |     C     AAAA   SS     T    EEE    PPPP        |
 |     C     A  A     S    T    E      P           |
 |      CCC  A  A  SSS     T    EEEEE  P           |
 |                                                 |
 +-------------------------------------------------+
 |                                                 |
 | Welcome to Academic Release CASTEP version 24.1 |
 | Ab Initio Total Energy Program                  |
 |                                                 |
 | Authors:                                        |
 | M. Segall, M. Probert, C. Pickard, P. Hasnip,   |
 | S. Clark, K. Refson, J. R. Yates,               |
 | A. Bartok-Partay, M. Payne                      |
 |                                                 |
 | Contributors:                                   |
 | P. Lindan, P. Haynes, J. White, V. Milman,      |
 | N. Govind, M. Gibson, P. Tulip, V. Cocula,      |
 | B. Montanari, D. Quigley, M. Glover,            |
 | L. Bernasconi, A. Perlov, M. Plummer,           |
 | E. McNellis, J. Meyer, J. Gale, D. Jochym       |
 | J. Aarons, B. Walker, R. Gillen, D. Jones       |
 | T. Green, I. J. Bush, C. J. Armstrong,          |
 | E. J. Higgins, E. L. Brown, M. S. McFly,        |
 | J. Wilkins, B-C. Shih, P. J. P. Byrne,          |
 | R. J. Maurer, J. C. Womack, J. Dziedzic,        |
 | L. LeBlanc, T. K. Stenczel, J. Kermode,         |
 | S. Sturniolo, B. Shi, B. Durham, M. Evans,      |
 | M. J. Smith, A. Tamerus, Z. Hawkhead,           |
 | V. Ravindran, T. Hollins, S. A. Joyce,          |
 | R. T. Strong, A. M. Reilly, S. J. Donaldson     |
 |                                                 |
 | Copyright (c) 2000 - 2023                       |
 |                                                 |
 |     Distributed under license from Cambridge    |
 |     Enterprise for academic use only.           |
 |                                                 |
 | Please cite                                     |
 |                                                 |
 |     "First principles methods using CASTEP"     |
 |                                                 |
 |         Zeitschrift fuer Kristallographie       |
 |           220(5-6) pp. 567-570 (2005)           |
 |                                                 |
 | S. J. Clark, M. D. Segall, C. J. Pickard,       |
 | P. J. Hasnip, M. J. Probert, K. Refson,         |
 | M. C. Payne                                     |
 |                                                 |
 |       in all publications arising from          |
 |              your use of CASTEP                 |
 |                                                 |
 +-------------------------------------------------+
 |                                                 |
 |              http://www.castep.org              |
 |                                                 |
 +-------------------------------------------------+



 Compiled for  GNU 11.2.0 on 04-04-2024 18:39:17
 from code version 6355fd106 Castep241_branch Thu Mar 7 17:56:19 2024 +0000
 Compiler: GNU Fortran 11.2.0; Optimisation: FAST
 Comms   : MPI VERSION : CRAY MPICH version 8.1.23.14 (ANL base 3.4a2)
 MATHLIBS: default (LAPACK version 3.10.1)
 FFT Lib : fftw3 version commercial-fftw-3.3.10-sse2-avx-avx2-avx2_128
 Fundamental constants values: CODATA 2018

 Run started: Tue, 29 Jul 2025 20:49:05 +0100

 Atomic calculation performed for P: 1s2 2s2 2p6 3s2 3p3

 Converged in 47 iterations to an ae energy of -9309.074 eV

   ============================================================                
   | Pseudopotential Report - Date of generation 29-07-2025   |                
   ------------------------------------------------------------                
   | Element: P Ionic charge:  5.00 Level of theory: RSCAN    |                
   | Atomic Solver: Koelling-Harmon                           |                
   |                                                          |                
   |               Reference Electronic Structure             |                
   |         Orbital         Occupation         Energy        |                
   |            3s              2.000           -0.535        |                
   |            3p              3.000           -0.209        |                
   |                                                          |                
   |                 Pseudopotential Definition               |                
   |        Beta     l      e      Rc     scheme   norm       |                
   |          1      0   -0.535   1.807     qc      0         |                
   |          2      0    0.250   1.807     qc      0         |                
   |          3      1   -0.209   1.807     qc      0         |                
   |          4      1    0.250   1.807     qc      0         |                
   |          5      2    0.000   1.807     qc      0         |                
   |          6      2    0.250   1.807     qc      0         |                
   |         loc     3    0.000   1.807     pn      0         |                
   |                                                          |                
   | Augmentation charge Rinner = 1.263                       |                
   | Partial core correction Rc = 1.263                       |                
   ------------------------------------------------------------                
   | "3|1.8|4|4|5|30:31:32"                                   |                
   ------------------------------------------------------------                
   |      Author: Chris J. Pickard, Cambridge University      |                
   ============================================================                
 Warning: otfg_output_psp cannot write out meta-GGA pseudopotentials presently.

 Atomic calculation performed for In:
 1s2 2s2 2p6 3s2 3p6 3d10 4s2 4p6 4d10 5s2 5p1

 Converged in 84 iterations to an ae energy of -160093.328 eV

   ============================================================                
   | Pseudopotential Report - Date of generation 29-07-2025   |                
   ------------------------------------------------------------                
   | Element: In Ionic charge: 13.00 Level of theory: RSCAN   |                
   | Atomic Solver: Koelling-Harmon                           |                
   |                                                          |                
   |               Reference Electronic Structure             |                
   |         Orbital         Occupation         Energy        |                
   |            4d             10.000           -0.711        |                
   |            5s              2.000           -0.313        |                
   |            5p              1.000           -0.095        |                
   |                                                          |                
   |                 Pseudopotential Definition               |                
   |        Beta     l      e      Rc     scheme   norm       |                
   |          1      0   -0.313   2.501     qc      0         |                
   |          2      0    0.250   2.501     qc      0         |                
   |          3      1   -0.095   2.501     qc      0         |                
   |          4      1    0.250   2.501     qc      0         |                
   |          5      2   -0.711   2.207     qc      0         |                
   |          6      2    0.250   2.207     qc      0         |                
   |         loc     3    0.000   2.501     pn      0         |                
   |                                                          |                
   | Augmentation charge Rinner = 1.504                       |                
   | Partial core correction Rc = 1.504                       |                
   ------------------------------------------------------------                
   | "3|2.5|2.5|1.5|7|8|9|50:51:42U2.2U2.2"                   |                
   ------------------------------------------------------------                
   |      Author: Chris J. Pickard, Cambridge University      |                
   ============================================================                
 Warning: otfg_output_psp cannot write out meta-GGA pseudopotentials presently.

 Pseudo atomic calculation performed for P 3s2 3p3

 Converged in 23 iterations to a total energy of -208.0292 eV

 Pseudo atomic calculation performed for In 4d10 5s2 5p1

 Converged in 42 iterations to a total energy of -1747.4501 eV
 Calculation parallelised over 108 processes.
 Data is distributed by G-vector(3-way) and k-point(36-way)
 Each process may use up to 16 threads.

 ************************************ Title ************************************
 

 ***************************** General Parameters ******************************
  
 output verbosity                               : normal  (1)
 write checkpoint data to                       : In_Interstitial_Migration_Tetra_Octa_Singlepoints_2.check
 type of calculation                            : single point energy
 stress calculation                             : off
 density difference calculation                 : off
 electron localisation func (ELF) calculation   : off
 Hirshfeld analysis                             : on
 polarisation (Berry phase) analysis            : off
 molecular orbital projected DOS                : off
 deltaSCF calculation                           : off
 unlimited duration calculation
 timing information                             : on
 memory usage estimate                          : on
 write extra output files                       : on
 write final potential to formatted file        : off
 write final density to formatted file          : off
 write BibTeX reference list                    : on
 write OTFG pseudopotential files               : on
 write electrostatic potential file             : on
 write bands file                               : on
 checkpoint writing                             : off
  
 output         length unit                     : A
 output           mass unit                     : amu
 output           time unit                     : ps
 output         charge unit                     : e
 output           spin unit                     : hbar/2
 output         energy unit                     : eV
 output          force unit                     : eV/A
 output       velocity unit                     : A/ps
 output       pressure unit                     : GPa
 output     inv_length unit                     : 1/A
 output      frequency unit                     : cm-1
 output force constant unit                     : eV/A**2
 output         volume unit                     : A**3
 output   IR intensity unit                     : (D/A)**2/amu
 output         dipole unit                     : D
 output         efield unit                     : eV/A/e
 output        entropy unit                     : J/mol/K
 output    efield chi2 unit                     : pm/V
  
 wavefunctions paging                           : none
 random number generator seed                   :  204906080
 data distribution                              : optimal for this architecture
 optimization strategy                          : balance speed and memory

 *********************** Exchange-Correlation Parameters ***********************
  
 using functional                               : RSCAN
 relativistic treatment                         : Koelling-Harmon
 DFT+D: Semi-empirical dispersion correction    : off

 ************************* Pseudopotential Parameters **************************
  
 pseudopotential representation                 : reciprocal space
 <beta|phi> representation                      : reciprocal space
 spin-orbit coupling                            : off

 **************************** Basis Set Parameters *****************************
  
 plane wave basis set cut-off                   :   900.0000   eV
 size of standard grid                          :     2.0000
 size of   fine   gmax                          :    30.7390   1/A
 finite basis set correction                    : none

 **************************** Electronic Parameters ****************************
  
 number of  electrons                           :  589.0    
 net charge of system                           :  0.000    
 net spin   of system                           :  1.000    
 number of  up  spins                           :  295.0    
 number of down spins                           :  294.0    
 treating system as spin-polarized
 number of bands                                :        354

 ********************* Electronic Minimization Parameters **********************
  
 Method: Treating system as metallic with density mixing treatment of electrons,
         and number of  SD  steps               :          1
         and number of  CG  steps               :          4
  
 total energy / atom convergence tol.           : 0.1000E-07   eV
 eigen-energy convergence tolerance             : 0.2203E-08   eV
 max force / atom convergence tol.              : ignored
 convergence tolerance window                   :          3   cycles
 max. number of SCF cycles                      :        100
 number of fixed-spin iterations                :         10
 smearing scheme                                : Gaussian
 smearing width                                 : 0.2000       eV
 Fermi energy convergence tolerance             : 0.2721E-13   eV
 periodic dipole correction                     : NONE

 ************************** Density Mixing Parameters **************************
  
 density-mixing scheme                          : Pulay
 max. length of mixing history                  :         20
 charge density mixing amplitude                : 0.5000    
   spin density mixing amplitude                :  2.000    
 cut-off energy for mixing                      :  900.0       eV

 *********************** Population Analysis Parameters ************************
  
 Population analysis with cutoff                :  3.000       A
 Population analysis output                     : summary and pdos components

 *******************************************************************************
  

                           -------------------------------
                                      Unit Cell
                           -------------------------------
        Real Lattice(A)                      Reciprocal Lattice(1/A)
    11.8025500     0.0000000     0.0000000        0.532358288   0.000000000   0.000000000
     0.0000000    11.8025500     0.0000000        0.000000000   0.532358288   0.000000000
     0.0000000     0.0000000    11.8025500        0.000000000   0.000000000   0.532358288

                       Lattice parameters(A)       Cell Angles
                    a =     11.802550          alpha =   90.000000
                    b =     11.802550          beta  =   90.000000
                    c =     11.802550          gamma =   90.000000

                       Current cell volume =          1644.097416       A**3
                                   density =             2.907464   AMU/A**3
                                           =             4.827958     g/cm^3

                           -------------------------------
                                     Cell Contents
                           -------------------------------
                         Total number of ions in cell =   65
                      Total number of species in cell =    2
                        Max number of any one species =   33

            xxxxxxxxxxxxxxxxxxxxxxxxxxxxxxxxxxxxxxxxxxxxxxxxxxxxxxxxxxxx
            x  Element    Atom        Fractional coordinates of atoms  x
            x            Number           u          v          w      x
            x----------------------------------------------------------x
            x  P            1         0.130154   0.119846   0.379930   x 
            x  P            2         0.384480   0.127704   0.128574   x 
            x  P            3         0.130154   0.379060   0.120716   x 
            x  P            4         0.375420   0.377356   0.378226   x 
            x  P            5         0.122296   0.127704   0.866390   x 
            x  P            6         0.376963   0.123317   0.623871   x 
            x  P            7         0.125400   0.375240   0.624463   x 
            x  P            8         0.389936   0.384699   0.860934   x 
            x  P            9         0.125400   0.623593   0.376110   x 
            x  P           10         0.376963   0.623001   0.124188   x 
            x  P           11         0.122296   0.865520   0.128574   x 
            x  P           12         0.389936   0.860064   0.385570   x 
            x  P           13         0.126683   0.623001   0.873907   x 
            x  P           14         0.378013   0.625690   0.626561   x 
            x  P           15         0.126683   0.873037   0.623871   x 
            x  P           16         0.371389   0.878611   0.879482   x 
            x  P           17         0.626407   0.124600   0.376110   x 
            x  P           18         0.870941   0.119846   0.120716   x 
            x  P           19         0.626407   0.375240   0.125471   x 
            x  P           20         0.883536   0.366464   0.367334   x 
            x  P           21         0.626999   0.123317   0.873907   x 
            x  P           22         0.874760   0.124600   0.624463   x 
            x  P           23         0.629851   0.373467   0.621020   x 
            x  P           24         0.872644   0.377356   0.875450   x 
            x  P           25         0.629851   0.620149   0.374337   x 
            x  P           26         0.874760   0.623593   0.125471   x 
            x  P           27         0.626999   0.873037   0.124188   x 
            x  P           28         0.872644   0.874580   0.378226   x 
            x  P           29         0.624310   0.625690   0.872858   x 
            x  P           30         0.876533   0.620149   0.621020   x 
            x  P           31         0.624310   0.871987   0.626561   x 
            x  P           32         0.865301   0.860064   0.860934   x 
            x  In           1        -0.023337  -0.015697  -0.014827   x 
            x  In           2         0.265697  -0.015697   0.274207   x 
            x  In           3         0.009936   0.240064   0.240934   x 
            x  In           4         0.265697   0.273337  -0.014827   x 
            x  In           5        -0.000282  -0.001469   0.502289   x 
            x  In           6         0.249704   0.000296   0.747830   x 
            x  In           7        -0.004646   0.254646   0.747373   x 
            x  In           8         0.251469   0.250282   0.502289   x 
            x  In           9        -0.000282   0.501419  -0.000599   x 
            x  In          10         0.251469   0.501419   0.251152   x 
            x  In          11        -0.004646   0.746503   0.255516   x 
            x  In          12         0.249704   0.746960   0.001166   x 
            x  In          13         0.000237   0.494860   0.495730   x 
            x  In          14         0.250315   0.502106   0.745477   x 
            x  In          15         0.003886   0.742984   0.743854   x 
            x  In          16         0.250315   0.744607   0.502976   x 
            x  In          17         0.503040   0.000296   0.001166   x 
            x  In          18         0.748581  -0.001469   0.251152   x 
            x  In          19         0.503497   0.254646   0.255516   x 
            x  In          20         0.748581   0.250282  -0.000599   x 
            x  In          21         0.505393  -0.000315   0.502976   x 
            x  In          22         0.747894  -0.000315   0.745477   x 
            x  In          23         0.507016   0.246114   0.743854   x 
            x  In          24         0.755140   0.249763   0.495730   x 
            x  In          25         0.505393   0.502106   0.000555   x 
            x  In          26         0.755140   0.494860   0.250633   x 
            x  In          27         0.507016   0.742984   0.246984   x 
            x  In          28         0.747894   0.744607   0.000555   x 
            x  In          29         0.502677   0.500792   0.501662   x 
            x  In          30         0.749208   0.500792   0.748193   x 
            x  In          31         0.496548   0.753452   0.754322   x 
            x  In          32         0.749208   0.747323   0.501662   x 
            x  In          33         0.159606   0.090394   0.091264   x 
            xxxxxxxxxxxxxxxxxxxxxxxxxxxxxxxxxxxxxxxxxxxxxxxxxxxxxxxxxxxx


                         No user defined ionic velocities

                           -------------------------------
                                   Details of Species
                           -------------------------------

                               Mass of species in AMU
                                    P   30.9737600
                                    In  114.8180000

                          Electric Quadrupole Moment (Barn)
                                    P    1.0000000 No Isotope Defined
                                    In    0.7700000 Isotope115

                          Files used for pseudopotentials:
                                    P 3|1.8|4|4|5|30:31:32
                                    In 3|2.5|2.5|1.5|7|8|9|50:51:42U2.2U2.2

                           -------------------------------
                              k-Points For BZ Sampling
                           -------------------------------
                       MP grid size for SCF calculation is  4  4  4
                            with an offset of   0.125  0.125  0.125
                       Number of kpoints used =            36

                           -------------------------------
                               Symmetry and Constraints
                           -------------------------------

                      Maximum deviation from symmetry =  0.00000         ANG

                      Number of symmetry operations   =           1
                      Number of ionic constraints     =           3
                      Point group of crystal =     1: C1, 1, 1
                      Space group of crystal =   160: R3m, R 3 -2"

             Set iprint > 1 for details on symmetry rotations/translations

                         Centre of mass is constrained
             Set iprint > 1 for details of linear ionic constraints

                         Number of cell constraints= 0
                         Cell constraints are:  1 2 3 4 5 6

                         External pressure/stress (GPa)
                          0.00000   0.00000   0.00000
                                    0.00000   0.00000
                                              0.00000
 
+---------------- MEMORY AND SCRATCH DISK ESTIMATES PER PROCESS --------------+
|                                                     Memory          Disk    |
| Baseline code, static data and system overhead      368.0 MB         0.0 MB |
| BLAS internal memory storage                          0.0 MB         0.0 MB |
| Model and support data                             4331.9 MB         0.0 MB |
| Electronic energy minimisation requirements        1349.7 MB         0.0 MB |
| Force calculation requirements                      127.4 MB         0.0 MB |
|                                               ----------------------------- |
| Approx. total storage required per process         6049.6 MB         0.0 MB |
|                                                                             |
| Requirements will fluctuate during execution and may exceed these estimates |
+-----------------------------------------------------------------------------+
Calculating approximate eigenstates for fixed initial Hamiltonian
Cut-off for approx. calculation is   89.988 eV
Improving approx. states at cut-off of  450.000 eV
Resetting cut-off to  900.000 eV
Calculating total energy with cut-off of  900.000 eV.
------------------------------------------------------------------------ <-- SCF
SCF loop      Energy           Fermi           Energy gain       Timer   <-- SCF
                               energy          per atom          (sec)   <-- SCF
------------------------------------------------------------------------ <-- SCF
Initial  -6.48023417E+004  0.00000000E+000                       453.88  <-- SCF
      1  -6.45474318E+004  3.76392546E+000  -3.92169109E+000     915.40  <-- SCF
      2  -6.45477521E+004  3.75784728E+000   4.92696680E-003    1243.98  <-- SCF
      3  -6.46176506E+004  3.93794042E+000   1.07536204E+000    1595.19  <-- SCF
      4  -6.46300035E+004  4.00485104E+000   1.90044561E-001    2084.49  <-- SCF
      5  -6.46366508E+004  4.16894451E+000   1.02267046E-001    2444.69  <-- SCF
      6  -6.46254764E+004  4.39993482E+000  -1.71915081E-001    2817.35  <-- SCF
      7  -6.46241883E+004  4.44424916E+000  -1.98162892E-002    3188.67  <-- SCF
      8  -6.46242569E+004  4.47546577E+000   1.05470196E-003    3558.89  <-- SCF
      9  -6.46250440E+004  4.49432551E+000   1.21094398E-002    3919.90  <-- SCF
     10  -6.46254640E+004  4.77248046E+000   6.46204360E-003    4287.14  <-- SCF
     11  -6.46254777E+004  4.76595921E+000   2.10746633E-004    4654.56  <-- SCF
     12  -6.46254831E+004  4.76354085E+000   8.29890517E-005    5010.82  <-- SCF
     13  -6.46254856E+004  4.76023214E+000   3.90369114E-005    5375.75  <-- SCF
     14  -6.46254862E+004  4.75880547E+000   8.15940041E-006    5745.13  <-- SCF
     15  -6.46254864E+004  4.75826740E+000   3.36502341E-006    6109.14  <-- SCF
     16  -6.46254865E+004  4.75774385E+000   1.12956014E-006    6448.64  <-- SCF
     17  -6.46254865E+004  4.75745353E+000   3.50636996E-007    6780.11  <-- SCF
     18  -6.46254865E+004  4.75742338E+000   1.25423489E-007    7086.26  <-- SCF
     19  -6.46254865E+004  4.75744480E+000   6.00052933E-008    7356.33  <-- SCF
     20  -6.46254865E+004  4.75747010E+000   1.09716306E-008    7606.98  <-- SCF
     21  -6.46254865E+004  4.75747824E+000   1.38325701E-009    7854.40  <-- SCF
     22  -6.46254865E+004  4.75748275E+000   3.51239911E-010    8114.31  <-- SCF
------------------------------------------------------------------------ <-- SCF
 
Integrated Spin Density     =   -0.547312E-04 hbar/2
Integrated |Spin Density|   =    0.278163E-03 hbar/2
 
Final energy, E             =  -64625.35982913     eV
Final free energy (E-TS)    =  -64625.48649661     eV
(energies not corrected for finite basis set)
 
NB est. 0K energy (E-0.5TS)      =  -64625.42316287     eV
 

 ************************** Forces **************************
 *                                                          *
 *               Cartesian components (eV/A)                *
 * -------------------------------------------------------- *
 *                         x            y            z      *
 *                                                          *
 * P               1     -0.01431      0.01432      0.01186 *
 * P               2     -0.07347     -0.12844     -0.13106 *
 * P               3     -0.01449      0.01603      0.01026 *
 * P               4     -0.03880     -0.03693     -0.03906 *
 * P               5      0.12934     -0.12934      0.07675 *
 * P               6      0.01760      0.00100      0.01967 *
 * P               7     -0.00517     -0.01280      0.00785 *
 * P               8      0.04471      0.02300     -0.04596 *
 * P               9     -0.00478      0.00597     -0.01056 *
 * P              10      0.01773      0.01860      0.00268 *
 * P              11      0.12844      0.07347     -0.13106 *
 * P              12      0.04492     -0.04491      0.02365 *
 * P              13     -0.00104      0.01871     -0.01660 *
 * P              14      0.04154     -0.01585     -0.01351 *
 * P              15     -0.00101     -0.01760      0.01967 *
 * P              16      0.06577     -0.06578     -0.07024 *
 * P              17     -0.00598      0.00477     -0.01056 *
 * P              18     -0.01603      0.01450      0.01026 *
 * P              19     -0.00626     -0.01293      0.00758 *
 * P              20     -0.05198      0.05199      0.05424 *
 * P              21     -0.01872      0.00103     -0.01660 *
 * P              22      0.01279      0.00516      0.00785 *
 * P              23      0.00296      0.02215     -0.00687 *
 * P              24      0.03766     -0.03767      0.04221 *
 * P              25      0.00302     -0.00303      0.02495 *
 * P              26      0.01293      0.00626      0.00758 *
 * P              27     -0.01861     -0.01772      0.00268 *
 * P              28      0.03692      0.03881     -0.03906 *
 * P              29      0.01613     -0.01613     -0.04191 *
 * P              30     -0.02216     -0.00297     -0.00687 *
 * P              31      0.01584     -0.04155     -0.01351 *
 * P              32     -0.02300     -0.04472     -0.04597 *
 * In              1     -0.02791      0.00431      0.00424 *
 * In              2     -0.00430      0.00430      0.02787 *
 * In              3      0.06835     -0.06836     -0.06836 *
 * In              4     -0.00432      0.02791      0.00424 *
 * In              5      0.04635     -0.00026     -0.00581 *
 * In              6     -0.00627      0.00627     -0.02895 *
 * In              7     -0.01743      0.01743     -0.07327 *
 * In              8      0.00026     -0.04636     -0.00581 *
 * In              9      0.04639     -0.00579     -0.00028 *
 * In             10      0.00026     -0.00576     -0.04638 *
 * In             11     -0.01746     -0.07313      0.01726 *
 * In             12     -0.00631     -0.02883      0.00626 *
 * In             13      0.00457      0.00357      0.00341 *
 * In             14     -0.02875     -0.00032      0.01814 *
 * In             15      0.01021     -0.02457     -0.02468 *
 * In             16     -0.02875      0.01828     -0.00046 *
 * In             17      0.02884      0.00632      0.00626 *
 * In             18      0.00577     -0.00026     -0.04638 *
 * In             19      0.07312      0.01746      0.01726 *
 * In             20      0.00580     -0.04639     -0.00028 *
 * In             21     -0.01829      0.02876     -0.00047 *
 * In             22      0.00033      0.02876      0.01814 *
 * In             23      0.02457     -0.01021     -0.02468 *
 * In             24     -0.00357     -0.00457      0.00341 *
 * In             25     -0.01830     -0.00033      0.02872 *
 * In             26     -0.00355      0.00356     -0.00467 *
 * In             27      0.02457     -0.02458     -0.01040 *
 * In             28      0.00034      0.01830      0.02872 *
 * In             29     -0.00076     -0.02391     -0.02397 *
 * In             30      0.02393     -0.02392      0.00068 *
 * In             31     -0.01007      0.01007      0.00988 *
 * In             32      0.02392      0.00076     -0.02397 *
 * In             33     -0.50402      0.50402      0.50402 *
 *                                                          *
 ************************************************************

 Pseudo atomic calculation performed for P 3s2 3p3

 Converged in 23 iterations to a total energy of -208.0292 eV

 Pseudo atomic calculation performed for In 4d10 5s2 5p1

 Converged in 42 iterations to a total energy of -1747.4501 eV
Charge spilling parameter for spin component 1 = 0.26%
Charge spilling parameter for spin component 2 = 0.26%

                   Orbital Populations                  
  ---------------------------------------------------------------
     Ion    Atom   Orbital              Up        Down      Spin
  ---------------------------------------------------------------
      P     1      S                    0.873     0.873     0.000
      P     1      Px                   0.649     0.649    -0.000
      P     1      Py                   0.649     0.649    -0.000
      P     1      Pz                   0.645     0.645    -0.000
      P     2      S                    0.883     0.883     0.000
      P     2      Px                   0.626     0.627    -0.000
      P     2      Py                   0.654     0.654    -0.000
      P     2      Pz                   0.654     0.654    -0.000
      P     3      S                    0.873     0.873     0.000
      P     3      Px                   0.649     0.649    -0.000
      P     3      Py                   0.645     0.645    -0.000
      P     3      Pz                   0.649     0.649    -0.000
      P     4      S                    0.868     0.868     0.000
      P     4      Px                   0.655     0.655    -0.000
      P     4      Py                   0.657     0.657    -0.000
      P     4      Pz                   0.657     0.657    -0.000
      P     5      S                    0.883     0.883     0.000
      P     5      Px                   0.654     0.654    -0.000
      P     5      Py                   0.654     0.654    -0.000
      P     5      Pz                   0.627     0.626     0.000
      P     6      S                    0.867     0.867     0.000
      P     6      Px                   0.653     0.653    -0.000
      P     6      Py                   0.657     0.657    -0.000
      P     6      Pz                   0.658     0.658    -0.000
      P     7      S                    0.868     0.868     0.000
      P     7      Px                   0.655     0.655    -0.000
      P     7      Py                   0.657     0.657    -0.000
      P     7      Pz                   0.656     0.656    -0.000
      P     8      S                    0.869     0.869    -0.000
      P     8      Px                   0.654     0.654    -0.000
      P     8      Py                   0.657     0.657    -0.000
      P     8      Pz                   0.654     0.654    -0.000
      P     9      S                    0.868     0.868     0.000
      P     9      Px                   0.655     0.655    -0.000
      P     9      Py                   0.656     0.656    -0.000
      P     9      Pz                   0.657     0.657    -0.000
      P    10      S                    0.868     0.867     0.000
      P    10      Px                   0.653     0.653    -0.000
      P    10      Py                   0.658     0.658    -0.000
      P    10      Pz                   0.657     0.657    -0.000
      P    11      S                    0.883     0.883    -0.000
      P    11      Px                   0.654     0.654    -0.000
      P    11      Py                   0.626     0.627    -0.000
      P    11      Pz                   0.654     0.654    -0.000
      P    12      S                    0.869     0.869    -0.000
      P    12      Px                   0.654     0.654    -0.000
      P    12      Py                   0.654     0.654    -0.000
      P    12      Pz                   0.657     0.657    -0.000
      P    13      S                    0.867     0.867     0.000
      P    13      Px                   0.657     0.657    -0.000
      P    13      Py                   0.658     0.658    -0.000
      P    13      Pz                   0.653     0.653     0.000
      P    14      S                    0.866     0.866     0.000
      P    14      Px                   0.655     0.655    -0.000
      P    14      Py                   0.658     0.658    -0.000
      P    14      Pz                   0.658     0.658    -0.000
      P    15      S                    0.867     0.867     0.000
      P    15      Px                   0.657     0.657    -0.000
      P    15      Py                   0.653     0.653    -0.000
      P    15      Pz                   0.658     0.658    -0.000
      P    16      S                    0.869     0.869     0.000
      P    16      Px                   0.656     0.656    -0.000
      P    16      Py                   0.656     0.656     0.000
      P    16      Pz                   0.656     0.656    -0.000
      P    17      S                    0.868     0.868     0.000
      P    17      Px                   0.656     0.656    -0.000
      P    17      Py                   0.655     0.655    -0.000
      P    17      Pz                   0.657     0.657    -0.000
      P    18      S                    0.873     0.873     0.000
      P    18      Px                   0.645     0.645    -0.000
      P    18      Py                   0.649     0.649    -0.000
      P    18      Pz                   0.649     0.649    -0.000
      P    19      S                    0.868     0.868     0.000
      P    19      Px                   0.656     0.656    -0.000
      P    19      Py                   0.657     0.657    -0.000
      P    19      Pz                   0.655     0.655    -0.000
      P    20      S                    0.872     0.872     0.000
      P    20      Px                   0.654     0.654    -0.000
      P    20      Py                   0.654     0.654     0.000
      P    20      Pz                   0.654     0.654    -0.000
      P    21      S                    0.867     0.867     0.000
      P    21      Px                   0.658     0.658    -0.000
      P    21      Py                   0.657     0.657    -0.000
      P    21      Pz                   0.653     0.653     0.000
      P    22      S                    0.868     0.868     0.000
      P    22      Px                   0.657     0.657    -0.000
      P    22      Py                   0.655     0.655    -0.000
      P    22      Pz                   0.656     0.656    -0.000
      P    23      S                    0.867     0.867     0.000
      P    23      Px                   0.657     0.657     0.000
      P    23      Py                   0.654     0.654     0.000
      P    23      Pz                   0.657     0.657    -0.000
      P    24      S                    0.868     0.868     0.000
      P    24      Px                   0.657     0.657    -0.000
      P    24      Py                   0.657     0.657    -0.000
      P    24      Pz                   0.655     0.655    -0.000
      P    25      S                    0.867     0.867     0.000
      P    25      Px                   0.657     0.657    -0.000
      P    25      Py                   0.657     0.657     0.000
      P    25      Pz                   0.654     0.654     0.000
      P    26      S                    0.868     0.868     0.000
      P    26      Px                   0.657     0.657    -0.000
      P    26      Py                   0.656     0.656    -0.000
      P    26      Pz                   0.655     0.655    -0.000
      P    27      S                    0.867     0.867     0.000
      P    27      Px                   0.658     0.658    -0.000
      P    27      Py                   0.653     0.653    -0.000
      P    27      Pz                   0.657     0.657    -0.000
      P    28      S                    0.868     0.868     0.000
      P    28      Px                   0.657     0.657    -0.000
      P    28      Py                   0.655     0.655    -0.000
      P    28      Pz                   0.657     0.657    -0.000
      P    29      S                    0.866     0.866     0.000
      P    29      Px                   0.658     0.658    -0.000
      P    29      Py                   0.658     0.658     0.000
      P    29      Pz                   0.655     0.655    -0.000
      P    30      S                    0.867     0.867     0.000
      P    30      Px                   0.654     0.654    -0.000
      P    30      Py                   0.657     0.657     0.000
      P    30      Pz                   0.657     0.657    -0.000
      P    31      S                    0.866     0.866     0.000
      P    31      Px                   0.658     0.658     0.000
      P    31      Py                   0.655     0.655    -0.000
      P    31      Pz                   0.658     0.658    -0.000
      P    32      S                    0.869     0.869    -0.000
      P    32      Px                   0.657     0.657    -0.000
      P    32      Py                   0.654     0.654    -0.000
      P    32      Pz                   0.654     0.654    -0.000
     In     1      Dzz                  1.000     1.000     0.000
     In     1      Dzy                  0.998     0.998     0.000
     In     1      Dzx                  0.998     0.998     0.000
     In     1      Dxx-yy               1.000     1.000    -0.000
     In     1      Dxy                  0.998     0.998     0.000
     In     1      S                    0.704     0.704     0.000
     In     1      Px                   0.229     0.229    -0.000
     In     1      Py                   0.244     0.244    -0.000
     In     1      Pz                   0.244     0.244    -0.000
     In     1      S                   -0.224    -0.224    -0.000
     In     2      Dzz                  0.999     0.999    -0.000
     In     2      Dzy                  0.998     0.998     0.000
     In     2      Dzx                  0.998     0.998     0.000
     In     2      Dxx-yy               1.000     1.000     0.000
     In     2      Dxy                  0.998     0.998    -0.000
     In     2      S                    0.704     0.704     0.000
     In     2      Px                   0.244     0.244    -0.000
     In     2      Py                   0.244     0.244    -0.000
     In     2      Pz                   0.229     0.229    -0.000
     In     2      S                   -0.224    -0.224    -0.000
     In     3      Dzz                  1.000     1.000     0.000
     In     3      Dzy                  0.999     0.999     0.000
     In     3      Dzx                  0.999     0.999     0.000
     In     3      Dxx-yy               1.000     1.000     0.000
     In     3      Dxy                  0.999     0.999     0.000
     In     3      S                    0.695     0.695     0.000
     In     3      Px                   0.249     0.249     0.000
     In     3      Py                   0.249     0.249    -0.000
     In     3      Pz                   0.249     0.249    -0.000
     In     3      S                   -0.254    -0.254    -0.000
     In     4      Dzz                  1.000     1.000     0.000
     In     4      Dzy                  0.998     0.998     0.000
     In     4      Dzx                  0.998     0.998    -0.000
     In     4      Dxx-yy               1.000     1.000     0.000
     In     4      Dxy                  0.998     0.998     0.000
     In     4      S                    0.704     0.704     0.000
     In     4      Px                   0.244     0.244    -0.000
     In     4      Py                   0.229     0.229    -0.000
     In     4      Pz                   0.244     0.244    -0.000
     In     4      S                   -0.224    -0.224    -0.000
     In     5      Dzz                  1.000     1.000     0.000
     In     5      Dzy                  0.999     0.999    -0.000
     In     5      Dzx                  0.998     0.998     0.000
     In     5      Dxx-yy               1.000     1.000    -0.000
     In     5      Dxy                  0.998     0.998    -0.000
     In     5      S                    0.713     0.713     0.000
     In     5      Px                   0.245     0.245     0.000
     In     5      Py                   0.242     0.242     0.000
     In     5      Pz                   0.238     0.238    -0.000
     In     5      S                   -0.263    -0.263    -0.000
     In     6      Dzz                  1.000     1.000    -0.000
     In     6      Dzy                  0.998     0.998     0.000
     In     6      Dzx                  0.998     0.998     0.000
     In     6      Dxx-yy               1.000     1.000    -0.000
     In     6      Dxy                  0.998     0.998     0.000
     In     6      S                    0.715     0.715     0.000
     In     6      Px                   0.244     0.244     0.000
     In     6      Py                   0.244     0.244     0.000
     In     6      Pz                   0.238     0.238    -0.000
     In     6      S                   -0.270    -0.270    -0.000
     In     7      Dzz                  1.000     1.000     0.000
     In     7      Dzy                  0.998     0.998     0.000
     In     7      Dzx                  0.998     0.998     0.000
     In     7      Dxx-yy               1.000     1.000    -0.000
     In     7      Dxy                  0.998     0.998     0.000
     In     7      S                    0.721     0.721     0.000
     In     7      Px                   0.244     0.244    -0.000
     In     7      Py                   0.244     0.244     0.000
     In     7      Pz                   0.238     0.238    -0.000
     In     7      S                   -0.275    -0.275     0.000
     In     8      Dzz                  1.000     1.000     0.000
     In     8      Dzy                  0.998     0.998     0.000
     In     8      Dzx                  0.999     0.999    -0.000
     In     8      Dxx-yy               1.000     1.000     0.000
     In     8      Dxy                  0.998     0.998     0.000
     In     8      S                    0.713     0.713     0.000
     In     8      Px                   0.242     0.242    -0.000
     In     8      Py                   0.245     0.245     0.000
     In     8      Pz                   0.238     0.238     0.000
     In     8      S                   -0.263    -0.263    -0.000
     In     9      Dzz                  1.000     1.000     0.000
     In     9      Dzy                  0.999     0.999     0.000
     In     9      Dzx                  0.998     0.998     0.000
     In     9      Dxx-yy               1.000     1.000     0.000
     In     9      Dxy                  0.998     0.998     0.000
     In     9      S                    0.713     0.713     0.000
     In     9      Px                   0.245     0.245     0.000
     In     9      Py                   0.238     0.238     0.000
     In     9      Pz                   0.242     0.242     0.000
     In     9      S                   -0.263    -0.263    -0.000
     In    10      Dzz                  1.000     1.000     0.000
     In    10      Dzy                  0.998     0.998     0.000
     In    10      Dzx                  0.998     0.998     0.000
     In    10      Dxx-yy               1.000     1.000     0.000
     In    10      Dxy                  0.999     0.999     0.000
     In    10      S                    0.713     0.713     0.000
     In    10      Px                   0.242     0.242     0.000
     In    10      Py                   0.238     0.238     0.000
     In    10      Pz                   0.245     0.245     0.000
     In    10      S                   -0.263    -0.263    -0.000
     In    11      Dzz                  1.000     1.000     0.000
     In    11      Dzy                  0.998     0.998     0.000
     In    11      Dzx                  0.998     0.998     0.000
     In    11      Dxx-yy               1.000     1.000     0.000
     In    11      Dxy                  0.998     0.998     0.000
     In    11      S                    0.721     0.721     0.000
     In    11      Px                   0.244     0.244    -0.000
     In    11      Py                   0.238     0.238    -0.000
     In    11      Pz                   0.244     0.244    -0.000
     In    11      S                   -0.275    -0.275    -0.000
     In    12      Dzz                  1.000     1.000     0.000
     In    12      Dzy                  0.998     0.998    -0.000
     In    12      Dzx                  0.998     0.998     0.000
     In    12      Dxx-yy               1.000     1.000    -0.000
     In    12      Dxy                  0.998     0.998    -0.000
     In    12      S                    0.715     0.715    -0.000
     In    12      Px                   0.244     0.244     0.000
     In    12      Py                   0.238     0.238    -0.000
     In    12      Pz                   0.244     0.244    -0.000
     In    12      S                   -0.270    -0.270    -0.000
     In    13      Dzz                  1.000     1.000     0.000
     In    13      Dzy                  0.998     0.998    -0.000
     In    13      Dzx                  0.998     0.998     0.000
     In    13      Dxx-yy               1.000     1.000     0.000
     In    13      Dxy                  0.998     0.998     0.000
     In    13      S                    0.712     0.712     0.000
     In    13      Px                   0.243     0.243     0.000
     In    13      Py                   0.242     0.242     0.000
     In    13      Pz                   0.242     0.242    -0.000
     In    13      S                   -0.264    -0.264    -0.000
     In    14      Dzz                  1.000     1.000    -0.000
     In    14      Dzy                  0.998     0.998     0.000
     In    14      Dzx                  0.998     0.998     0.000
     In    14      Dxx-yy               1.000     1.000     0.000
     In    14      Dxy                  0.998     0.998     0.000
     In    14      S                    0.716     0.716    -0.000
     In    14      Px                   0.248     0.248    -0.000
     In    14      Py                   0.239     0.239    -0.000
     In    14      Pz                   0.239     0.239     0.000
     In    14      S                   -0.262    -0.262    -0.000
     In    15      Dzz                  1.000     1.000     0.000
     In    15      Dzy                  0.998     0.998     0.000
     In    15      Dzx                  0.998     0.998     0.000
     In    15      Dxx-yy               1.000     1.000     0.000
     In    15      Dxy                  0.998     0.998     0.000
     In    15      S                    0.714     0.714    -0.000
     In    15      Px                   0.244     0.244     0.000
     In    15      Py                   0.239     0.240    -0.000
     In    15      Pz                   0.239     0.240    -0.000
     In    15      S                   -0.268    -0.268    -0.000
     In    16      Dzz                  1.000     1.000     0.000
     In    16      Dzy                  0.998     0.998     0.000
     In    16      Dzx                  0.998     0.998     0.000
     In    16      Dxx-yy               1.000     1.000    -0.000
     In    16      Dxy                  0.998     0.998    -0.000
     In    16      S                    0.716     0.716     0.000
     In    16      Px                   0.248     0.248    -0.000
     In    16      Py                   0.239     0.239    -0.000
     In    16      Pz                   0.239     0.239    -0.000
     In    16      S                   -0.262    -0.262     0.000
     In    17      Dzz                  1.000     1.000     0.000
     In    17      Dzy                  0.998     0.998     0.000
     In    17      Dzx                  0.998     0.998    -0.000
     In    17      Dxx-yy               1.000     1.000     0.000
     In    17      Dxy                  0.998     0.998    -0.000
     In    17      S                    0.715     0.715    -0.000
     In    17      Px                   0.238     0.238     0.000
     In    17      Py                   0.244     0.244     0.000
     In    17      Pz                   0.244     0.244     0.000
     In    17      S                   -0.270    -0.270    -0.000
     In    18      Dzz                  1.000     1.000     0.000
     In    18      Dzy                  0.998     0.998     0.000
     In    18      Dzx                  0.998     0.998     0.000
     In    18      Dxx-yy               1.000     1.000     0.000
     In    18      Dxy                  0.999     0.999     0.000
     In    18      S                    0.713     0.713     0.000
     In    18      Px                   0.238     0.238     0.000
     In    18      Py                   0.242     0.242     0.000
     In    18      Pz                   0.245     0.245     0.000
     In    18      S                   -0.263    -0.263    -0.000
     In    19      Dzz                  1.000     1.000     0.000
     In    19      Dzy                  0.998     0.998     0.000
     In    19      Dzx                  0.998     0.998     0.000
     In    19      Dxx-yy               1.000     1.000     0.000
     In    19      Dxy                  0.998     0.998     0.000
     In    19      S                    0.721     0.721     0.000
     In    19      Px                   0.238     0.238    -0.000
     In    19      Py                   0.244     0.244    -0.000
     In    19      Pz                   0.244     0.244    -0.000
     In    19      S                   -0.275    -0.275    -0.000
     In    20      Dzz                  1.000     1.000     0.000
     In    20      Dzy                  0.998     0.998     0.000
     In    20      Dzx                  0.999     0.999     0.000
     In    20      Dxx-yy               1.000     1.000     0.000
     In    20      Dxy                  0.998     0.998    -0.000
     In    20      S                    0.713     0.713     0.000
     In    20      Px                   0.238     0.238     0.000
     In    20      Py                   0.245     0.245     0.000
     In    20      Pz                   0.242     0.242     0.000
     In    20      S                   -0.263    -0.263    -0.000
     In    21      Dzz                  1.000     1.000     0.000
     In    21      Dzy                  0.998     0.998     0.000
     In    21      Dzx                  0.998     0.998     0.000
     In    21      Dxx-yy               1.000     1.000    -0.000
     In    21      Dxy                  0.998     0.998     0.000
     In    21      S                    0.716     0.716     0.000
     In    21      Px                   0.239     0.239    -0.000
     In    21      Py                   0.248     0.248     0.000
     In    21      Pz                   0.239     0.239    -0.000
     In    21      S                   -0.262    -0.262    -0.000
     In    22      Dzz                  1.000     1.000     0.000
     In    22      Dzy                  0.998     0.998    -0.000
     In    22      Dzx                  0.998     0.998     0.000
     In    22      Dxx-yy               1.000     1.000     0.000
     In    22      Dxy                  0.998     0.998     0.000
     In    22      S                    0.716     0.716    -0.000
     In    22      Px                   0.239     0.239    -0.000
     In    22      Py                   0.248     0.248     0.000
     In    22      Pz                   0.239     0.239    -0.000
     In    22      S                   -0.262    -0.262    -0.000
     In    23      Dzz                  1.000     1.000     0.000
     In    23      Dzy                  0.998     0.998     0.000
     In    23      Dzx                  0.998     0.998     0.000
     In    23      Dxx-yy               1.000     1.000     0.000
     In    23      Dxy                  0.998     0.998     0.000
     In    23      S                    0.714     0.714     0.000
     In    23      Px                   0.239     0.240    -0.000
     In    23      Py                   0.244     0.244    -0.000
     In    23      Pz                   0.240     0.240     0.000
     In    23      S                   -0.268    -0.268     0.000
     In    24      Dzz                  1.000     1.000     0.000
     In    24      Dzy                  0.998     0.998    -0.000
     In    24      Dzx                  0.998     0.998     0.000
     In    24      Dxx-yy               1.000     1.000     0.000
     In    24      Dxy                  0.998     0.998    -0.000
     In    24      S                    0.712     0.712     0.000
     In    24      Px                   0.242     0.242    -0.000
     In    24      Py                   0.243     0.243     0.000
     In    24      Pz                   0.242     0.242    -0.000
     In    24      S                   -0.264    -0.264     0.000
     In    25      Dzz                  0.999     0.999     0.000
     In    25      Dzy                  0.998     0.998     0.000
     In    25      Dzx                  0.998     0.998     0.000
     In    25      Dxx-yy               1.000     1.000    -0.000
     In    25      Dxy                  0.998     0.998     0.000
     In    25      S                    0.716     0.716     0.000
     In    25      Px                   0.239     0.239     0.000
     In    25      Py                   0.239     0.239     0.000
     In    25      Pz                   0.248     0.248     0.000
     In    25      S                   -0.262    -0.262    -0.000
     In    26      Dzz                  1.000     1.000    -0.000
     In    26      Dzy                  0.998     0.998     0.000
     In    26      Dzx                  0.998     0.998     0.000
     In    26      Dxx-yy               1.000     1.000     0.000
     In    26      Dxy                  0.998     0.998    -0.000
     In    26      S                    0.712     0.712     0.000
     In    26      Px                   0.242     0.242     0.000
     In    26      Py                   0.242     0.242     0.000
     In    26      Pz                   0.243     0.243    -0.000
     In    26      S                   -0.264    -0.264     0.000
     In    27      Dzz                  1.000     1.000    -0.000
     In    27      Dzy                  0.998     0.998     0.000
     In    27      Dzx                  0.998     0.998     0.000
     In    27      Dxx-yy               1.000     1.000     0.000
     In    27      Dxy                  0.998     0.998     0.000
     In    27      S                    0.714     0.714     0.000
     In    27      Px                   0.239     0.240    -0.000
     In    27      Py                   0.239     0.240    -0.000
     In    27      Pz                   0.244     0.244    -0.000
     In    27      S                   -0.268    -0.268    -0.000
     In    28      Dzz                  0.999     0.999     0.000
     In    28      Dzy                  0.998     0.998    -0.000
     In    28      Dzx                  0.998     0.998     0.000
     In    28      Dxx-yy               1.000     1.000    -0.000
     In    28      Dxy                  0.998     0.998    -0.000
     In    28      S                    0.716     0.716     0.000
     In    28      Px                   0.239     0.239     0.000
     In    28      Py                   0.239     0.239    -0.000
     In    28      Pz                   0.248     0.248     0.000
     In    28      S                   -0.262    -0.262     0.000
     In    29      Dzz                  1.000     1.000     0.000
     In    29      Dzy                  0.999     0.998     0.000
     In    29      Dzx                  0.998     0.998     0.000
     In    29      Dxx-yy               1.000     1.000    -0.000
     In    29      Dxy                  0.998     0.998    -0.000
     In    29      S                    0.713     0.712     0.000
     In    29      Px                   0.243     0.243     0.000
     In    29      Py                   0.241     0.241    -0.000
     In    29      Pz                   0.241     0.241    -0.000
     In    29      S                   -0.264    -0.264    -0.000
     In    30      Dzz                  1.000     1.000    -0.000
     In    30      Dzy                  0.998     0.998    -0.000
     In    30      Dzx                  0.998     0.998     0.000
     In    30      Dxx-yy               1.000     1.000    -0.000
     In    30      Dxy                  0.998     0.998     0.000
     In    30      S                    0.713     0.712     0.000
     In    30      Px                   0.241     0.241    -0.000
     In    30      Py                   0.241     0.241    -0.000
     In    30      Pz                   0.243     0.243     0.000
     In    30      S                   -0.264    -0.264    -0.000
     In    31      Dzz                  1.000     1.000    -0.000
     In    31      Dzy                  0.998     0.998     0.000
     In    31      Dzx                  0.998     0.998     0.000
     In    31      Dxx-yy               1.000     1.000    -0.000
     In    31      Dxy                  0.998     0.998     0.000
     In    31      S                    0.716     0.716     0.000
     In    31      Px                   0.240     0.240    -0.000
     In    31      Py                   0.240     0.240    -0.000
     In    31      Pz                   0.240     0.240    -0.000
     In    31      S                   -0.267    -0.267     0.000
     In    32      Dzz                  1.000     1.000     0.000
     In    32      Dzy                  0.998     0.998    -0.000
     In    32      Dzx                  0.999     0.998     0.000
     In    32      Dxx-yy               1.000     1.000    -0.000
     In    32      Dxy                  0.998     0.998    -0.000
     In    32      S                    0.713     0.712     0.000
     In    32      Px                   0.241     0.241    -0.000
     In    32      Py                   0.243     0.243     0.000
     In    32      Pz                   0.241     0.241    -0.000
     In    32      S                   -0.264    -0.264    -0.000
     In    33      Dzz                  0.998     0.998     0.000
     In    33      Dzy                  0.998     0.998     0.000
     In    33      Dzx                  0.998     0.998     0.000
     In    33      Dxx-yy               0.998     0.998     0.000
     In    33      Dxy                  0.998     0.998     0.000
     In    33      S                    0.761     0.761    -0.000
     In    33      Px                   0.222     0.222     0.000
     In    33      Py                   0.222     0.222     0.000
     In    33      Pz                   0.222     0.222     0.000
     In    33      S                   -0.041    -0.041    -0.000
  ---------------------------------------------------------------
                           Total:     294.500   294.500    -0.000
  ---------------------------------------------------------------

     Atomic Populations (Mulliken)
     -----------------------------
Species          Ion Spin      s       p       d       f      Total   Charge(e)   Spin(hbar/2)
==============================================================================================
  P               1   up:     0.873   1.943   0.000   0.000   2.816    -0.633       -0.000
                  1   dn:     0.873   1.943   0.000   0.000   2.816
  P               2   up:     0.883   1.934   0.000   0.000   2.817    -0.635       -0.000
                  2   dn:     0.883   1.934   0.000   0.000   2.818
  P               3   up:     0.873   1.943   0.000   0.000   2.816    -0.633       -0.000
                  3   dn:     0.873   1.943   0.000   0.000   2.816
  P               4   up:     0.868   1.968   0.000   0.000   2.836    -0.673       -0.000
                  4   dn:     0.868   1.968   0.000   0.000   2.836
  P               5   up:     0.883   1.934   0.000   0.000   2.817    -0.635       -0.000
                  5   dn:     0.883   1.934   0.000   0.000   2.818
  P               6   up:     0.867   1.969   0.000   0.000   2.836    -0.672       -0.000
                  6   dn:     0.867   1.969   0.000   0.000   2.836
  P               7   up:     0.868   1.968   0.000   0.000   2.835    -0.671       -0.000
                  7   dn:     0.868   1.968   0.000   0.000   2.835
  P               8   up:     0.869   1.965   0.000   0.000   2.834    -0.669       -0.000
                  8   dn:     0.869   1.965   0.000   0.000   2.834
  P               9   up:     0.868   1.968   0.000   0.000   2.835    -0.671       -0.000
                  9   dn:     0.868   1.968   0.000   0.000   2.835
  P              10   up:     0.868   1.969   0.000   0.000   2.836    -0.672       -0.000
                 10   dn:     0.867   1.969   0.000   0.000   2.836
  P              11   up:     0.883   1.934   0.000   0.000   2.817    -0.635       -0.000
                 11   dn:     0.883   1.934   0.000   0.000   2.818
  P              12   up:     0.869   1.965   0.000   0.000   2.834    -0.669       -0.000
                 12   dn:     0.869   1.965   0.000   0.000   2.834
  P              13   up:     0.867   1.969   0.000   0.000   2.836    -0.672       -0.000
                 13   dn:     0.867   1.969   0.000   0.000   2.836
  P              14   up:     0.866   1.971   0.000   0.000   2.837    -0.674       -0.000
                 14   dn:     0.866   1.971   0.000   0.000   2.837
  P              15   up:     0.867   1.969   0.000   0.000   2.836    -0.672       -0.000
                 15   dn:     0.867   1.969   0.000   0.000   2.836
  P              16   up:     0.869   1.969   0.000   0.000   2.838    -0.675       -0.000
                 16   dn:     0.869   1.969   0.000   0.000   2.838
  P              17   up:     0.868   1.968   0.000   0.000   2.835    -0.671       -0.000
                 17   dn:     0.868   1.968   0.000   0.000   2.835
  P              18   up:     0.873   1.943   0.000   0.000   2.816    -0.633       -0.000
                 18   dn:     0.873   1.943   0.000   0.000   2.816
  P              19   up:     0.868   1.968   0.000   0.000   2.835    -0.671       -0.000
                 19   dn:     0.868   1.968   0.000   0.000   2.835
  P              20   up:     0.872   1.961   0.000   0.000   2.832    -0.665        0.000
                 20   dn:     0.872   1.961   0.000   0.000   2.832
  P              21   up:     0.867   1.969   0.000   0.000   2.836    -0.672       -0.000
                 21   dn:     0.867   1.969   0.000   0.000   2.836
  P              22   up:     0.868   1.968   0.000   0.000   2.835    -0.671       -0.000
                 22   dn:     0.868   1.968   0.000   0.000   2.835
  P              23   up:     0.867   1.969   0.000   0.000   2.836    -0.673        0.000
                 23   dn:     0.867   1.969   0.000   0.000   2.836
  P              24   up:     0.868   1.968   0.000   0.000   2.836    -0.673        0.000
                 24   dn:     0.868   1.968   0.000   0.000   2.836
  P              25   up:     0.867   1.969   0.000   0.000   2.836    -0.673        0.000
                 25   dn:     0.867   1.969   0.000   0.000   2.836
  P              26   up:     0.868   1.968   0.000   0.000   2.835    -0.671       -0.000
                 26   dn:     0.868   1.968   0.000   0.000   2.835
  P              27   up:     0.867   1.969   0.000   0.000   2.836    -0.672       -0.000
                 27   dn:     0.867   1.969   0.000   0.000   2.836
  P              28   up:     0.868   1.968   0.000   0.000   2.836    -0.673       -0.000
                 28   dn:     0.868   1.968   0.000   0.000   2.836
  P              29   up:     0.866   1.971   0.000   0.000   2.837    -0.674       -0.000
                 29   dn:     0.866   1.971   0.000   0.000   2.837
  P              30   up:     0.867   1.969   0.000   0.000   2.836    -0.673        0.000
                 30   dn:     0.867   1.969   0.000   0.000   2.836
  P              31   up:     0.866   1.971   0.000   0.000   2.837    -0.674       -0.000
                 31   dn:     0.866   1.971   0.000   0.000   2.837
  P              32   up:     0.869   1.965   0.000   0.000   2.834    -0.669       -0.000
                 32   dn:     0.869   1.965   0.000   0.000   2.834
  In              1   up:     0.480   0.718   4.994   0.000   6.192     0.616        0.000
                  1   dn:     0.480   0.718   4.994   0.000   6.192
  In              2   up:     0.480   0.718   4.994   0.000   6.192     0.616        0.000
                  2   dn:     0.480   0.718   4.994   0.000   6.192
  In              3   up:     0.441   0.747   4.995   0.000   6.183     0.635       -0.000
                  3   dn:     0.441   0.747   4.995   0.000   6.183
  In              4   up:     0.480   0.718   4.994   0.000   6.192     0.616        0.000
                  4   dn:     0.480   0.718   4.994   0.000   6.192
  In              5   up:     0.450   0.725   4.994   0.000   6.169     0.662        0.000
                  5   dn:     0.450   0.725   4.994   0.000   6.169
  In              6   up:     0.446   0.726   4.994   0.000   6.166     0.667        0.000
                  6   dn:     0.446   0.726   4.994   0.000   6.166
  In              7   up:     0.446   0.726   4.994   0.000   6.166     0.668        0.000
                  7   dn:     0.446   0.726   4.994   0.000   6.166
  In              8   up:     0.450   0.725   4.994   0.000   6.169     0.662        0.000
                  8   dn:     0.450   0.725   4.994   0.000   6.169
  In              9   up:     0.450   0.725   4.994   0.000   6.169     0.662        0.000
                  9   dn:     0.450   0.725   4.994   0.000   6.169
  In             10   up:     0.450   0.725   4.994   0.000   6.169     0.662        0.000
                 10   dn:     0.450   0.725   4.994   0.000   6.169
  In             11   up:     0.446   0.726   4.994   0.000   6.166     0.668        0.000
                 11   dn:     0.446   0.726   4.994   0.000   6.166
  In             12   up:     0.446   0.726   4.994   0.000   6.166     0.667       -0.000
                 12   dn:     0.446   0.726   4.994   0.000   6.166
  In             13   up:     0.448   0.726   4.994   0.000   6.169     0.662        0.000
                 13   dn:     0.448   0.726   4.994   0.000   6.169
  In             14   up:     0.454   0.726   4.994   0.000   6.175     0.650       -0.000
                 14   dn:     0.454   0.726   4.994   0.000   6.175
  In             15   up:     0.446   0.723   4.994   0.000   6.164     0.672       -0.000
                 15   dn:     0.446   0.723   4.994   0.000   6.164
  In             16   up:     0.454   0.726   4.994   0.000   6.175     0.650        0.000
                 16   dn:     0.454   0.726   4.994   0.000   6.175
  In             17   up:     0.446   0.726   4.994   0.000   6.166     0.667       -0.000
                 17   dn:     0.446   0.726   4.994   0.000   6.166
  In             18   up:     0.450   0.725   4.994   0.000   6.169     0.662        0.000
                 18   dn:     0.450   0.725   4.994   0.000   6.169
  In             19   up:     0.446   0.726   4.994   0.000   6.166     0.668        0.000
                 19   dn:     0.446   0.726   4.994   0.000   6.166
  In             20   up:     0.450   0.725   4.994   0.000   6.169     0.662        0.000
                 20   dn:     0.450   0.725   4.994   0.000   6.169
  In             21   up:     0.454   0.726   4.994   0.000   6.175     0.650        0.000
                 21   dn:     0.454   0.726   4.994   0.000   6.175
  In             22   up:     0.454   0.726   4.994   0.000   6.175     0.650       -0.000
                 22   dn:     0.454   0.726   4.994   0.000   6.175
  In             23   up:     0.446   0.723   4.994   0.000   6.164     0.672        0.000
                 23   dn:     0.446   0.723   4.994   0.000   6.164
  In             24   up:     0.448   0.726   4.994   0.000   6.169     0.662        0.000
                 24   dn:     0.448   0.726   4.994   0.000   6.169
  In             25   up:     0.454   0.726   4.994   0.000   6.175     0.650        0.000
                 25   dn:     0.454   0.726   4.994   0.000   6.175
  In             26   up:     0.448   0.726   4.994   0.000   6.169     0.662        0.000
                 26   dn:     0.448   0.726   4.994   0.000   6.169
  In             27   up:     0.446   0.723   4.994   0.000   6.164     0.672       -0.000
                 27   dn:     0.446   0.723   4.994   0.000   6.164
  In             28   up:     0.454   0.726   4.994   0.000   6.175     0.650        0.000
                 28   dn:     0.454   0.726   4.994   0.000   6.175
  In             29   up:     0.449   0.725   4.994   0.000   6.168     0.663        0.000
                 29   dn:     0.449   0.725   4.994   0.000   6.168
  In             30   up:     0.449   0.725   4.994   0.000   6.168     0.663        0.000
                 30   dn:     0.449   0.725   4.994   0.000   6.168
  In             31   up:     0.449   0.721   4.995   0.000   6.165     0.670        0.000
                 31   dn:     0.449   0.721   4.995   0.000   6.165
  In             32   up:     0.449   0.725   4.994   0.000   6.168     0.663        0.000
                 32   dn:     0.449   0.725   4.994   0.000   6.168
  In             33   up:     0.720   0.665   4.992   0.000   6.378     0.245        0.000
                 33   dn:     0.721   0.665   4.992   0.000   6.378
==============================================================================================

                 Bond                   Population        Spin       Length (A)
================================================================================
              P 32 -- In 1                   0.83         0.00          2.45516
              P 8  -- In 4                   0.83         0.00          2.45516
              P 12 -- In 2                   0.83         0.00          2.45516
              P 31 -- In 22                  0.66         0.00          2.52367
              P 31 -- In 21                  0.66        -0.00          2.52367
              P 29 -- In 28                  0.66         0.00          2.52367
              P 29 -- In 25                  0.66         0.00          2.52368
              P 14 -- In 14                  0.66         0.00          2.52368
              P 14 -- In 16                  0.66         0.00          2.52368
              P 19 -- In 25                  0.66         0.00          2.54079
              P 7  -- In 14                  0.66         0.00          2.54079
              P 26 -- In 28                  0.66         0.00          2.54079
              P 9  -- In 16                  0.66         0.00          2.54079
              P 22 -- In 22                  0.66         0.00          2.54079
              P 17 -- In 21                  0.66         0.00          2.54079
              P 27 -- In 27                  0.65        -0.00          2.54204
              P 13 -- In 15                  0.65        -0.00          2.54204
              P 15 -- In 15                  0.65        -0.00          2.54204
              P 6  -- In 23                  0.65         0.00          2.54204
              P 10 -- In 27                  0.65         0.00          2.54204
              P 21 -- In 23                  0.65         0.00          2.54204
              P 11 -- In 11                  0.61         0.00          2.54216
              P 5  -- In 7                   0.61         0.00          2.54216
              P 2  -- In 19                  0.61         0.00          2.54216
              P 15 -- In 16                  0.65        -0.00          2.54221
              P 13 -- In 14                  0.65         0.00          2.54221
              P 27 -- In 28                  0.65        -0.00          2.54221
              P 21 -- In 22                  0.65        -0.00          2.54221
              P 6  -- In 21                  0.65        -0.00          2.54221
              P 10 -- In 25                  0.65         0.00          2.54221
              P 30 -- In 15                  0.67        -0.00          2.54222
              P 25 -- In 27                  0.67        -0.00          2.54222
              P 23 -- In 23                  0.67        -0.00          2.54222
              P 19 -- In 20                  0.66        -0.00          2.54329
              P 9  -- In 10                  0.66         0.00          2.54329
              P 7  -- In 8                   0.66        -0.00          2.54329
              P 26 -- In 9                   0.66         0.00          2.54329
              P 17 -- In 18                  0.66        -0.00          2.54329
              P 22 -- In 5                   0.66        -0.00          2.54329
              P 28 -- In 11                  0.65        -0.00          2.54561
              P 24 -- In 7                   0.65        -0.00          2.54561
              P 4  -- In 19                  0.65        -0.00          2.54561
              P 2  -- In 17                  0.64        -0.00          2.54569
              P 5  -- In 6                   0.64        -0.00          2.54569
              P 11 -- In 12                  0.64        -0.00          2.54569
              P 17 -- In 24                  0.64         0.00          2.54637
              P 19 -- In 26                  0.64         0.00          2.54637
              P 7  -- In 13                  0.64         0.00          2.54637
              P 22 -- In 24                  0.64         0.00          2.54637
              P 9  -- In 13                  0.64         0.00          2.54637
              P 26 -- In 26                  0.64         0.00          2.54637
              P 22 -- In 7                   0.64        -0.00          2.54677
              P 7  -- In 7                   0.64        -0.00          2.54677
              P 26 -- In 11                  0.64         0.00          2.54677
              P 19 -- In 19                  0.64        -0.00          2.54677
              P 17 -- In 19                  0.64         0.00          2.54677
              P 9  -- In 11                  0.64        -0.00          2.54677
              P 20 -- In 24                  0.66         0.00          2.54754
              P 20 -- In 26                  0.66         0.00          2.54754
              P 20 -- In 13                  0.66         0.00          2.54754
              P 32 -- In 22                  0.59         0.00          2.54805
              P 8  -- In 14                  0.59         0.00          2.54805
              P 12 -- In 16                  0.59         0.00          2.54805
              P 12 -- In 21                  0.59         0.00          2.54805
              P 8  -- In 25                  0.59         0.00          2.54805
              P 32 -- In 28                  0.59         0.00          2.54805
              P 12 -- In 27                  0.64        -0.00          2.54841
              P 8  -- In 23                  0.64        -0.00          2.54841
              P 32 -- In 15                  0.64        -0.00          2.54841
              P 23 -- In 30                  0.66         0.00          2.54866
              P 25 -- In 32                  0.66         0.00          2.54866
              P 23 -- In 29                  0.66         0.00          2.54866
              P 30 -- In 32                  0.66        -0.00          2.54866
              P 30 -- In 30                  0.66         0.00          2.54866
              P 25 -- In 29                  0.66         0.00          2.54866
              P 27 -- In 18                  0.65         0.00          2.54921
              P 10 -- In 10                  0.65         0.00          2.54921
              P 21 -- In 20                  0.65         0.00          2.54921
              P 15 -- In 5                   0.65         0.00          2.54921
              P 6  -- In 8                   0.65         0.00          2.54921
              P 13 -- In 9                   0.65        -0.00          2.54921
              P 4  -- In 29                  0.65         0.00          2.54966
              P 24 -- In 30                  0.65         0.00          2.54966
              P 28 -- In 32                  0.65         0.00          2.54966
              P 13 -- In 12                  0.64         0.00          2.55041
              P 10 -- In 12                  0.64         0.00          2.55041
              P 15 -- In 6                   0.64         0.00          2.55041
              P 21 -- In 17                  0.64         0.00          2.55041
              P 6  -- In 6                   0.64         0.00          2.55041
              P 27 -- In 17                  0.64         0.00          2.55041
              P 14 -- In 31                  0.64        -0.00          2.55046
              P 29 -- In 31                  0.64        -0.00          2.55047
              P 31 -- In 31                  0.64        -0.00          2.55047
              P 25 -- In 26                  0.66        -0.00          2.55049
              P 23 -- In 24                  0.66        -0.00          2.55049
              P 30 -- In 13                  0.66        -0.00          2.55049
              P 3  -- In 9                   0.66         0.00          2.55063
              P 1  -- In 5                   0.66        -0.00          2.55063
              P 3  -- In 10                  0.66         0.00          2.55063
              P 18 -- In 18                  0.66        -0.00          2.55063
              P 1  -- In 8                   0.66         0.00          2.55063
              P 18 -- In 20                  0.66         0.00          2.55063
              P 29 -- In 30                  0.66        -0.00          2.55166
              P 31 -- In 32                  0.66        -0.00          2.55166
              P 14 -- In 29                  0.66        -0.00          2.55166
              P 28 -- In 5                   0.64        -0.00          2.55610
              P 24 -- In 9                   0.64        -0.00          2.55610
              P 4  -- In 8                   0.64        -0.00          2.55610
              P 24 -- In 20                  0.64        -0.00          2.55610
              P 4  -- In 10                  0.64         0.00          2.55610
              P 28 -- In 18                  0.64        -0.00          2.55610
              P 16 -- In 17                  0.64         0.00          2.55727
              P 16 -- In 6                   0.64         0.00          2.55727
              P 16 -- In 12                  0.64         0.00          2.55727
              P 16 -- In 31                  0.66        -0.00          2.55858
              P 18 -- In 1                   0.61        -0.00          2.58369
              P 1  -- In 2                   0.61         0.00          2.58369
              P 3  -- In 4                   0.61         0.00          2.58369
              P 20 -- In 3                   0.62        -0.00          2.58395
              P 3  -- In 3                   0.58         0.00          2.59185
              P 18 -- In 3                   0.58         0.00          2.59185
              P 1  -- In 3                   0.58         0.00          2.59185
              P 11 -- In 33                  0.25        -0.00          2.72617
              P 5  -- In 33                  0.25        -0.00          2.72617
              P 2  -- In 33                  0.25         0.00          2.72617
              P 2  -- In 4                   0.35         0.00          2.79005
              P 11 -- In 1                   0.35         0.00          2.79005
              P 11 -- In 2                   0.35         0.00          2.79005
              P 5  -- In 1                   0.35        -0.00          2.79005
              P 2  -- In 2                   0.35         0.00          2.79005
              P 5  -- In 4                   0.35         0.00          2.79005
             In 2  -- In 33                 -0.43         0.00          2.79246
             In 1  -- In 33                 -0.43         0.00          2.79246
             In 4  -- In 33                 -0.43         0.00          2.79246
================================================================================

 Hirshfeld supercell size:           2           2           2
Standard grid dimensions: 240 240 240
Fine grid dimensions:     240 240 240


     Hirshfeld Analysis
     ------------------
Species   Ion     Hirshfeld Charge (e)  Spin (hbar/2)
===================================================
  P        1                -0.23        0.00
  P        2                -0.23       -0.00
  P        3                -0.23        0.00
  P        4                -0.24        0.00
  P        5                -0.23       -0.00
  P        6                -0.24        0.00
  P        7                -0.24       -0.00
  P        8                -0.23       -0.00
  P        9                -0.24       -0.00
  P       10                -0.24        0.00
  P       11                -0.23       -0.00
  P       12                -0.23       -0.00
  P       13                -0.24        0.00
  P       14                -0.24       -0.00
  P       15                -0.24        0.00
  P       16                -0.24        0.00
  P       17                -0.24       -0.00
  P       18                -0.23        0.00
  P       19                -0.24       -0.00
  P       20                -0.24       -0.00
  P       21                -0.24        0.00
  P       22                -0.24       -0.00
  P       23                -0.24       -0.00
  P       24                -0.24        0.00
  P       25                -0.24       -0.00
  P       26                -0.24       -0.00
  P       27                -0.24        0.00
  P       28                -0.24        0.00
  P       29                -0.24       -0.00
  P       30                -0.24       -0.00
  P       31                -0.24       -0.00
  P       32                -0.23       -0.00
  In       1                 0.23       -0.00
  In       2                 0.23       -0.00
  In       3                 0.22        0.00
  In       4                 0.23       -0.00
  In       5                 0.23        0.00
  In       6                 0.23        0.00
  In       7                 0.23        0.00
  In       8                 0.23        0.00
  In       9                 0.23        0.00
  In      10                 0.23        0.00
  In      11                 0.23        0.00
  In      12                 0.23        0.00
  In      13                 0.23       -0.00
  In      14                 0.23       -0.00
  In      15                 0.24       -0.00
  In      16                 0.23       -0.00
  In      17                 0.23        0.00
  In      18                 0.23        0.00
  In      19                 0.23        0.00
  In      20                 0.23        0.00
  In      21                 0.23       -0.00
  In      22                 0.23       -0.00
  In      23                 0.24       -0.00
  In      24                 0.23       -0.00
  In      25                 0.23       -0.00
  In      26                 0.23       -0.00
  In      27                 0.24       -0.00
  In      28                 0.23       -0.00
  In      29                 0.24       -0.00
  In      30                 0.24       -0.00
  In      31                 0.24       -0.00
  In      32                 0.24       -0.00
  In      33                 0.08       -0.00
===================================================

 
 A BibTeX formatted list of references used in this run has been written to 
 In_Interstitial_Migration_Tetra_Octa_Singlepoints_2.bib
 
Initialisation time =     30.17 s
Calculation time    =   8372.17 s
Finalisation time   =    158.92 s
Total time          =   8561.25 s
Peak Memory Use     = 9665280 kB
 
Overall parallel efficiency rating: Terrible (34%)
 
Data was distributed by:-
G-vector (3-way); efficiency rating: Poor (38%)
k-point (36-way); efficiency rating: Good (79%)
