 +-------------------------------------------------+
 |                                                 |
 |      CCC   AA    SSS  TTTTT  EEEEE  PPPP        |
 |     C     A  A  S       T    E      P   P       |
 |     C     AAAA   SS     T    EEE    PPPP        |
 |     C     A  A     S    T    E      P           |
 |      CCC  A  A  SSS     T    EEEEE  P           |
 |                                                 |
 +-------------------------------------------------+
 |                                                 |
 | Welcome to Academic Release CASTEP version 24.1 |
 | Ab Initio Total Energy Program                  |
 |                                                 |
 | Authors:                                        |
 | M. Segall, M. Probert, C. Pickard, P. Hasnip,   |
 | S. Clark, K. Refson, J. R. Yates,               |
 | A. Bartok-Partay, M. Payne                      |
 |                                                 |
 | Contributors:                                   |
 | P. Lindan, P. Haynes, J. White, V. Milman,      |
 | N. Govind, M. Gibson, P. Tulip, V. Cocula,      |
 | B. Montanari, D. Quigley, M. Glover,            |
 | L. Bernasconi, A. Perlov, M. Plummer,           |
 | E. McNellis, J. Meyer, J. Gale, D. Jochym       |
 | J. Aarons, B. Walker, R. Gillen, D. Jones       |
 | T. Green, I. J. Bush, C. J. Armstrong,          |
 | E. J. Higgins, E. L. Brown, M. S. McFly,        |
 | J. Wilkins, B-C. Shih, P. J. P. Byrne,          |
 | R. J. Maurer, J. C. Womack, J. Dziedzic,        |
 | L. LeBlanc, T. K. Stenczel, J. Kermode,         |
 | S. Sturniolo, B. Shi, B. Durham, M. Evans,      |
 | M. J. Smith, A. Tamerus, Z. Hawkhead,           |
 | V. Ravindran, T. Hollins, S. A. Joyce,          |
 | R. T. Strong, A. M. Reilly, S. J. Donaldson     |
 |                                                 |
 | Copyright (c) 2000 - 2023                       |
 |                                                 |
 |     Distributed under license from Cambridge    |
 |     Enterprise for academic use only.           |
 |                                                 |
 | Please cite                                     |
 |                                                 |
 |     "First principles methods using CASTEP"     |
 |                                                 |
 |         Zeitschrift fuer Kristallographie       |
 |           220(5-6) pp. 567-570 (2005)           |
 |                                                 |
 | S. J. Clark, M. D. Segall, C. J. Pickard,       |
 | P. J. Hasnip, M. J. Probert, K. Refson,         |
 | M. C. Payne                                     |
 |                                                 |
 |       in all publications arising from          |
 |              your use of CASTEP                 |
 |                                                 |
 +-------------------------------------------------+
 |                                                 |
 |              http://www.castep.org              |
 |                                                 |
 +-------------------------------------------------+



 Compiled for  GNU 11.2.0 on 04-04-2024 18:39:17
 from code version 6355fd106 Castep241_branch Thu Mar 7 17:56:19 2024 +0000
 Compiler: GNU Fortran 11.2.0; Optimisation: FAST
 Comms   : MPI VERSION : CRAY MPICH version 8.1.23.14 (ANL base 3.4a2)
 MATHLIBS: default (LAPACK version 3.10.1)
 FFT Lib : fftw3 version commercial-fftw-3.3.10-sse2-avx-avx2-avx2_128
 Fundamental constants values: CODATA 2018

 Run started: Wed, 30 Jul 2025 01:25:56 +0100

 Atomic calculation performed for P: 1s2 2s2 2p6 3s2 3p3

 Converged in 47 iterations to an ae energy of -9309.074 eV

   ============================================================                
   | Pseudopotential Report - Date of generation 30-07-2025   |                
   ------------------------------------------------------------                
   | Element: P Ionic charge:  5.00 Level of theory: RSCAN    |                
   | Atomic Solver: Koelling-Harmon                           |                
   |                                                          |                
   |               Reference Electronic Structure             |                
   |         Orbital         Occupation         Energy        |                
   |            3s              2.000           -0.535        |                
   |            3p              3.000           -0.209        |                
   |                                                          |                
   |                 Pseudopotential Definition               |                
   |        Beta     l      e      Rc     scheme   norm       |                
   |          1      0   -0.535   1.807     qc      0         |                
   |          2      0    0.250   1.807     qc      0         |                
   |          3      1   -0.209   1.807     qc      0         |                
   |          4      1    0.250   1.807     qc      0         |                
   |          5      2    0.000   1.807     qc      0         |                
   |          6      2    0.250   1.807     qc      0         |                
   |         loc     3    0.000   1.807     pn      0         |                
   |                                                          |                
   | Augmentation charge Rinner = 1.263                       |                
   | Partial core correction Rc = 1.263                       |                
   ------------------------------------------------------------                
   | "3|1.8|4|4|5|30:31:32"                                   |                
   ------------------------------------------------------------                
   |      Author: Chris J. Pickard, Cambridge University      |                
   ============================================================                
 Warning: otfg_output_psp cannot write out meta-GGA pseudopotentials presently.

 Atomic calculation performed for In:
 1s2 2s2 2p6 3s2 3p6 3d10 4s2 4p6 4d10 5s2 5p1

 Converged in 84 iterations to an ae energy of -160093.328 eV

   ============================================================                
   | Pseudopotential Report - Date of generation 30-07-2025   |                
   ------------------------------------------------------------                
   | Element: In Ionic charge: 13.00 Level of theory: RSCAN   |                
   | Atomic Solver: Koelling-Harmon                           |                
   |                                                          |                
   |               Reference Electronic Structure             |                
   |         Orbital         Occupation         Energy        |                
   |            4d             10.000           -0.711        |                
   |            5s              2.000           -0.313        |                
   |            5p              1.000           -0.095        |                
   |                                                          |                
   |                 Pseudopotential Definition               |                
   |        Beta     l      e      Rc     scheme   norm       |                
   |          1      0   -0.313   2.501     qc      0         |                
   |          2      0    0.250   2.501     qc      0         |                
   |          3      1   -0.095   2.501     qc      0         |                
   |          4      1    0.250   2.501     qc      0         |                
   |          5      2   -0.711   2.207     qc      0         |                
   |          6      2    0.250   2.207     qc      0         |                
   |         loc     3    0.000   2.501     pn      0         |                
   |                                                          |                
   | Augmentation charge Rinner = 1.504                       |                
   | Partial core correction Rc = 1.504                       |                
   ------------------------------------------------------------                
   | "3|2.5|2.5|1.5|7|8|9|50:51:42U2.2U2.2"                   |                
   ------------------------------------------------------------                
   |      Author: Chris J. Pickard, Cambridge University      |                
   ============================================================                
 Warning: otfg_output_psp cannot write out meta-GGA pseudopotentials presently.

 Pseudo atomic calculation performed for P 3s2 3p3

 Converged in 23 iterations to a total energy of -208.0292 eV

 Pseudo atomic calculation performed for In 4d10 5s2 5p1

 Converged in 42 iterations to a total energy of -1747.4501 eV
 Calculation parallelised over 108 processes.
 Data is distributed by G-vector(3-way) and k-point(36-way)
 Each process may use up to 16 threads.

 ************************************ Title ************************************
 

 ***************************** General Parameters ******************************
  
 output verbosity                               : normal  (1)
 write checkpoint data to                       : P_Interstitial_Migration_Dumbbell#_Dumbbell+_Singlepoints_3.check
 type of calculation                            : single point energy
 stress calculation                             : off
 density difference calculation                 : off
 electron localisation func (ELF) calculation   : off
 Hirshfeld analysis                             : on
 polarisation (Berry phase) analysis            : off
 molecular orbital projected DOS                : off
 deltaSCF calculation                           : off
 unlimited duration calculation
 timing information                             : on
 memory usage estimate                          : on
 write extra output files                       : on
 write final potential to formatted file        : off
 write final density to formatted file          : off
 write BibTeX reference list                    : on
 write OTFG pseudopotential files               : on
 write electrostatic potential file             : on
 write bands file                               : on
 checkpoint writing                             : off
  
 output         length unit                     : A
 output           mass unit                     : amu
 output           time unit                     : ps
 output         charge unit                     : e
 output           spin unit                     : hbar/2
 output         energy unit                     : eV
 output          force unit                     : eV/A
 output       velocity unit                     : A/ps
 output       pressure unit                     : GPa
 output     inv_length unit                     : 1/A
 output      frequency unit                     : cm-1
 output force constant unit                     : eV/A**2
 output         volume unit                     : A**3
 output   IR intensity unit                     : (D/A)**2/amu
 output         dipole unit                     : D
 output         efield unit                     : eV/A/e
 output        entropy unit                     : J/mol/K
 output    efield chi2 unit                     : pm/V
  
 wavefunctions paging                           : none
 random number generator seed                   :   12556619
 data distribution                              : optimal for this architecture
 optimization strategy                          : balance speed and memory

 *********************** Exchange-Correlation Parameters ***********************
  
 using functional                               : RSCAN
 relativistic treatment                         : Koelling-Harmon
 DFT+D: Semi-empirical dispersion correction    : off

 ************************* Pseudopotential Parameters **************************
  
 pseudopotential representation                 : reciprocal space
 <beta|phi> representation                      : reciprocal space
 spin-orbit coupling                            : off

 **************************** Basis Set Parameters *****************************
  
 plane wave basis set cut-off                   :   900.0000   eV
 size of standard grid                          :     2.0000
 size of   fine   gmax                          :    30.7390   1/A
 finite basis set correction                    : none

 **************************** Electronic Parameters ****************************
  
 number of  electrons                           :  581.0    
 net charge of system                           :  0.000    
 net spin   of system                           :  1.000    
 number of  up  spins                           :  291.0    
 number of down spins                           :  290.0    
 treating system as spin-polarized
 number of bands                                :        349

 ********************* Electronic Minimization Parameters **********************
  
 Method: Treating system as metallic with density mixing treatment of electrons,
         and number of  SD  steps               :          1
         and number of  CG  steps               :          4
  
 total energy / atom convergence tol.           : 0.1000E-07   eV
 eigen-energy convergence tolerance             : 0.2234E-08   eV
 max force / atom convergence tol.              : ignored
 convergence tolerance window                   :          3   cycles
 max. number of SCF cycles                      :        100
 number of fixed-spin iterations                :         10
 smearing scheme                                : Gaussian
 smearing width                                 : 0.2000       eV
 Fermi energy convergence tolerance             : 0.2721E-13   eV
 periodic dipole correction                     : NONE

 ************************** Density Mixing Parameters **************************
  
 density-mixing scheme                          : Pulay
 max. length of mixing history                  :         20
 charge density mixing amplitude                : 0.5000    
   spin density mixing amplitude                :  2.000    
 cut-off energy for mixing                      :  900.0       eV

 *********************** Population Analysis Parameters ************************
  
 Population analysis with cutoff                :  3.000       A
 Population analysis output                     : summary and pdos components

 *******************************************************************************
  

                           -------------------------------
                                      Unit Cell
                           -------------------------------
        Real Lattice(A)                      Reciprocal Lattice(1/A)
    11.8016820    -0.0000080    -0.0000080        0.532397442   0.000000361   0.000000361
    -0.0000080    11.8016820    -0.0000080        0.000000361   0.532397442   0.000000361
    -0.0000080    -0.0000080    11.8016820        0.000000361   0.000000361   0.532397442

                       Lattice parameters(A)       Cell Angles
                    a =     11.801682          alpha =   90.000078
                    b =     11.801682          beta  =   90.000078
                    c =     11.801682          gamma =   90.000078

                       Current cell volume =          1643.734705       A**3
                                   density =             2.857097   AMU/A**3
                                           =             4.744322     g/cm^3

                           -------------------------------
                                     Cell Contents
                           -------------------------------
                         Total number of ions in cell =   65
                      Total number of species in cell =    2
                        Max number of any one species =   33

            xxxxxxxxxxxxxxxxxxxxxxxxxxxxxxxxxxxxxxxxxxxxxxxxxxxxxxxxxxxx
            x  Element    Atom        Fractional coordinates of atoms  x
            x            Number           u          v          w      x
            x----------------------------------------------------------x
            x  P            1         0.123187   0.119070   0.370406   x 
            x  P            2         0.359453   0.100800   0.100702   x 
            x  P            3         0.123187   0.370504   0.118971   x 
            x  P            4         0.345584   0.390996   0.390897   x 
            x  P            5         0.119774   0.118191   0.866328   x 
            x  P            6         0.373133   0.120794   0.620074   x 
            x  P            7         0.117953   0.372774   0.625520   x 
            x  P            8         0.372936   0.369215   0.869758   x 
            x  P            9         0.117953   0.625618   0.372675   x 
            x  P           10         0.373133   0.620173   0.120695   x 
            x  P           11         0.119774   0.866427   0.118093   x 
            x  P           12         0.372936   0.869856   0.369116   x 
            x  P           13         0.122613   0.620420   0.869927   x 
            x  P           14         0.374420   0.618435   0.618336   x 
            x  P           15         0.122613   0.870026   0.620321   x 
            x  P           16         0.374076   0.869516   0.869417   x 
            x  P           17         0.639807   0.111889   0.376517   x 
            x  P           18         0.875720   0.119779   0.119680   x 
            x  P           19         0.639807   0.376615   0.111790   x 
            x  P           20         0.875698   0.370461   0.370362   x 
            x  P           21         0.624953   0.120263   0.868754   x 
            x  P           22         0.874211   0.117510   0.621867   x 
            x  P           23         0.625058   0.369130   0.620915   x 
            x  P           24         0.873789   0.372183   0.867506   x 
            x  P           25         0.625058   0.621014   0.369031   x 
            x  P           26         0.874211   0.621965   0.117411   x 
            x  P           27         0.624953   0.868853   0.120165   x 
            x  P           28         0.873789   0.867605   0.372084   x 
            x  P           29         0.619458   0.619025   0.870741   x 
            x  P           30         0.871373   0.621172   0.621073   x 
            x  P           31         0.619458   0.870839   0.618927   x 
            x  P           32         0.871698   0.869231   0.869132   x 
            x  P           33         0.344160   0.256445   0.256347   x 
            x  In           1        -0.002236  -0.006394  -0.006492   x 
            x  In           2         0.243801  -0.010339   0.244058   x 
            x  In           3         0.000673   0.245317   0.245218   x 
            x  In           4         0.243801   0.244156  -0.010438   x 
            x  In           5        -0.001969  -0.004984   0.493988   x 
            x  In           6         0.248589  -0.006355   0.744847   x 
            x  In           7        -0.004490   0.244620   0.745523   x 
            x  In           8         0.238889   0.243878   0.504605   x 
            x  In           9        -0.001969   0.494087  -0.005083   x 
            x  In          10         0.238889   0.504704   0.243779   x 
            x  In          11        -0.004490   0.745621   0.244521   x 
            x  In          12         0.248589   0.744945  -0.006453   x 
            x  In          13        -0.003152   0.496940   0.496841   x 
            x  In          14         0.248598   0.497092   0.745635   x 
            x  In          15        -0.002106   0.745096   0.744998   x 
            x  In          16         0.248598   0.745733   0.496994   x 
            x  In          17         0.503608  -0.007978  -0.008076   x 
            x  In          18         0.755518  -0.010793   0.242047   x 
            x  In          19         0.544000   0.237731   0.237632   x 
            x  In          20         0.755518   0.242145  -0.010892   x 
            x  In          21         0.495737  -0.002663   0.492101   x 
            x  In          22         0.746687  -0.007085   0.743674   x 
            x  In          23         0.498521   0.245015   0.745197   x 
            x  In          24         0.755196   0.247193   0.499847   x 
            x  In          25         0.495737   0.492199  -0.002761   x 
            x  In          26         0.755196   0.499945   0.247094   x 
            x  In          27         0.498521   0.745295   0.244916   x 
            x  In          28         0.746687   0.743772  -0.007184   x 
            x  In          29         0.503353   0.494418   0.494320   x 
            x  In          30         0.746563   0.497065   0.745918   x 
            x  In          31         0.495453   0.744236   0.744138   x 
            x  In          32         0.746563   0.746016   0.496967   x 
            xxxxxxxxxxxxxxxxxxxxxxxxxxxxxxxxxxxxxxxxxxxxxxxxxxxxxxxxxxxx


                         No user defined ionic velocities

                           -------------------------------
                                   Details of Species
                           -------------------------------

                               Mass of species in AMU
                                    P   30.9737600
                                    In  114.8180000

                          Electric Quadrupole Moment (Barn)
                                    P    1.0000000 No Isotope Defined
                                    In    0.7700000 Isotope115

                          Files used for pseudopotentials:
                                    P 3|1.8|4|4|5|30:31:32
                                    In 3|2.5|2.5|1.5|7|8|9|50:51:42U2.2U2.2

                           -------------------------------
                              k-Points For BZ Sampling
                           -------------------------------
                       MP grid size for SCF calculation is  4  4  4
                            with an offset of   0.125  0.125  0.125
                       Number of kpoints used =            36

                           -------------------------------
                               Symmetry and Constraints
                           -------------------------------

                      Maximum deviation from symmetry =  0.00000         ANG

                      Number of symmetry operations   =           1
                      Number of ionic constraints     =           3
                      Point group of crystal =     1: C1, 1, 1
                      Space group of crystal =     8: Cm, C -2y

             Set iprint > 1 for details on symmetry rotations/translations

                         Centre of mass is constrained
             Set iprint > 1 for details of linear ionic constraints

                         Number of cell constraints= 0
                         Cell constraints are:  1 2 3 4 5 6

                         External pressure/stress (GPa)
                          0.00000   0.00000   0.00000
                                    0.00000   0.00000
                                              0.00000
 
+---------------- MEMORY AND SCRATCH DISK ESTIMATES PER PROCESS --------------+
|                                                     Memory          Disk    |
| Baseline code, static data and system overhead      368.0 MB         0.0 MB |
| BLAS internal memory storage                          0.0 MB         0.0 MB |
| Model and support data                             4327.0 MB         0.0 MB |
| Electronic energy minimisation requirements        1337.1 MB         0.0 MB |
| Force calculation requirements                      127.4 MB         0.0 MB |
|                                               ----------------------------- |
| Approx. total storage required per process         6032.2 MB         0.0 MB |
|                                                                             |
| Requirements will fluctuate during execution and may exceed these estimates |
+-----------------------------------------------------------------------------+
Calculating approximate eigenstates for fixed initial Hamiltonian
Cut-off for approx. calculation is   89.988 eV
Improving approx. states at cut-off of  450.000 eV
Resetting cut-off to  900.000 eV
Calculating total energy with cut-off of  900.000 eV.
------------------------------------------------------------------------ <-- SCF
SCF loop      Energy           Fermi           Energy gain       Timer   <-- SCF
                               energy          per atom          (sec)   <-- SCF
------------------------------------------------------------------------ <-- SCF
Initial  -6.32537306E+004  0.00000000E+000                       445.30  <-- SCF
      1  -6.30174482E+004  2.83431226E+000  -3.63511378E+000     907.31  <-- SCF
      2  -6.30177278E+004  2.83404317E+000   4.30129473E-003    1224.51  <-- SCF
      3  -6.30835546E+004  3.23509939E+000   1.01272021E+000    1567.05  <-- SCF
      4  -6.30950806E+004  3.33935230E+000   1.77322790E-001    2070.19  <-- SCF
      5  -6.31009029E+004  3.52693530E+000   8.95740886E-002    2434.55  <-- SCF
      6  -6.30896499E+004  3.72944467E+000  -1.73122411E-001    2782.20  <-- SCF
      7  -6.30883265E+004  3.79916857E+000  -2.03605857E-002    3152.29  <-- SCF
      8  -6.30884355E+004  3.86069801E+000   1.67728486E-003    3520.85  <-- SCF
      9  -6.30892773E+004  3.89952765E+000   1.29499205E-002    3877.36  <-- SCF
     10  -6.30895658E+004  3.85206360E+000   4.43881810E-003    4236.08  <-- SCF
     11  -6.30895652E+004  3.83388800E+000  -9.37489629E-006    4603.17  <-- SCF
     12  -6.30895659E+004  3.82498286E+000   1.08837226E-005    4961.48  <-- SCF
     13  -6.30895667E+004  3.82453598E+000   1.20630926E-005    5332.01  <-- SCF
     14  -6.30895668E+004  3.82387322E+000   2.44211208E-006    5692.92  <-- SCF
     15  -6.30895669E+004  3.82302672E+000   6.95518989E-007    6076.58  <-- SCF
     16  -6.30895669E+004  3.82297874E+000   2.79962386E-007    6401.52  <-- SCF
     17  -6.30895669E+004  3.82290006E+000   4.67305188E-008    6696.54  <-- SCF
     18  -6.30895669E+004  3.82304225E+000   1.92193910E-008    6954.19  <-- SCF
     19  -6.30895669E+004  3.82315005E+000   6.87287981E-009    7207.34  <-- SCF
     20  -6.30895669E+004  3.82320459E+000   5.79041362E-009    7460.39  <-- SCF
     21  -6.30895669E+004  3.82320840E+000   7.95382302E-010    7735.44  <-- SCF
------------------------------------------------------------------------ <-- SCF
 
Integrated Spin Density     =    0.977088     hbar/2
Integrated |Spin Density|   =     1.12993     hbar/2
 
Final energy, E             =  -63089.51759676     eV
Final free energy (E-TS)    =  -63089.56691221     eV
(energies not corrected for finite basis set)
 
NB est. 0K energy (E-0.5TS)      =  -63089.54225448     eV
 

 ************************** Forces **************************
 *                                                          *
 *               Cartesian components (eV/A)                *
 * -------------------------------------------------------- *
 *                         x            y            z      *
 *                                                          *
 * P               1     -0.04933     -0.06641      0.05415 *
 * P               2      0.40639      0.05702      0.05673 *
 * P               3     -0.04933      0.05378     -0.06640 *
 * P               4      0.05469      0.05291      0.05269 *
 * P               5     -0.02164      0.04866     -0.03406 *
 * P               6     -0.01917      0.00892     -0.00446 *
 * P               7     -0.05387     -0.02720      0.07476 *
 * P               8     -0.04285      0.02531     -0.01805 *
 * P               9     -0.05378      0.07514     -0.02722 *
 * P              10     -0.01918     -0.00478      0.00934 *
 * P              11     -0.02169     -0.03363      0.04840 *
 * P              12     -0.04285     -0.01833      0.02542 *
 * P              13      0.00809     -0.01939      0.02739 *
 * P              14      0.02801      0.00317      0.00310 *
 * P              15      0.00809      0.02705     -0.01899 *
 * P              16      0.03703     -0.17227     -0.17209 *
 * P              17     -0.10728      0.05729     -0.08529 *
 * P              18      0.04602     -0.00875     -0.00850 *
 * P              19     -0.10726     -0.08505      0.05757 *
 * P              20      0.01667      0.01569      0.01605 *
 * P              21      0.01618     -0.02029     -0.03204 *
 * P              22     -0.00557      0.01326     -0.03001 *
 * P              23     -0.03624      0.00607     -0.06082 *
 * P              24     -0.00501     -0.02435      0.00052 *
 * P              25     -0.03622     -0.06112      0.00607 *
 * P              26     -0.00554     -0.03010      0.01285 *
 * P              27      0.01616     -0.03202     -0.02000 *
 * P              28     -0.00506      0.00094     -0.02429 *
 * P              29      0.01691      0.01180     -0.01361 *
 * P              30     -0.02118      0.00231      0.00274 *
 * P              31      0.01688     -0.01398      0.01178 *
 * P              32     -0.01607      0.00196      0.00204 *
 * P              33     -0.01234      0.42945      0.42925 *
 * In              1      0.05484     -0.01128     -0.01134 *
 * In              2      0.09948      0.07568     -0.16397 *
 * In              3     -0.02270     -0.01586     -0.01592 *
 * In              4      0.09948     -0.16391      0.07563 *
 * In              5      0.00589     -0.02616      0.03509 *
 * In              6      0.01219      0.01700      0.05933 *
 * In              7      0.02067     -0.00172      0.01447 *
 * In              8     -0.08914      0.02458      0.08437 *
 * In              9      0.00589      0.03516     -0.02622 *
 * In             10     -0.08914      0.08442      0.02449 *
 * In             11      0.02068      0.01452     -0.00178 *
 * In             12      0.01219      0.05939      0.01693 *
 * In             13      0.07614     -0.01546     -0.01552 *
 * In             14      0.02450     -0.06591     -0.04458 *
 * In             15      0.00741      0.01221      0.01214 *
 * In             16      0.02450     -0.04453     -0.06595 *
 * In             17     -0.21289     -0.07647     -0.07652 *
 * In             18      0.01748      0.01199      0.06925 *
 * In             19      0.00183     -0.24033     -0.24040 *
 * In             20      0.01749      0.06932      0.01193 *
 * In             21      0.04967     -0.03247      0.01849 *
 * In             22      0.00447      0.01319     -0.02215 *
 * In             23     -0.01027     -0.00792      0.00741 *
 * In             24      0.01143     -0.06851     -0.03135 *
 * In             25      0.04967      0.01855     -0.03253 *
 * In             26      0.01142     -0.03128     -0.06858 *
 * In             27     -0.01028      0.00747     -0.00798 *
 * In             28      0.00447     -0.02209      0.01312 *
 * In             29     -0.10833      0.07589      0.07583 *
 * In             30     -0.00142     -0.00455      0.03570 *
 * In             31     -0.02588      0.00027      0.00021 *
 * In             32     -0.00142      0.03575     -0.00461 *
 *                                                          *
 ************************************************************

 Pseudo atomic calculation performed for P 3s2 3p3

 Converged in 23 iterations to a total energy of -208.0292 eV

 Pseudo atomic calculation performed for In 4d10 5s2 5p1

 Converged in 42 iterations to a total energy of -1747.4501 eV
Charge spilling parameter for spin component 1 = 0.18%
Charge spilling parameter for spin component 2 = 0.18%

                   Orbital Populations                  
  ---------------------------------------------------------------
     Ion    Atom   Orbital              Up        Down      Spin
  ---------------------------------------------------------------
      P     1      S                    0.870     0.867     0.003
      P     1      Px                   0.656     0.647     0.009
      P     1      Py                   0.652     0.651     0.000
      P     1      Pz                   0.650     0.650     0.000
      P     2      S                    0.875     0.872     0.003
      P     2      Px                   0.663     0.655     0.008
      P     2      Py                   0.669     0.634     0.035
      P     2      Pz                   0.669     0.634     0.035
      P     3      S                    0.870     0.867     0.003
      P     3      Px                   0.656     0.647     0.009
      P     3      Py                   0.650     0.650    -0.000
      P     3      Pz                   0.652     0.651     0.000
      P     4      S                    0.865     0.862     0.003
      P     4      Px                   0.686     0.680     0.006
      P     4      Py                   0.642     0.601     0.041
      P     4      Pz                   0.642     0.601     0.041
      P     5      S                    0.867     0.866     0.001
      P     5      Px                   0.658     0.654     0.004
      P     5      Py                   0.657     0.654     0.003
      P     5      Pz                   0.659     0.655     0.004
      P     6      S                    0.867     0.867    -0.000
      P     6      Px                   0.655     0.654     0.000
      P     6      Py                   0.658     0.657     0.001
      P     6      Pz                   0.657     0.657    -0.000
      P     7      S                    0.867     0.865     0.002
      P     7      Px                   0.661     0.653     0.008
      P     7      Py                   0.656     0.651     0.005
      P     7      Pz                   0.663     0.654     0.009
      P     8      S                    0.867     0.867    -0.000
      P     8      Px                   0.656     0.656     0.000
      P     8      Py                   0.658     0.658     0.000
      P     8      Pz                   0.657     0.657    -0.000
      P     9      S                    0.867     0.865     0.002
      P     9      Px                   0.661     0.653     0.008
      P     9      Py                   0.663     0.654     0.008
      P     9      Pz                   0.656     0.651     0.005
      P    10      S                    0.867     0.867    -0.000
      P    10      Px                   0.655     0.654     0.000
      P    10      Py                   0.657     0.657    -0.000
      P    10      Pz                   0.658     0.657     0.001
      P    11      S                    0.867     0.866     0.001
      P    11      Px                   0.658     0.654     0.004
      P    11      Py                   0.659     0.655     0.004
      P    11      Pz                   0.657     0.654     0.003
      P    12      S                    0.867     0.867    -0.000
      P    12      Px                   0.656     0.656     0.000
      P    12      Py                   0.657     0.657    -0.000
      P    12      Pz                   0.658     0.658     0.000
      P    13      S                    0.867     0.867    -0.000
      P    13      Px                   0.656     0.656     0.000
      P    13      Py                   0.657     0.657     0.000
      P    13      Pz                   0.657     0.657     0.000
      P    14      S                    0.868     0.868    -0.000
      P    14      Px                   0.654     0.655    -0.000
      P    14      Py                   0.655     0.655     0.000
      P    14      Pz                   0.655     0.655     0.000
      P    15      S                    0.867     0.867    -0.000
      P    15      Px                   0.656     0.656     0.000
      P    15      Py                   0.657     0.657    -0.000
      P    15      Pz                   0.657     0.657     0.000
      P    16      S                    0.868     0.868    -0.000
      P    16      Px                   0.654     0.654     0.000
      P    16      Py                   0.656     0.654     0.002
      P    16      Pz                   0.656     0.654     0.002
      P    17      S                    0.869     0.867     0.002
      P    17      Px                   0.674     0.664     0.010
      P    17      Py                   0.657     0.654     0.003
      P    17      Pz                   0.647     0.644     0.003
      P    18      S                    0.866     0.867    -0.000
      P    18      Px                   0.659     0.659    -0.000
      P    18      Py                   0.656     0.656    -0.000
      P    18      Pz                   0.656     0.656    -0.000
      P    19      S                    0.869     0.867     0.002
      P    19      Px                   0.674     0.664     0.010
      P    19      Py                   0.647     0.644     0.003
      P    19      Pz                   0.657     0.654     0.003
      P    20      S                    0.866     0.866    -0.000
      P    20      Px                   0.659     0.659    -0.000
      P    20      Py                   0.657     0.657    -0.000
      P    20      Pz                   0.657     0.657    -0.000
      P    21      S                    0.866     0.866     0.000
      P    21      Px                   0.658     0.657     0.000
      P    21      Py                   0.656     0.656     0.000
      P    21      Pz                   0.658     0.657     0.000
      P    22      S                    0.865     0.865     0.000
      P    22      Px                   0.660     0.659     0.001
      P    22      Py                   0.655     0.654     0.001
      P    22      Pz                   0.659     0.658     0.001
      P    23      S                    0.867     0.867     0.000
      P    23      Px                   0.658     0.657     0.001
      P    23      Py                   0.658     0.657     0.001
      P    23      Pz                   0.656     0.655     0.001
      P    24      S                    0.865     0.864     0.000
      P    24      Px                   0.661     0.659     0.001
      P    24      Py                   0.655     0.654     0.001
      P    24      Pz                   0.661     0.659     0.002
      P    25      S                    0.867     0.867     0.000
      P    25      Px                   0.658     0.657     0.001
      P    25      Py                   0.656     0.655     0.001
      P    25      Pz                   0.658     0.657     0.001
      P    26      S                    0.865     0.865     0.000
      P    26      Px                   0.660     0.659     0.001
      P    26      Py                   0.659     0.658     0.001
      P    26      Pz                   0.655     0.654     0.001
      P    27      S                    0.866     0.866     0.000
      P    27      Px                   0.658     0.657     0.000
      P    27      Py                   0.658     0.657     0.000
      P    27      Pz                   0.656     0.656     0.000
      P    28      S                    0.865     0.864     0.000
      P    28      Px                   0.661     0.659     0.001
      P    28      Py                   0.661     0.659     0.002
      P    28      Pz                   0.655     0.654     0.001
      P    29      S                    0.867     0.867     0.000
      P    29      Px                   0.657     0.656     0.000
      P    29      Py                   0.657     0.657     0.000
      P    29      Pz                   0.656     0.656    -0.000
      P    30      S                    0.867     0.867    -0.000
      P    30      Px                   0.656     0.656    -0.000
      P    30      Py                   0.658     0.658    -0.000
      P    30      Pz                   0.658     0.658    -0.000
      P    31      S                    0.867     0.867     0.000
      P    31      Px                   0.657     0.656     0.000
      P    31      Py                   0.656     0.656    -0.000
      P    31      Pz                   0.657     0.657     0.000
      P    32      S                    0.867     0.867     0.000
      P    32      Px                   0.656     0.656    -0.000
      P    32      Py                   0.657     0.657     0.000
      P    32      Pz                   0.657     0.657     0.000
      P    33      S                    0.943     0.927     0.016
      P    33      Px                   0.674     0.658     0.016
      P    33      Py                   0.684     0.371     0.313
      P    33      Pz                   0.684     0.371     0.313
     In     1      Dzz                  1.000     1.000     0.000
     In     1      Dzy                  0.998     0.998    -0.000
     In     1      Dzx                  0.998     0.998    -0.000
     In     1      Dxx-yy               1.000     1.000     0.000
     In     1      Dxy                  0.998     0.998     0.000
     In     1      S                    0.705     0.706    -0.001
     In     1      Px                   0.238     0.239    -0.000
     In     1      Py                   0.242     0.242     0.000
     In     1      Pz                   0.242     0.242     0.000
     In     1      S                   -0.264    -0.262    -0.002
     In     2      Dzz                  1.000     1.000     0.000
     In     2      Dzy                  0.998     0.998     0.000
     In     2      Dzx                  0.998     0.998     0.000
     In     2      Dxx-yy               1.000     1.000     0.000
     In     2      Dxy                  0.999     0.999     0.000
     In     2      S                    0.700     0.700     0.000
     In     2      Px                   0.236     0.238    -0.002
     In     2      Py                   0.226     0.231    -0.005
     In     2      Pz                   0.250     0.247     0.003
     In     2      S                   -0.257    -0.260     0.002
     In     3      Dzz                  1.000     1.000     0.000
     In     3      Dzy                  0.998     0.998    -0.000
     In     3      Dzx                  0.998     0.998     0.000
     In     3      Dxx-yy               1.000     1.000     0.000
     In     3      Dxy                  0.998     0.998     0.000
     In     3      S                    0.705     0.706    -0.001
     In     3      Px                   0.235     0.235    -0.000
     In     3      Py                   0.242     0.240     0.002
     In     3      Pz                   0.242     0.240     0.002
     In     3      S                   -0.251    -0.259     0.008
     In     4      Dzz                  1.000     1.000     0.000
     In     4      Dzy                  0.998     0.998     0.000
     In     4      Dzx                  0.999     0.999     0.000
     In     4      Dxx-yy               1.000     1.000     0.000
     In     4      Dxy                  0.998     0.998     0.000
     In     4      S                    0.700     0.700     0.000
     In     4      Px                   0.236     0.238    -0.002
     In     4      Py                   0.250     0.247     0.003
     In     4      Pz                   0.226     0.231    -0.005
     In     4      S                   -0.257    -0.260     0.002
     In     5      Dzz                  1.000     1.000    -0.000
     In     5      Dzy                  0.998     0.998     0.000
     In     5      Dzx                  0.998     0.998    -0.000
     In     5      Dxx-yy               1.000     1.000     0.000
     In     5      Dxy                  0.998     0.998    -0.000
     In     5      S                    0.716     0.715     0.001
     In     5      Px                   0.239     0.239    -0.000
     In     5      Py                   0.244     0.242     0.002
     In     5      Pz                   0.245     0.242     0.002
     In     5      S                   -0.268    -0.268    -0.000
     In     6      Dzz                  1.000     1.000     0.000
     In     6      Dzy                  0.999     0.999     0.000
     In     6      Dzx                  0.998     0.998     0.000
     In     6      Dxx-yy               1.000     1.000     0.000
     In     6      Dxy                  0.998     0.998    -0.000
     In     6      S                    0.706     0.707    -0.000
     In     6      Px                   0.242     0.242     0.000
     In     6      Py                   0.239     0.240    -0.000
     In     6      Pz                   0.238     0.238    -0.000
     In     6      S                   -0.266    -0.266    -0.001
     In     7      Dzz                  0.999     0.999     0.000
     In     7      Dzy                  0.998     0.998     0.000
     In     7      Dzx                  0.998     0.998     0.000
     In     7      Dxx-yy               0.999     0.999     0.000
     In     7      Dxy                  0.998     0.998     0.000
     In     7      S                    0.715     0.715     0.000
     In     7      Px                   0.240     0.240    -0.000
     In     7      Py                   0.255     0.253     0.003
     In     7      Pz                   0.240     0.240     0.000
     In     7      S                   -0.265    -0.263    -0.001
     In     8      Dzz                  1.000     1.000     0.000
     In     8      Dzy                  0.998     0.998     0.000
     In     8      Dzx                  0.999     0.999     0.000
     In     8      Dxx-yy               1.000     1.000     0.000
     In     8      Dxy                  0.998     0.998     0.000
     In     8      S                    0.699     0.697     0.002
     In     8      Px                   0.234     0.236    -0.001
     In     8      Py                   0.255     0.248     0.008
     In     8      Pz                   0.224     0.232    -0.009
     In     8      S                   -0.260    -0.260    -0.000
     In     9      Dzz                  1.000     1.000    -0.000
     In     9      Dzy                  0.998     0.998     0.000
     In     9      Dzx                  0.998     0.998    -0.000
     In     9      Dxx-yy               1.000     1.000     0.000
     In     9      Dxy                  0.998     0.998    -0.000
     In     9      S                    0.716     0.715     0.001
     In     9      Px                   0.239     0.239    -0.000
     In     9      Py                   0.245     0.242     0.002
     In     9      Pz                   0.244     0.242     0.002
     In     9      S                   -0.268    -0.268    -0.000
     In    10      Dzz                  1.000     0.999     0.000
     In    10      Dzy                  0.998     0.998     0.000
     In    10      Dzx                  0.998     0.998     0.000
     In    10      Dxx-yy               1.000     1.000     0.000
     In    10      Dxy                  0.999     0.999     0.000
     In    10      S                    0.699     0.697     0.002
     In    10      Px                   0.234     0.236    -0.001
     In    10      Py                   0.224     0.232    -0.009
     In    10      Pz                   0.255     0.248     0.008
     In    10      S                   -0.260    -0.260    -0.000
     In    11      Dzz                  0.999     0.999     0.000
     In    11      Dzy                  0.998     0.998     0.000
     In    11      Dzx                  0.998     0.998     0.000
     In    11      Dxx-yy               0.999     0.999     0.000
     In    11      Dxy                  0.998     0.998     0.000
     In    11      S                    0.715     0.715     0.000
     In    11      Px                   0.240     0.240    -0.000
     In    11      Py                   0.240     0.240     0.000
     In    11      Pz                   0.255     0.253     0.003
     In    11      S                   -0.265    -0.263    -0.001
     In    12      Dzz                  1.000     1.000     0.000
     In    12      Dzy                  0.999     0.999     0.000
     In    12      Dzx                  0.998     0.998    -0.000
     In    12      Dxx-yy               1.000     1.000     0.000
     In    12      Dxy                  0.998     0.998     0.000
     In    12      S                    0.706     0.707    -0.000
     In    12      Px                   0.242     0.242     0.000
     In    12      Py                   0.238     0.238    -0.000
     In    12      Pz                   0.239     0.240    -0.000
     In    12      S                   -0.266    -0.266    -0.001
     In    13      Dzz                  1.000     1.000     0.000
     In    13      Dzy                  0.998     0.998    -0.000
     In    13      Dzx                  0.998     0.998     0.000
     In    13      Dxx-yy               1.000     1.000     0.000
     In    13      Dxy                  0.998     0.998     0.000
     In    13      S                    0.706     0.707    -0.001
     In    13      Px                   0.237     0.237    -0.000
     In    13      Py                   0.242     0.241     0.000
     In    13      Pz                   0.242     0.241     0.000
     In    13      S                   -0.261    -0.260    -0.002
     In    14      Dzz                  1.000     1.000     0.000
     In    14      Dzy                  0.999     0.999     0.000
     In    14      Dzx                  0.998     0.998     0.000
     In    14      Dxx-yy               1.000     1.000     0.000
     In    14      Dxy                  0.998     0.998    -0.000
     In    14      S                    0.706     0.707    -0.001
     In    14      Px                   0.243     0.243    -0.000
     In    14      Py                   0.239     0.239    -0.000
     In    14      Pz                   0.238     0.238    -0.000
     In    14      S                   -0.264    -0.263    -0.001
     In    15      Dzz                  1.000     1.000     0.000
     In    15      Dzy                  0.998     0.998    -0.000
     In    15      Dzx                  0.998     0.998     0.000
     In    15      Dxx-yy               1.000     1.000     0.000
     In    15      Dxy                  0.998     0.998     0.000
     In    15      S                    0.708     0.708     0.000
     In    15      Px                   0.242     0.242    -0.000
     In    15      Py                   0.240     0.240    -0.000
     In    15      Pz                   0.240     0.240    -0.000
     In    15      S                   -0.264    -0.266     0.001
     In    16      Dzz                  1.000     1.000     0.000
     In    16      Dzy                  0.999     0.999     0.000
     In    16      Dzx                  0.998     0.998    -0.000
     In    16      Dxx-yy               1.000     1.000     0.000
     In    16      Dxy                  0.998     0.998    -0.000
     In    16      S                    0.706     0.707    -0.001
     In    16      Px                   0.243     0.243    -0.000
     In    16      Py                   0.238     0.238    -0.000
     In    16      Pz                   0.239     0.239    -0.000
     In    16      S                   -0.264    -0.263    -0.001
     In    17      Dzz                  0.999     0.999     0.000
     In    17      Dzy                  0.998     0.998     0.000
     In    17      Dzx                  0.998     0.998     0.000
     In    17      Dxx-yy               0.999     0.999     0.000
     In    17      Dxy                  0.998     0.998     0.000
     In    17      S                    0.715     0.718    -0.003
     In    17      Px                   0.256     0.258    -0.002
     In    17      Py                   0.241     0.241    -0.000
     In    17      Pz                   0.241     0.241    -0.000
     In    17      S                   -0.273    -0.275     0.002
     In    18      Dzz                  1.000     1.000     0.000
     In    18      Dzy                  0.998     0.998     0.000
     In    18      Dzx                  0.998     0.998    -0.000
     In    18      Dxx-yy               1.000     1.000     0.000
     In    18      Dxy                  0.998     0.998    -0.000
     In    18      S                    0.708     0.707     0.000
     In    18      Px                   0.237     0.237    -0.000
     In    18      Py                   0.241     0.241     0.000
     In    18      Pz                   0.247     0.247     0.001
     In    18      S                   -0.267    -0.268     0.000
     In    19      Dzz                  0.999     0.999     0.000
     In    19      Dzy                  0.998     0.998    -0.000
     In    19      Dzx                  0.999     0.998     0.001
     In    19      Dxx-yy               0.998     0.998     0.000
     In    19      Dxy                  0.999     0.998     0.001
     In    19      S                    0.712     0.729    -0.016
     In    19      Px                   0.247     0.262    -0.015
     In    19      Py                   0.220     0.223    -0.003
     In    19      Pz                   0.220     0.223    -0.003
     In    19      S                   -0.243    -0.242    -0.001
     In    20      Dzz                  1.000     1.000     0.000
     In    20      Dzy                  0.998     0.998     0.000
     In    20      Dzx                  0.998     0.998    -0.000
     In    20      Dxx-yy               1.000     1.000     0.000
     In    20      Dxy                  0.998     0.998    -0.000
     In    20      S                    0.708     0.707     0.000
     In    20      Px                   0.237     0.237    -0.000
     In    20      Py                   0.247     0.247     0.001
     In    20      Pz                   0.241     0.241     0.000
     In    20      S                   -0.267    -0.268     0.000
     In    21      Dzz                  1.000     1.000     0.000
     In    21      Dzy                  0.999     0.999     0.000
     In    21      Dzx                  0.998     0.998     0.000
     In    21      Dxx-yy               1.000     1.000     0.000
     In    21      Dxy                  0.998     0.998     0.000
     In    21      S                    0.714     0.714    -0.000
     In    21      Px                   0.240     0.240    -0.000
     In    21      Py                   0.238     0.238     0.000
     In    21      Pz                   0.238     0.238     0.000
     In    21      S                   -0.267    -0.272     0.005
     In    22      Dzz                  1.000     1.000     0.000
     In    22      Dzy                  0.998     0.998     0.000
     In    22      Dzx                  0.998     0.998    -0.000
     In    22      Dxx-yy               1.000     1.000    -0.000
     In    22      Dxy                  0.998     0.998    -0.000
     In    22      S                    0.707     0.707     0.000
     In    22      Px                   0.241     0.241    -0.000
     In    22      Py                   0.242     0.242     0.000
     In    22      Pz                   0.240     0.241    -0.000
     In    22      S                   -0.266    -0.266     0.000
     In    23      Dzz                  1.000     1.000    -0.000
     In    23      Dzy                  0.999     0.999    -0.000
     In    23      Dzx                  0.998     0.998    -0.000
     In    23      Dxx-yy               1.000     1.000     0.000
     In    23      Dxy                  0.998     0.998    -0.000
     In    23      S                    0.709     0.710    -0.000
     In    23      Px                   0.240     0.240    -0.000
     In    23      Py                   0.239     0.239    -0.000
     In    23      Pz                   0.240     0.240    -0.000
     In    23      S                   -0.264    -0.264    -0.001
     In    24      Dzz                  1.000     1.000    -0.000
     In    24      Dzy                  0.998     0.998     0.000
     In    24      Dzx                  0.998     0.998     0.000
     In    24      Dxx-yy               1.000     1.000     0.000
     In    24      Dxy                  0.998     0.998     0.000
     In    24      S                    0.710     0.710     0.000
     In    24      Px                   0.238     0.238    -0.000
     In    24      Py                   0.246     0.245     0.001
     In    24      Pz                   0.242     0.241     0.000
     In    24      S                   -0.270    -0.270     0.000
     In    25      Dzz                  1.000     1.000     0.000
     In    25      Dzy                  0.999     0.999     0.000
     In    25      Dzx                  0.998     0.998     0.000
     In    25      Dxx-yy               1.000     1.000     0.000
     In    25      Dxy                  0.998     0.998     0.000
     In    25      S                    0.714     0.714    -0.000
     In    25      Px                   0.240     0.240    -0.000
     In    25      Py                   0.238     0.238     0.000
     In    25      Pz                   0.238     0.238     0.000
     In    25      S                   -0.267    -0.272     0.005
     In    26      Dzz                  1.000     1.000     0.000
     In    26      Dzy                  0.998     0.998     0.000
     In    26      Dzx                  0.998     0.998     0.000
     In    26      Dxx-yy               1.000     1.000     0.000
     In    26      Dxy                  0.998     0.998    -0.000
     In    26      S                    0.710     0.710     0.000
     In    26      Px                   0.238     0.238    -0.000
     In    26      Py                   0.242     0.241     0.000
     In    26      Pz                   0.246     0.245     0.001
     In    26      S                   -0.270    -0.270     0.000
     In    27      Dzz                  1.000     1.000    -0.000
     In    27      Dzy                  0.999     0.999     0.000
     In    27      Dzx                  0.998     0.998    -0.000
     In    27      Dxx-yy               1.000     1.000     0.000
     In    27      Dxy                  0.998     0.998    -0.000
     In    27      S                    0.709     0.710    -0.000
     In    27      Px                   0.240     0.240    -0.000
     In    27      Py                   0.240     0.240    -0.000
     In    27      Pz                   0.239     0.239    -0.000
     In    27      S                   -0.264    -0.264    -0.001
     In    28      Dzz                  1.000     1.000    -0.000
     In    28      Dzy                  0.998     0.998    -0.000
     In    28      Dzx                  0.998     0.998    -0.000
     In    28      Dxx-yy               1.000     1.000     0.000
     In    28      Dxy                  0.998     0.998     0.000
     In    28      S                    0.707     0.707     0.000
     In    28      Px                   0.241     0.241    -0.000
     In    28      Py                   0.240     0.241    -0.000
     In    28      Pz                   0.242     0.242     0.000
     In    28      S                   -0.266    -0.266     0.000
     In    29      Dzz                  1.000     1.000     0.000
     In    29      Dzy                  0.999     0.999     0.000
     In    29      Dzx                  0.998     0.998     0.000
     In    29      Dxx-yy               0.999     0.999     0.000
     In    29      Dxy                  0.998     0.998     0.000
     In    29      S                    0.719     0.723    -0.004
     In    29      Px                   0.244     0.247    -0.003
     In    29      Py                   0.243     0.242     0.001
     In    29      Pz                   0.243     0.242     0.001
     In    29      S                   -0.273    -0.276     0.003
     In    30      Dzz                  1.000     1.000     0.000
     In    30      Dzy                  0.998     0.998     0.000
     In    30      Dzx                  0.998     0.998    -0.000
     In    30      Dxx-yy               1.000     1.000     0.000
     In    30      Dxy                  0.998     0.998    -0.000
     In    30      S                    0.708     0.708     0.000
     In    30      Px                   0.241     0.241    -0.000
     In    30      Py                   0.241     0.241     0.001
     In    30      Pz                   0.240     0.240    -0.000
     In    30      S                   -0.266    -0.266    -0.000
     In    31      Dzz                  1.000     1.000     0.000
     In    31      Dzy                  0.998     0.998    -0.000
     In    31      Dzx                  0.998     0.998     0.000
     In    31      Dxx-yy               1.000     1.000     0.000
     In    31      Dxy                  0.998     0.998     0.000
     In    31      S                    0.710     0.711    -0.001
     In    31      Px                   0.246     0.246    -0.000
     In    31      Py                   0.242     0.242     0.000
     In    31      Pz                   0.242     0.242     0.000
     In    31      S                   -0.263    -0.262    -0.000
     In    32      Dzz                  1.000     1.000     0.000
     In    32      Dzy                  0.998     0.998     0.000
     In    32      Dzx                  0.998     0.998    -0.000
     In    32      Dxx-yy               1.000     1.000     0.000
     In    32      Dxy                  0.998     0.998    -0.000
     In    32      S                    0.708     0.708     0.000
     In    32      Px                   0.241     0.241    -0.000
     In    32      Py                   0.240     0.240    -0.000
     In    32      Pz                   0.241     0.241     0.001
     In    32      S                   -0.266    -0.266    -0.000
  ---------------------------------------------------------------
                           Total:     290.988   290.011     0.977
  ---------------------------------------------------------------

     Atomic Populations (Mulliken)
     -----------------------------
Species          Ion Spin      s       p       d       f      Total   Charge(e)   Spin(hbar/2)
==============================================================================================
  P               1   up:     0.870   1.958   0.000   0.000   2.828    -0.644        0.012
                  1   dn:     0.867   1.949   0.000   0.000   2.816
  P               2   up:     0.875   2.001   0.000   0.000   2.876    -0.672        0.081
                  2   dn:     0.872   1.924   0.000   0.000   2.796
  P               3   up:     0.870   1.958   0.000   0.000   2.828    -0.644        0.012
                  3   dn:     0.867   1.949   0.000   0.000   2.816
  P               4   up:     0.865   1.971   0.000   0.000   2.835    -0.579        0.091
                  4   dn:     0.862   1.882   0.000   0.000   2.744
  P               5   up:     0.867   1.974   0.000   0.000   2.842    -0.671        0.012
                  5   dn:     0.866   1.964   0.000   0.000   2.830
  P               6   up:     0.867   1.970   0.000   0.000   2.838    -0.674        0.001
                  6   dn:     0.867   1.969   0.000   0.000   2.836
  P               7   up:     0.867   1.980   0.000   0.000   2.847    -0.670        0.024
                  7   dn:     0.865   1.958   0.000   0.000   2.823
  P               8   up:     0.867   1.971   0.000   0.000   2.838    -0.675        0.000
                  8   dn:     0.867   1.970   0.000   0.000   2.837
  P               9   up:     0.867   1.980   0.000   0.000   2.847    -0.670        0.024
                  9   dn:     0.865   1.958   0.000   0.000   2.823
  P              10   up:     0.867   1.970   0.000   0.000   2.838    -0.674        0.001
                 10   dn:     0.867   1.969   0.000   0.000   2.836
  P              11   up:     0.867   1.974   0.000   0.000   2.842    -0.671        0.012
                 11   dn:     0.866   1.964   0.000   0.000   2.830
  P              12   up:     0.867   1.971   0.000   0.000   2.838    -0.675        0.000
                 12   dn:     0.867   1.970   0.000   0.000   2.837
  P              13   up:     0.867   1.970   0.000   0.000   2.837    -0.674        0.000
                 13   dn:     0.867   1.970   0.000   0.000   2.837
  P              14   up:     0.868   1.965   0.000   0.000   2.833    -0.665        0.000
                 14   dn:     0.868   1.965   0.000   0.000   2.832
  P              15   up:     0.867   1.970   0.000   0.000   2.837    -0.674        0.000
                 15   dn:     0.867   1.970   0.000   0.000   2.837
  P              16   up:     0.868   1.966   0.000   0.000   2.834    -0.664        0.003
                 16   dn:     0.868   1.962   0.000   0.000   2.830
  P              17   up:     0.869   1.978   0.000   0.000   2.847    -0.676        0.018
                 17   dn:     0.867   1.962   0.000   0.000   2.829
  P              18   up:     0.866   1.971   0.000   0.000   2.838    -0.676       -0.001
                 18   dn:     0.867   1.972   0.000   0.000   2.838
  P              19   up:     0.869   1.978   0.000   0.000   2.847    -0.676        0.018
                 19   dn:     0.867   1.962   0.000   0.000   2.829
  P              20   up:     0.866   1.972   0.000   0.000   2.838    -0.677       -0.001
                 20   dn:     0.866   1.973   0.000   0.000   2.839
  P              21   up:     0.866   1.972   0.000   0.000   2.839    -0.676        0.001
                 21   dn:     0.866   1.971   0.000   0.000   2.837
  P              22   up:     0.865   1.974   0.000   0.000   2.839    -0.676        0.003
                 22   dn:     0.865   1.972   0.000   0.000   2.837
  P              23   up:     0.867   1.972   0.000   0.000   2.839    -0.676        0.003
                 23   dn:     0.867   1.969   0.000   0.000   2.836
  P              24   up:     0.865   1.976   0.000   0.000   2.841    -0.678        0.004
                 24   dn:     0.864   1.972   0.000   0.000   2.837
  P              25   up:     0.867   1.972   0.000   0.000   2.839    -0.676        0.003
                 25   dn:     0.867   1.969   0.000   0.000   2.836
  P              26   up:     0.865   1.974   0.000   0.000   2.839    -0.676        0.003
                 26   dn:     0.865   1.972   0.000   0.000   2.837
  P              27   up:     0.866   1.972   0.000   0.000   2.839    -0.676        0.001
                 27   dn:     0.866   1.971   0.000   0.000   2.837
  P              28   up:     0.865   1.976   0.000   0.000   2.841    -0.678        0.004
                 28   dn:     0.864   1.972   0.000   0.000   2.837
  P              29   up:     0.867   1.969   0.000   0.000   2.837    -0.673        0.000
                 29   dn:     0.867   1.969   0.000   0.000   2.836
  P              30   up:     0.867   1.971   0.000   0.000   2.838    -0.676       -0.000
                 30   dn:     0.867   1.972   0.000   0.000   2.838
  P              31   up:     0.867   1.969   0.000   0.000   2.837    -0.673        0.000
                 31   dn:     0.867   1.969   0.000   0.000   2.836
  P              32   up:     0.867   1.971   0.000   0.000   2.838    -0.675        0.000
                 32   dn:     0.867   1.971   0.000   0.000   2.838
  P              33   up:     0.943   2.042   0.000   0.000   2.985    -0.311        0.658
                 33   dn:     0.927   1.400   0.000   0.000   2.327
  In              1   up:     0.442   0.722   4.995   0.000   6.158     0.682       -0.002
                  1   dn:     0.444   0.722   4.995   0.000   6.160
  In              2   up:     0.443   0.711   4.995   0.000   6.149     0.702       -0.001
                  2   dn:     0.440   0.715   4.994   0.000   6.150
  In              3   up:     0.454   0.719   4.995   0.000   6.167     0.676        0.011
                  3   dn:     0.447   0.714   4.995   0.000   6.156
  In              4   up:     0.443   0.711   4.995   0.000   6.149     0.702       -0.001
                  4   dn:     0.440   0.715   4.994   0.000   6.150
  In              5   up:     0.448   0.728   4.994   0.000   6.170     0.665        0.006
                  5   dn:     0.447   0.723   4.994   0.000   6.165
  In              6   up:     0.440   0.719   4.995   0.000   6.154     0.691       -0.001
                  6   dn:     0.441   0.720   4.995   0.000   6.155
  In              7   up:     0.451   0.736   4.994   0.000   6.180     0.642        0.002
                  7   dn:     0.452   0.733   4.994   0.000   6.178
  In              8   up:     0.439   0.713   4.995   0.000   6.146     0.708        0.000
                  8   dn:     0.437   0.716   4.994   0.000   6.146
  In              9   up:     0.448   0.728   4.994   0.000   6.170     0.665        0.006
                  9   dn:     0.447   0.723   4.994   0.000   6.165
  In             10   up:     0.439   0.713   4.995   0.000   6.146     0.708        0.000
                 10   dn:     0.437   0.716   4.994   0.000   6.146
  In             11   up:     0.451   0.736   4.994   0.000   6.180     0.642        0.002
                 11   dn:     0.452   0.733   4.994   0.000   6.178
  In             12   up:     0.440   0.719   4.995   0.000   6.154     0.691       -0.001
                 12   dn:     0.441   0.720   4.995   0.000   6.155
  In             13   up:     0.445   0.720   4.995   0.000   6.160     0.678       -0.003
                 13   dn:     0.448   0.720   4.995   0.000   6.163
  In             14   up:     0.442   0.720   4.995   0.000   6.157     0.684       -0.002
                 14   dn:     0.444   0.720   4.995   0.000   6.159
  In             15   up:     0.444   0.722   4.995   0.000   6.161     0.680        0.001
                 15   dn:     0.442   0.723   4.995   0.000   6.160
  In             16   up:     0.442   0.720   4.995   0.000   6.157     0.684       -0.002
                 16   dn:     0.444   0.720   4.995   0.000   6.159
  In             17   up:     0.442   0.737   4.994   0.000   6.173     0.651       -0.003
                 17   dn:     0.443   0.739   4.994   0.000   6.176
  In             18   up:     0.440   0.726   4.994   0.000   6.160     0.681        0.002
                 18   dn:     0.440   0.724   4.994   0.000   6.159
  In             19   up:     0.470   0.687   4.993   0.000   6.149     0.665       -0.036
                 19   dn:     0.487   0.708   4.992   0.000   6.186
  In             20   up:     0.440   0.726   4.994   0.000   6.160     0.681        0.002
                 20   dn:     0.440   0.724   4.994   0.000   6.159
  In             21   up:     0.447   0.717   4.995   0.000   6.159     0.688        0.005
                 21   dn:     0.442   0.716   4.995   0.000   6.154
  In             22   up:     0.441   0.723   4.995   0.000   6.159     0.682        0.000
                 22   dn:     0.441   0.723   4.995   0.000   6.159
  In             23   up:     0.445   0.719   4.995   0.000   6.159     0.680       -0.002
                 23   dn:     0.446   0.720   4.995   0.000   6.161
  In             24   up:     0.440   0.725   4.994   0.000   6.160     0.682        0.001
                 24   dn:     0.440   0.724   4.994   0.000   6.158
  In             25   up:     0.447   0.717   4.995   0.000   6.159     0.688        0.005
                 25   dn:     0.442   0.716   4.995   0.000   6.154
  In             26   up:     0.440   0.725   4.994   0.000   6.160     0.682        0.001
                 26   dn:     0.440   0.724   4.994   0.000   6.158
  In             27   up:     0.445   0.719   4.995   0.000   6.159     0.680       -0.002
                 27   dn:     0.446   0.720   4.995   0.000   6.161
  In             28   up:     0.441   0.723   4.995   0.000   6.159     0.682        0.000
                 28   dn:     0.441   0.723   4.995   0.000   6.159
  In             29   up:     0.446   0.730   4.994   0.000   6.170     0.658       -0.002
                 29   dn:     0.447   0.731   4.994   0.000   6.172
  In             30   up:     0.442   0.723   4.995   0.000   6.159     0.682        0.000
                 30   dn:     0.442   0.722   4.995   0.000   6.159
  In             31   up:     0.447   0.730   4.994   0.000   6.171     0.656       -0.001
                 31   dn:     0.448   0.730   4.994   0.000   6.172
  In             32   up:     0.442   0.723   4.995   0.000   6.159     0.682        0.000
                 32   dn:     0.442   0.722   4.995   0.000   6.159
==============================================================================================

                 Bond                   Population        Spin       Length (A)
================================================================================
              P 4  -- P 33                   0.17        -0.07          2.24573
              P 33 -- In 19                  1.15        -0.02          2.37904
              P 19 -- In 19                  0.70        -0.00          2.48408
              P 17 -- In 19                  0.70        -0.00          2.48408
              P 2  -- In 17                  0.72        -0.00          2.48805
              P 24 -- In 20                  0.69        -0.00          2.52249
              P 28 -- In 18                  0.69        -0.00          2.52249
              P 7  -- In 7                   0.65        -0.00          2.52613
              P 9  -- In 11                  0.65        -0.00          2.52613
              P 9  -- In 10                  0.65        -0.01          2.52732
              P 7  -- In 8                   0.65        -0.01          2.52732
              P 26 -- In 26                  0.68         0.00          2.52763
              P 22 -- In 24                  0.68         0.00          2.52763
              P 4  -- In 10                  0.63         0.01          2.52999
              P 4  -- In 8                   0.63         0.01          2.53000
              P 28 -- In 11                  0.64        -0.00          2.53030
              P 24 -- In 7                   0.64        -0.00          2.53031
              P 5  -- In 7                   0.65        -0.00          2.53172
              P 11 -- In 11                  0.65        -0.00          2.53172
              P 16 -- In 31                  0.64         0.00          2.53455
              P 22 -- In 7                   0.64        -0.00          2.53560
              P 26 -- In 11                  0.64        -0.00          2.53561
              P 2  -- In 2                   0.69         0.00          2.53883
              P 2  -- In 4                   0.69         0.00          2.53883
              P 4  -- In 29                  0.66        -0.00          2.53897
              P 14 -- In 31                  0.64         0.00          2.53945
              P 3  -- In 9                   0.65        -0.00          2.54014
              P 1  -- In 5                   0.65        -0.00          2.54014
              P 27 -- In 17                  0.64        -0.00          2.54055
              P 21 -- In 17                  0.64        -0.00          2.54055
              P 27 -- In 18                  0.67         0.00          2.54182
              P 21 -- In 20                  0.67         0.00          2.54182
              P 11 -- In 2                   0.64        -0.01          2.54316
              P 5  -- In 4                   0.64        -0.01          2.54316
              P 12 -- In 21                  0.67         0.00          2.54370
              P 8  -- In 25                  0.67         0.00          2.54370
              P 23 -- In 24                  0.66         0.00          2.54386
              P 25 -- In 26                  0.66         0.00          2.54386
              P 18 -- In 20                  0.67         0.00          2.54411
              P 18 -- In 18                  0.67         0.00          2.54411
              P 20 -- In 26                  0.66         0.00          2.54440
              P 20 -- In 24                  0.66         0.00          2.54440
              P 6  -- In 8                   0.66        -0.00          2.54502
              P 10 -- In 10                  0.66        -0.00          2.54502
              P 19 -- In 20                  0.61        -0.00          2.54551
              P 17 -- In 18                  0.61        -0.00          2.54551
              P 24 -- In 9                   0.65        -0.00          2.54572
              P 28 -- In 5                   0.65        -0.00          2.54572
              P 13 -- In 14                  0.67         0.00          2.54574
              P 15 -- In 16                  0.67         0.00          2.54574
              P 23 -- In 29                  0.64        -0.00          2.54587
              P 25 -- In 29                  0.64        -0.00          2.54587
              P 28 -- In 32                  0.67         0.00          2.54670
              P 24 -- In 30                  0.67         0.00          2.54670
              P 30 -- In 30                  0.67         0.00          2.54671
              P 30 -- In 32                  0.67         0.00          2.54671
              P 11 -- In 1                   0.68        -0.00          2.54715
              P 5  -- In 1                   0.68        -0.00          2.54716
              P 31 -- In 32                  0.67        -0.00          2.54793
              P 29 -- In 30                  0.67        -0.00          2.54793
              P 30 -- In 13                  0.66         0.00          2.54794
              P 1  -- In 3                   0.66        -0.00          2.54818
              P 3  -- In 3                   0.66        -0.00          2.54818
              P 22 -- In 22                  0.67         0.00          2.54827
              P 26 -- In 28                  0.67         0.00          2.54827
              P 7  -- In 13                  0.68        -0.00          2.54877
              P 9  -- In 13                  0.68        -0.00          2.54877
              P 6  -- In 21                  0.66         0.00          2.54901
              P 10 -- In 25                  0.66         0.00          2.54901
              P 29 -- In 28                  0.67         0.00          2.54903
              P 31 -- In 22                  0.67         0.00          2.54903
              P 15 -- In 6                   0.66         0.00          2.54922
              P 13 -- In 12                  0.66         0.00          2.54922
              P 32 -- In 28                  0.67         0.00          2.54942
              P 32 -- In 22                  0.67         0.00          2.54942
              P 8  -- In 4                   0.65         0.00          2.54951
              P 12 -- In 2                   0.65         0.00          2.54951
              P 20 -- In 13                  0.65         0.00          2.54958
              P 16 -- In 12                  0.70         0.00          2.54963
              P 16 -- In 6                   0.70         0.00          2.54963
              P 21 -- In 22                  0.65        -0.00          2.54988
              P 27 -- In 28                  0.65        -0.00          2.54988
              P 26 -- In 9                   0.65        -0.00          2.55007
              P 22 -- In 5                   0.65        -0.00          2.55007
              P 13 -- In 15                  0.66        -0.00          2.55055
              P 15 -- In 15                  0.66        -0.00          2.55055
              P 8  -- In 23                  0.67         0.00          2.55071
              P 12 -- In 27                  0.67         0.00          2.55071
              P 30 -- In 15                  0.66        -0.00          2.55097
              P 18 -- In 1                   0.65         0.00          2.55129
              P 32 -- In 15                  0.66        -0.00          2.55157
              P 25 -- In 32                  0.64        -0.00          2.55191
              P 23 -- In 30                  0.64        -0.00          2.55191
              P 14 -- In 14                  0.68         0.00          2.55201
              P 14 -- In 16                  0.68         0.00          2.55201
              P 16 -- In 17                  0.58         0.00          2.55294
              P 10 -- In 27                  0.66         0.00          2.55333
              P 6  -- In 23                  0.66         0.00          2.55333
              P 21 -- In 23                  0.67         0.00          2.55349
              P 27 -- In 27                  0.67         0.00          2.55349
              P 32 -- In 1                   0.65         0.00          2.55393
              P 17 -- In 24                  0.61        -0.00          2.55397
              P 19 -- In 26                  0.61        -0.00          2.55397
              P 25 -- In 27                  0.66         0.00          2.55479
              P 23 -- In 23                  0.66         0.00          2.55479
              P 5  -- In 6                   0.67         0.00          2.55480
              P 11 -- In 12                  0.67         0.00          2.55480
              P 20 -- In 3                   0.65         0.00          2.55694
              P 9  -- In 16                  0.66         0.00          2.55720
              P 7  -- In 14                  0.66         0.00          2.55720
              P 1  -- In 8                   0.64         0.01          2.55782
              P 3  -- In 10                  0.64         0.01          2.55782
              P 31 -- In 31                  0.64         0.00          2.56081
              P 29 -- In 31                  0.64         0.00          2.56081
              P 15 -- In 5                   0.65         0.00          2.56136
              P 13 -- In 9                   0.65         0.00          2.56136
              P 18 -- In 3                   0.66         0.00          2.56215
              P 12 -- In 16                  0.64         0.00          2.56450
              P 8  -- In 14                  0.64         0.00          2.56450
              P 17 -- In 21                  0.65         0.00          2.56501
              P 19 -- In 25                  0.65         0.00          2.56501
              P 10 -- In 12                  0.63         0.00          2.56523
              P 6  -- In 6                   0.63         0.00          2.56523
              P 1  -- In 2                   0.63         0.00          2.56556
              P 3  -- In 4                   0.63         0.00          2.56556
              P 14 -- In 29                  0.61         0.00          2.56897
              P 29 -- In 25                  0.63        -0.00          2.56923
              P 31 -- In 21                  0.63        -0.00          2.56923
              P 2  -- P 33                  -0.22        -0.04          2.60399
================================================================================

 Hirshfeld supercell size:           2           2           2
Standard grid dimensions: 240 240 240
Fine grid dimensions:     240 240 240


     Hirshfeld Analysis
     ------------------
Species   Ion     Hirshfeld Charge (e)  Spin (hbar/2)
===================================================
  P        1                -0.23        0.02
  P        2                -0.26        0.07
  P        3                -0.23        0.02
  P        4                -0.20        0.10
  P        5                -0.24        0.01
  P        6                -0.23        0.00
  P        7                -0.24        0.02
  P        8                -0.23        0.00
  P        9                -0.24        0.02
  P       10                -0.23        0.00
  P       11                -0.24        0.01
  P       12                -0.23        0.00
  P       13                -0.24        0.00
  P       14                -0.24        0.00
  P       15                -0.24        0.00
  P       16                -0.24        0.00
  P       17                -0.23        0.01
  P       18                -0.24        0.00
  P       19                -0.23        0.01
  P       20                -0.24        0.00
  P       21                -0.24        0.00
  P       22                -0.24        0.00
  P       23                -0.24        0.00
  P       24                -0.24        0.00
  P       25                -0.24        0.00
  P       26                -0.24        0.00
  P       27                -0.24        0.00
  P       28                -0.24        0.00
  P       29                -0.24        0.00
  P       30                -0.24        0.00
  P       31                -0.24        0.00
  P       32                -0.24        0.00
  P       33                -0.12        0.49
  In       1                 0.24        0.00
  In       2                 0.24        0.02
  In       3                 0.25        0.00
  In       4                 0.24        0.02
  In       5                 0.24        0.00
  In       6                 0.24        0.00
  In       7                 0.23        0.00
  In       8                 0.25        0.03
  In       9                 0.24        0.00
  In      10                 0.25        0.03
  In      11                 0.23        0.00
  In      12                 0.24        0.00
  In      13                 0.24        0.00
  In      14                 0.24        0.00
  In      15                 0.24        0.00
  In      16                 0.24        0.00
  In      17                 0.22        0.00
  In      18                 0.24        0.00
  In      19                 0.25        0.03
  In      20                 0.24        0.00
  In      21                 0.25        0.00
  In      22                 0.24        0.00
  In      23                 0.24        0.00
  In      24                 0.24        0.00
  In      25                 0.25        0.00
  In      26                 0.24        0.00
  In      27                 0.24        0.00
  In      28                 0.24        0.00
  In      29                 0.23        0.01
  In      30                 0.24        0.00
  In      31                 0.23       -0.00
  In      32                 0.24        0.00
===================================================

 
 A BibTeX formatted list of references used in this run has been written to 
 P_Interstitial_Migration_Dumbbell#_Dumbbell+_Singlepoints_3.bib
 
Initialisation time =     30.91 s
Calculation time    =   7981.31 s
Finalisation time   =    161.14 s
Total time          =   8173.36 s
Peak Memory Use     = 9654216 kB
 
Overall parallel efficiency rating: Terrible (33%)
 
Data was distributed by:-
G-vector (3-way); efficiency rating: Poor (37%)
k-point (36-way); efficiency rating: Good (77%)
