 +-------------------------------------------------+
 |                                                 |
 |      CCC   AA    SSS  TTTTT  EEEEE  PPPP        |
 |     C     A  A  S       T    E      P   P       |
 |     C     AAAA   SS     T    EEE    PPPP        |
 |     C     A  A     S    T    E      P           |
 |      CCC  A  A  SSS     T    EEEEE  P           |
 |                                                 |
 +-------------------------------------------------+
 |                                                 |
 | Welcome to Academic Release CASTEP version 24.1 |
 | Ab Initio Total Energy Program                  |
 |                                                 |
 | Authors:                                        |
 | M. Segall, M. Probert, C. Pickard, P. Hasnip,   |
 | S. Clark, K. Refson, J. R. Yates,               |
 | A. Bartok-Partay, M. Payne                      |
 |                                                 |
 | Contributors:                                   |
 | P. Lindan, P. Haynes, J. White, V. Milman,      |
 | N. Govind, M. Gibson, P. Tulip, V. Cocula,      |
 | B. Montanari, D. Quigley, M. Glover,            |
 | L. Bernasconi, A. Perlov, M. Plummer,           |
 | E. McNellis, J. Meyer, J. Gale, D. Jochym       |
 | J. Aarons, B. Walker, R. Gillen, D. Jones       |
 | T. Green, I. J. Bush, C. J. Armstrong,          |
 | E. J. Higgins, E. L. Brown, M. S. McFly,        |
 | J. Wilkins, B-C. Shih, P. J. P. Byrne,          |
 | R. J. Maurer, J. C. Womack, J. Dziedzic,        |
 | L. LeBlanc, T. K. Stenczel, J. Kermode,         |
 | S. Sturniolo, B. Shi, B. Durham, M. Evans,      |
 | M. J. Smith, A. Tamerus, Z. Hawkhead,           |
 | V. Ravindran, T. Hollins, S. A. Joyce,          |
 | R. T. Strong, A. M. Reilly, S. J. Donaldson     |
 |                                                 |
 | Copyright (c) 2000 - 2023                       |
 |                                                 |
 |     Distributed under license from Cambridge    |
 |     Enterprise for academic use only.           |
 |                                                 |
 | Please cite                                     |
 |                                                 |
 |     "First principles methods using CASTEP"     |
 |                                                 |
 |         Zeitschrift fuer Kristallographie       |
 |           220(5-6) pp. 567-570 (2005)           |
 |                                                 |
 | S. J. Clark, M. D. Segall, C. J. Pickard,       |
 | P. J. Hasnip, M. J. Probert, K. Refson,         |
 | M. C. Payne                                     |
 |                                                 |
 |       in all publications arising from          |
 |              your use of CASTEP                 |
 |                                                 |
 +-------------------------------------------------+
 |                                                 |
 |              http://www.castep.org              |
 |                                                 |
 +-------------------------------------------------+



 Compiled for  GNU 11.2.0 on 04-04-2024 18:39:17
 from code version 6355fd106 Castep241_branch Thu Mar 7 17:56:19 2024 +0000
 Compiler: GNU Fortran 11.2.0; Optimisation: FAST
 Comms   : MPI VERSION : CRAY MPICH version 8.1.23.14 (ANL base 3.4a2)
 MATHLIBS: default (LAPACK version 3.10.1)
 FFT Lib : fftw3 version commercial-fftw-3.3.10-sse2-avx-avx2-avx2_128
 Fundamental constants values: CODATA 2018

 Run started: Tue, 29 Apr 2025 13:33:22 +0100

 Atomic calculation performed for P: 1s2 2s2 2p6 3s2 3p3

 Converged in 47 iterations to an ae energy of -9309.074 eV

   ============================================================                
   | Pseudopotential Report - Date of generation 29-04-2025   |                
   ------------------------------------------------------------                
   | Element: P Ionic charge:  5.00 Level of theory: RSCAN    |                
   | Atomic Solver: Koelling-Harmon                           |                
   |                                                          |                
   |               Reference Electronic Structure             |                
   |         Orbital         Occupation         Energy        |                
   |            3s              2.000           -0.535        |                
   |            3p              3.000           -0.209        |                
   |                                                          |                
   |                 Pseudopotential Definition               |                
   |        Beta     l      e      Rc     scheme   norm       |                
   |          1      0   -0.535   1.807     qc      0         |                
   |          2      0    0.250   1.807     qc      0         |                
   |          3      1   -0.209   1.807     qc      0         |                
   |          4      1    0.250   1.807     qc      0         |                
   |          5      2    0.000   1.807     qc      0         |                
   |          6      2    0.250   1.807     qc      0         |                
   |         loc     3    0.000   1.807     pn      0         |                
   |                                                          |                
   | Augmentation charge Rinner = 1.263                       |                
   | Partial core correction Rc = 1.263                       |                
   ------------------------------------------------------------                
   | "3|1.8|4|4|5|30:31:32"                                   |                
   ------------------------------------------------------------                
   |      Author: Chris J. Pickard, Cambridge University      |                
   ============================================================                
 Warning: otfg_output_psp cannot write out meta-GGA pseudopotentials presently.

 Atomic calculation performed for In:
 1s2 2s2 2p6 3s2 3p6 3d10 4s2 4p6 4d10 5s2 5p1

 Converged in 84 iterations to an ae energy of -160093.328 eV

   ============================================================                
   | Pseudopotential Report - Date of generation 29-04-2025   |                
   ------------------------------------------------------------                
   | Element: In Ionic charge: 13.00 Level of theory: RSCAN   |                
   | Atomic Solver: Koelling-Harmon                           |                
   |                                                          |                
   |               Reference Electronic Structure             |                
   |         Orbital         Occupation         Energy        |                
   |            4d             10.000           -0.711        |                
   |            5s              2.000           -0.313        |                
   |            5p              1.000           -0.095        |                
   |                                                          |                
   |                 Pseudopotential Definition               |                
   |        Beta     l      e      Rc     scheme   norm       |                
   |          1      0   -0.313   2.501     qc      0         |                
   |          2      0    0.250   2.501     qc      0         |                
   |          3      1   -0.095   2.501     qc      0         |                
   |          4      1    0.250   2.501     qc      0         |                
   |          5      2   -0.711   2.207     qc      0         |                
   |          6      2    0.250   2.207     qc      0         |                
   |         loc     3    0.000   2.501     pn      0         |                
   |                                                          |                
   | Augmentation charge Rinner = 1.504                       |                
   | Partial core correction Rc = 1.504                       |                
   ------------------------------------------------------------                
   | "3|2.5|2.5|1.5|7|8|9|50:51:42U2.2U2.2"                   |                
   ------------------------------------------------------------                
   |      Author: Chris J. Pickard, Cambridge University      |                
   ============================================================                
 Warning: otfg_output_psp cannot write out meta-GGA pseudopotentials presently.

 Pseudo atomic calculation performed for P 3s2 3p3

 Converged in 23 iterations to a total energy of -208.0292 eV

 Pseudo atomic calculation performed for In 4d10 5s2 5p1

 Converged in 42 iterations to a total energy of -1747.4501 eV
 Calculation parallelised over 108 processes.
 Data is distributed by G-vector(3-way) and k-point(36-way)
 Each process may use up to 16 threads.

 ************************************ Title ************************************
 

 ***************************** General Parameters ******************************
  
 output verbosity                               : normal  (1)
 write checkpoint data to                       : P_Interstitial_Migration_Dumbbell#_Dumbbell+_Singlepoints_3.check
 type of calculation                            : single point energy
 stress calculation                             : off
 density difference calculation                 : off
 electron localisation func (ELF) calculation   : off
 Hirshfeld analysis                             : on
 polarisation (Berry phase) analysis            : off
 molecular orbital projected DOS                : off
 deltaSCF calculation                           : off
 unlimited duration calculation
 timing information                             : on
 memory usage estimate                          : on
 write extra output files                       : on
 write final potential to formatted file        : off
 write final density to formatted file          : off
 write BibTeX reference list                    : on
 write OTFG pseudopotential files               : on
 write electrostatic potential file             : on
 write bands file                               : on
 checkpoint writing                             : off
  
 output         length unit                     : A
 output           mass unit                     : amu
 output           time unit                     : ps
 output         charge unit                     : e
 output           spin unit                     : hbar/2
 output         energy unit                     : eV
 output          force unit                     : eV/A
 output       velocity unit                     : A/ps
 output       pressure unit                     : GPa
 output     inv_length unit                     : 1/A
 output      frequency unit                     : cm-1
 output force constant unit                     : eV/A**2
 output         volume unit                     : A**3
 output   IR intensity unit                     : (D/A)**2/amu
 output         dipole unit                     : D
 output         efield unit                     : eV/A/e
 output        entropy unit                     : J/mol/K
 output    efield chi2 unit                     : pm/V
  
 wavefunctions paging                           : none
 random number generator seed                   :  133322883
 data distribution                              : optimal for this architecture
 optimization strategy                          : balance speed and memory

 *********************** Exchange-Correlation Parameters ***********************
  
 using functional                               : RSCAN
 relativistic treatment                         : Koelling-Harmon
 DFT+D: Semi-empirical dispersion correction    : off

 ************************* Pseudopotential Parameters **************************
  
 pseudopotential representation                 : reciprocal space
 <beta|phi> representation                      : reciprocal space
 spin-orbit coupling                            : off

 **************************** Basis Set Parameters *****************************
  
 plane wave basis set cut-off                   :   900.0000   eV
 size of standard grid                          :     2.0000
 size of   fine   gmax                          :    30.7390   1/A
 finite basis set correction                    : none

 **************************** Electronic Parameters ****************************
  
 number of  electrons                           :  581.0    
 net charge of system                           :  0.000    
 net spin   of system                           :  1.000    
 number of  up  spins                           :  291.0    
 number of down spins                           :  290.0    
 treating system as spin-polarized
 number of bands                                :        349

 ********************* Electronic Minimization Parameters **********************
  
 Method: Treating system as metallic with density mixing treatment of electrons,
         and number of  SD  steps               :          1
         and number of  CG  steps               :          4
  
 total energy / atom convergence tol.           : 0.1000E-07   eV
 eigen-energy convergence tolerance             : 0.2234E-08   eV
 max force / atom convergence tol.              : ignored
 convergence tolerance window                   :          3   cycles
 max. number of SCF cycles                      :        100
 number of fixed-spin iterations                :         10
 smearing scheme                                : Gaussian
 smearing width                                 : 0.2000       eV
 Fermi energy convergence tolerance             : 0.2721E-13   eV
 periodic dipole correction                     : NONE

 ************************** Density Mixing Parameters **************************
  
 density-mixing scheme                          : Pulay
 max. length of mixing history                  :         20
 charge density mixing amplitude                : 0.5000    
   spin density mixing amplitude                :  2.000    
 cut-off energy for mixing                      :  900.0       eV

 *********************** Population Analysis Parameters ************************
  
 Population analysis with cutoff                :  3.000       A
 Population analysis output                     : summary and pdos components

 *******************************************************************************
  

                           -------------------------------
                                      Unit Cell
                           -------------------------------
        Real Lattice(A)                      Reciprocal Lattice(1/A)
    11.8016820    -0.0000080    -0.0000080        0.532397442   0.000000361   0.000000361
    -0.0000080    11.8016820    -0.0000080        0.000000361   0.532397442   0.000000361
    -0.0000080    -0.0000080    11.8016820        0.000000361   0.000000361   0.532397442

                       Lattice parameters(A)       Cell Angles
                    a =     11.801682          alpha =   90.000078
                    b =     11.801682          beta  =   90.000078
                    c =     11.801682          gamma =   90.000078

                       Current cell volume =          1643.734705       A**3
                                   density =             2.857097   AMU/A**3
                                           =             4.744322     g/cm^3

                           -------------------------------
                                     Cell Contents
                           -------------------------------
                         Total number of ions in cell =   65
                      Total number of species in cell =    2
                        Max number of any one species =   33

            xxxxxxxxxxxxxxxxxxxxxxxxxxxxxxxxxxxxxxxxxxxxxxxxxxxxxxxxxxxx
            x  Element    Atom        Fractional coordinates of atoms  x
            x            Number           u          v          w      x
            x----------------------------------------------------------x
            x  P            1         0.123256   0.119006   0.370428   x 
            x  P            2         0.359722   0.100735   0.100637   x 
            x  P            3         0.123256   0.370526   0.118908   x 
            x  P            4         0.345918   0.391017   0.390918   x 
            x  P            5         0.119674   0.118234   0.866394   x 
            x  P            6         0.373070   0.120741   0.620169   x 
            x  P            7         0.117827   0.372787   0.625455   x 
            x  P            8         0.372910   0.369268   0.869667   x 
            x  P            9         0.117827   0.625553   0.372688   x 
            x  P           10         0.373070   0.620268   0.120643   x 
            x  P           11         0.119674   0.866493   0.118136   x 
            x  P           12         0.372910   0.869765   0.369169   x 
            x  P           13         0.122617   0.620406   0.869923   x 
            x  P           14         0.374405   0.618450   0.618351   x 
            x  P           15         0.122617   0.870021   0.620308   x 
            x  P           16         0.374054   0.869490   0.869391   x 
            x  P           17         0.639831   0.111873   0.376567   x 
            x  P           18         0.875787   0.119851   0.119752   x 
            x  P           19         0.639831   0.376666   0.111774   x 
            x  P           20         0.875688   0.370406   0.370308   x 
            x  P           21         0.624996   0.120269   0.868635   x 
            x  P           22         0.874206   0.117539   0.621850   x 
            x  P           23         0.625114   0.369129   0.620966   x 
            x  P           24         0.873770   0.372169   0.867517   x 
            x  P           25         0.625114   0.621065   0.369030   x 
            x  P           26         0.874206   0.621949   0.117440   x 
            x  P           27         0.624996   0.868733   0.120170   x 
            x  P           28         0.873770   0.867616   0.372070   x 
            x  P           29         0.619465   0.619083   0.870679   x 
            x  P           30         0.871301   0.621228   0.621130   x 
            x  P           31         0.619465   0.870777   0.618985   x 
            x  P           32         0.871670   0.869206   0.869107   x 
            x  P           33         0.344137   0.256391   0.256293   x 
            x  In           1        -0.002368  -0.006381  -0.006480   x 
            x  In           2         0.243880  -0.010345   0.244076   x 
            x  In           3         0.000990   0.245348   0.245250   x 
            x  In           4         0.243880   0.244174  -0.010444   x 
            x  In           5        -0.002049  -0.005011   0.494015   x 
            x  In           6         0.248502  -0.006346   0.744925   x 
            x  In           7        -0.004531   0.244629   0.745522   x 
            x  In           8         0.238879   0.243952   0.504666   x 
            x  In           9        -0.002049   0.494114  -0.005109   x 
            x  In          10         0.238879   0.504765   0.243853   x 
            x  In          11        -0.004531   0.745621   0.244530   x 
            x  In          12         0.248502   0.745024  -0.006445   x 
            x  In          13        -0.003392   0.496977   0.496879   x 
            x  In          14         0.248546   0.497077   0.745563   x 
            x  In          15        -0.002053   0.745101   0.745002   x 
            x  In          16         0.248546   0.745661   0.496978   x 
            x  In          17         0.503794  -0.008092  -0.008190   x 
            x  In          18         0.755522  -0.010777   0.242030   x 
            x  In          19         0.544058   0.237651   0.237552   x 
            x  In          20         0.755522   0.242129  -0.010876   x 
            x  In          21         0.495735  -0.002744   0.492199   x 
            x  In          22         0.746696  -0.007089   0.743611   x 
            x  In          23         0.498438   0.245044   0.745109   x 
            x  In          24         0.755177   0.247209   0.499831   x 
            x  In          25         0.495735   0.492297  -0.002843   x 
            x  In          26         0.755177   0.499929   0.247111   x 
            x  In          27         0.498438   0.745208   0.244946   x 
            x  In          28         0.746696   0.743709  -0.007187   x 
            x  In          29         0.503521   0.494516   0.494418   x 
            x  In          30         0.746547   0.497060   0.745976   x 
            x  In          31         0.495410   0.744227   0.744129   x 
            x  In          32         0.746547   0.746074   0.496962   x 
            xxxxxxxxxxxxxxxxxxxxxxxxxxxxxxxxxxxxxxxxxxxxxxxxxxxxxxxxxxxx


                         No user defined ionic velocities

                           -------------------------------
                                   Details of Species
                           -------------------------------

                               Mass of species in AMU
                                    P   30.9737600
                                    In  114.8180000

                          Electric Quadrupole Moment (Barn)
                                    P    1.0000000 No Isotope Defined
                                    In    0.7700000 Isotope115

                          Files used for pseudopotentials:
                                    P 3|1.8|4|4|5|30:31:32
                                    In 3|2.5|2.5|1.5|7|8|9|50:51:42U2.2U2.2

                           -------------------------------
                              k-Points For BZ Sampling
                           -------------------------------
                       MP grid size for SCF calculation is  4  4  4
                            with an offset of   0.125  0.125  0.125
                       Number of kpoints used =            36

                           -------------------------------
                               Symmetry and Constraints
                           -------------------------------

                      Maximum deviation from symmetry =  0.00000         ANG

                      Number of symmetry operations   =           1
                      Number of ionic constraints     =           3
                      Point group of crystal =     1: C1, 1, 1
                      Space group of crystal =     8: Cm, C -2y

             Set iprint > 1 for details on symmetry rotations/translations

                         Centre of mass is constrained
             Set iprint > 1 for details of linear ionic constraints

                         Number of cell constraints= 0
                         Cell constraints are:  1 2 3 4 5 6

                         External pressure/stress (GPa)
                          0.00000   0.00000   0.00000
                                    0.00000   0.00000
                                              0.00000
 
+---------------- MEMORY AND SCRATCH DISK ESTIMATES PER PROCESS --------------+
|                                                     Memory          Disk    |
| Baseline code, static data and system overhead      368.0 MB         0.0 MB |
| BLAS internal memory storage                          0.0 MB         0.0 MB |
| Model and support data                             4327.0 MB         0.0 MB |
| Electronic energy minimisation requirements        1337.1 MB         0.0 MB |
| Force calculation requirements                      127.4 MB         0.0 MB |
|                                               ----------------------------- |
| Approx. total storage required per process         6032.2 MB         0.0 MB |
|                                                                             |
| Requirements will fluctuate during execution and may exceed these estimates |
+-----------------------------------------------------------------------------+
Calculating approximate eigenstates for fixed initial Hamiltonian
Cut-off for approx. calculation is   89.988 eV
Improving approx. states at cut-off of  450.000 eV
Resetting cut-off to  900.000 eV
Calculating total energy with cut-off of  900.000 eV.
------------------------------------------------------------------------ <-- SCF
SCF loop      Energy           Fermi           Energy gain       Timer   <-- SCF
                               energy          per atom          (sec)   <-- SCF
------------------------------------------------------------------------ <-- SCF
Initial  -6.32536747E+004  0.00000000E+000                       437.47  <-- SCF
      1  -6.30174550E+004  2.83664023E+000  -3.63414961E+000     883.67  <-- SCF
      2  -6.30177350E+004  2.83635092E+000   4.30831358E-003    1194.96  <-- SCF
      3  -6.30835593E+004  3.23659192E+000   1.01268118E+000    1549.40  <-- SCF
      4  -6.30950825E+004  3.34081633E+000   1.77279823E-001    2046.86  <-- SCF
      5  -6.31007470E+004  3.53332040E+000   8.71469595E-002    2393.75  <-- SCF
      6  -6.30896474E+004  3.73148141E+000  -1.70764260E-001    2751.03  <-- SCF
      7  -6.30883237E+004  3.80090437E+000  -2.03644592E-002    3099.52  <-- SCF
      8  -6.30884404E+004  3.86267582E+000   1.79543041E-003    3476.78  <-- SCF
      9  -6.30892776E+004  3.90108729E+000   1.28801964E-002    3831.47  <-- SCF
     10  -6.30895661E+004  3.85377645E+000   4.43954495E-003    4195.07  <-- SCF
     11  -6.30895662E+004  3.83552894E+000   9.49075749E-007    4569.68  <-- SCF
     12  -6.30895671E+004  3.82674612E+000   1.39094841E-005    4923.73  <-- SCF
     13  -6.30895679E+004  3.82617866E+000   1.26335999E-005    5286.06  <-- SCF
     14  -6.30895681E+004  3.82547586E+000   2.73588914E-006    5652.75  <-- SCF
     15  -6.30895682E+004  3.82464288E+000   7.37302641E-007    6006.93  <-- SCF
     16  -6.30895682E+004  3.82457850E+000   2.93080864E-007    6311.80  <-- SCF
     17  -6.30895682E+004  3.82450798E+000   4.66326666E-008    6602.47  <-- SCF
     18  -6.30895682E+004  3.82464604E+000   1.92456626E-008    6849.98  <-- SCF
     19  -6.30895682E+004  3.82475425E+000   6.75256349E-009    7101.17  <-- SCF
     20  -6.30895682E+004  3.82480900E+000   5.90844546E-009    7350.65  <-- SCF
     21  -6.30895682E+004  3.82481292E+000   7.94620806E-010    7599.86  <-- SCF
------------------------------------------------------------------------ <-- SCF
 
Integrated Spin Density     =    0.976968     hbar/2
Integrated |Spin Density|   =     1.12961     hbar/2
 
Final energy, E             =  -63089.51867365     eV
Final free energy (E-TS)    =  -63089.56818410     eV
(energies not corrected for finite basis set)
 
NB est. 0K energy (E-0.5TS)      =  -63089.54342887     eV
 

 ************************** Forces **************************
 *                                                          *
 *               Cartesian components (eV/A)                *
 * -------------------------------------------------------- *
 *                         x            y            z      *
 *                                                          *
 * P               1     -0.04757     -0.06534      0.06217 *
 * P               2      0.39189      0.05954      0.05923 *
 * P               3     -0.04757      0.06181     -0.06536 *
 * P               4      0.02904      0.04250      0.04229 *
 * P               5     -0.01499      0.04647     -0.03358 *
 * P               6     -0.01992      0.01038     -0.01364 *
 * P               7     -0.05153     -0.02319      0.07701 *
 * P               8     -0.04012      0.02460     -0.01267 *
 * P               9     -0.05144      0.07739     -0.02322 *
 * P              10     -0.01993     -0.01399      0.01080 *
 * P              11     -0.01504     -0.03314      0.04624 *
 * P              12     -0.04012     -0.01294      0.02472 *
 * P              13      0.00720     -0.01940      0.02814 *
 * P              14      0.02802     -0.00050     -0.00057 *
 * P              15      0.00721      0.02782     -0.01899 *
 * P              16      0.03649     -0.16913     -0.16895 *
 * P              17     -0.11448      0.05363     -0.08703 *
 * P              18      0.04299     -0.00707     -0.00680 *
 * P              19     -0.11446     -0.08681      0.05391 *
 * P              20      0.01979      0.01499      0.01536 *
 * P              21      0.01409     -0.01590     -0.02796 *
 * P              22     -0.00680      0.01197     -0.03011 *
 * P              23     -0.03735      0.00615     -0.06240 *
 * P              24     -0.00556     -0.02294     -0.00003 *
 * P              25     -0.03733     -0.06269      0.00615 *
 * P              26     -0.00677     -0.03021      0.01156 *
 * P              27      0.01407     -0.02790     -0.01562 *
 * P              28     -0.00562      0.00039     -0.02289 *
 * P              29      0.01506      0.00900     -0.00982 *
 * P              30     -0.02168      0.00299      0.00342 *
 * P              31      0.01503     -0.01021      0.00900 *
 * P              32     -0.01560      0.00198      0.00205 *
 * P              33      0.00476      0.43638      0.43616 *
 * In              1      0.05676     -0.01122     -0.01129 *
 * In              2      0.10324      0.07682     -0.17165 *
 * In              3     -0.03796     -0.01708     -0.01714 *
 * In              4      0.10324     -0.17158      0.07677 *
 * In              5      0.01231     -0.02366      0.03211 *
 * In              6      0.01105      0.01727      0.06031 *
 * In              7      0.02226     -0.00152      0.01483 *
 * In              8     -0.07973      0.02656      0.07453 *
 * In              9      0.01231      0.03217     -0.02371 *
 * In             10     -0.07973      0.07458      0.02648 *
 * In             11      0.02226      0.01489     -0.00158 *
 * In             12      0.01105      0.06037      0.01721 *
 * In             13      0.08099     -0.01839     -0.01844 *
 * In             14      0.02176     -0.06579     -0.04473 *
 * In             15      0.00476      0.01265      0.01258 *
 * In             16      0.02176     -0.04469     -0.06584 *
 * In             17     -0.21474     -0.07682     -0.07687 *
 * In             18      0.01658      0.01289      0.06708 *
 * In             19     -0.01017     -0.23866     -0.23874 *
 * In             20      0.01659      0.06715      0.01284 *
 * In             21      0.04805     -0.02828      0.01452 *
 * In             22      0.00736      0.01265     -0.01980 *
 * In             23     -0.00513     -0.01053      0.01328 *
 * In             24      0.01357     -0.06860     -0.03202 *
 * In             25      0.04806      0.01458     -0.02834 *
 * In             26      0.01357     -0.03195     -0.06867 *
 * In             27     -0.00513      0.01334     -0.01059 *
 * In             28      0.00736     -0.01974      0.01258 *
 * In             29     -0.10944      0.07528      0.07523 *
 * In             30      0.00122     -0.00461      0.03415 *
 * In             31     -0.02700      0.00110      0.00103 *
 * In             32      0.00122      0.03420     -0.00467 *
 *                                                          *
 ************************************************************

 Pseudo atomic calculation performed for P 3s2 3p3

 Converged in 23 iterations to a total energy of -208.0292 eV

 Pseudo atomic calculation performed for In 4d10 5s2 5p1

 Converged in 42 iterations to a total energy of -1747.4501 eV
Charge spilling parameter for spin component 1 = 0.18%
Charge spilling parameter for spin component 2 = 0.18%

                   Orbital Populations                  
  ---------------------------------------------------------------
     Ion    Atom   Orbital              Up        Down      Spin
  ---------------------------------------------------------------
      P     1      S                    0.870     0.867     0.003
      P     1      Px                   0.656     0.647     0.009
      P     1      Py                   0.652     0.651     0.000
      P     1      Pz                   0.650     0.650     0.000
      P     2      S                    0.875     0.872     0.003
      P     2      Px                   0.663     0.655     0.008
      P     2      Py                   0.669     0.634     0.035
      P     2      Pz                   0.669     0.634     0.035
      P     3      S                    0.870     0.867     0.003
      P     3      Px                   0.656     0.647     0.009
      P     3      Py                   0.650     0.650    -0.000
      P     3      Pz                   0.652     0.651     0.000
      P     4      S                    0.865     0.862     0.003
      P     4      Px                   0.686     0.680     0.006
      P     4      Py                   0.642     0.601     0.041
      P     4      Pz                   0.642     0.601     0.041
      P     5      S                    0.867     0.866     0.001
      P     5      Px                   0.658     0.654     0.004
      P     5      Py                   0.657     0.654     0.003
      P     5      Pz                   0.659     0.655     0.004
      P     6      S                    0.867     0.867    -0.000
      P     6      Px                   0.655     0.654     0.000
      P     6      Py                   0.658     0.657     0.001
      P     6      Pz                   0.657     0.657    -0.000
      P     7      S                    0.867     0.865     0.002
      P     7      Px                   0.661     0.653     0.008
      P     7      Py                   0.656     0.651     0.005
      P     7      Pz                   0.663     0.654     0.008
      P     8      S                    0.867     0.867    -0.000
      P     8      Px                   0.656     0.656     0.000
      P     8      Py                   0.658     0.658     0.000
      P     8      Pz                   0.657     0.657    -0.000
      P     9      S                    0.867     0.865     0.002
      P     9      Px                   0.661     0.653     0.008
      P     9      Py                   0.663     0.654     0.008
      P     9      Pz                   0.656     0.651     0.005
      P    10      S                    0.867     0.867    -0.000
      P    10      Px                   0.655     0.654     0.000
      P    10      Py                   0.657     0.657    -0.000
      P    10      Pz                   0.658     0.657     0.001
      P    11      S                    0.867     0.866     0.001
      P    11      Px                   0.658     0.654     0.004
      P    11      Py                   0.659     0.655     0.004
      P    11      Pz                   0.657     0.654     0.003
      P    12      S                    0.867     0.867    -0.000
      P    12      Px                   0.656     0.656     0.000
      P    12      Py                   0.657     0.657    -0.000
      P    12      Pz                   0.658     0.658     0.000
      P    13      S                    0.867     0.867    -0.000
      P    13      Px                   0.656     0.656     0.000
      P    13      Py                   0.657     0.657     0.000
      P    13      Pz                   0.657     0.657    -0.000
      P    14      S                    0.868     0.868    -0.000
      P    14      Px                   0.654     0.655    -0.000
      P    14      Py                   0.655     0.655     0.000
      P    14      Pz                   0.655     0.655     0.000
      P    15      S                    0.867     0.867    -0.000
      P    15      Px                   0.656     0.656     0.000
      P    15      Py                   0.657     0.657     0.000
      P    15      Pz                   0.657     0.657     0.000
      P    16      S                    0.868     0.868    -0.000
      P    16      Px                   0.654     0.654     0.000
      P    16      Py                   0.656     0.654     0.002
      P    16      Pz                   0.656     0.654     0.002
      P    17      S                    0.869     0.867     0.002
      P    17      Px                   0.674     0.664     0.010
      P    17      Py                   0.657     0.654     0.003
      P    17      Pz                   0.647     0.644     0.003
      P    18      S                    0.866     0.867    -0.000
      P    18      Px                   0.659     0.659    -0.000
      P    18      Py                   0.656     0.656    -0.000
      P    18      Pz                   0.656     0.656    -0.000
      P    19      S                    0.869     0.867     0.002
      P    19      Px                   0.674     0.664     0.010
      P    19      Py                   0.647     0.644     0.003
      P    19      Pz                   0.657     0.654     0.003
      P    20      S                    0.866     0.866    -0.000
      P    20      Px                   0.659     0.659    -0.000
      P    20      Py                   0.657     0.657    -0.000
      P    20      Pz                   0.657     0.657    -0.000
      P    21      S                    0.866     0.866     0.000
      P    21      Px                   0.658     0.657     0.000
      P    21      Py                   0.656     0.656     0.000
      P    21      Pz                   0.658     0.657     0.000
      P    22      S                    0.865     0.865     0.000
      P    22      Px                   0.660     0.659     0.001
      P    22      Py                   0.655     0.654     0.001
      P    22      Pz                   0.659     0.658     0.001
      P    23      S                    0.867     0.867     0.000
      P    23      Px                   0.658     0.657     0.001
      P    23      Py                   0.658     0.657     0.001
      P    23      Pz                   0.656     0.655     0.001
      P    24      S                    0.865     0.864     0.000
      P    24      Px                   0.661     0.659     0.001
      P    24      Py                   0.655     0.654     0.001
      P    24      Pz                   0.661     0.659     0.002
      P    25      S                    0.867     0.867     0.000
      P    25      Px                   0.658     0.657     0.001
      P    25      Py                   0.656     0.655     0.001
      P    25      Pz                   0.658     0.657     0.001
      P    26      S                    0.865     0.865     0.000
      P    26      Px                   0.660     0.659     0.001
      P    26      Py                   0.659     0.658     0.001
      P    26      Pz                   0.655     0.654     0.001
      P    27      S                    0.866     0.866     0.000
      P    27      Px                   0.658     0.657     0.000
      P    27      Py                   0.658     0.657     0.000
      P    27      Pz                   0.656     0.656     0.000
      P    28      S                    0.865     0.864     0.000
      P    28      Px                   0.661     0.659     0.001
      P    28      Py                   0.661     0.659     0.002
      P    28      Pz                   0.655     0.654     0.001
      P    29      S                    0.867     0.867     0.000
      P    29      Px                   0.657     0.656     0.000
      P    29      Py                   0.657     0.657     0.000
      P    29      Pz                   0.656     0.656    -0.000
      P    30      S                    0.866     0.866    -0.000
      P    30      Px                   0.656     0.656    -0.000
      P    30      Py                   0.658     0.658    -0.000
      P    30      Pz                   0.658     0.658    -0.000
      P    31      S                    0.867     0.867     0.000
      P    31      Px                   0.657     0.656     0.000
      P    31      Py                   0.656     0.656    -0.000
      P    31      Pz                   0.657     0.657     0.000
      P    32      S                    0.867     0.867     0.000
      P    32      Px                   0.656     0.656    -0.000
      P    32      Py                   0.657     0.657     0.000
      P    32      Pz                   0.657     0.657     0.000
      P    33      S                    0.943     0.927     0.016
      P    33      Px                   0.674     0.658     0.016
      P    33      Py                   0.684     0.371     0.313
      P    33      Pz                   0.684     0.371     0.313
     In     1      Dzz                  1.000     1.000     0.000
     In     1      Dzy                  0.998     0.998    -0.000
     In     1      Dzx                  0.998     0.998     0.000
     In     1      Dxx-yy               1.000     1.000     0.000
     In     1      Dxy                  0.998     0.998     0.000
     In     1      S                    0.705     0.706    -0.001
     In     1      Px                   0.238     0.239    -0.000
     In     1      Py                   0.242     0.242     0.000
     In     1      Pz                   0.242     0.242     0.000
     In     1      S                   -0.264    -0.262    -0.001
     In     2      Dzz                  1.000     1.000     0.000
     In     2      Dzy                  0.998     0.998     0.000
     In     2      Dzx                  0.998     0.998     0.000
     In     2      Dxx-yy               1.000     1.000     0.000
     In     2      Dxy                  0.999     0.999     0.000
     In     2      S                    0.700     0.700     0.000
     In     2      Px                   0.236     0.238    -0.002
     In     2      Py                   0.226     0.231    -0.005
     In     2      Pz                   0.250     0.247     0.003
     In     2      S                   -0.257    -0.259     0.002
     In     3      Dzz                  1.000     1.000     0.000
     In     3      Dzy                  0.998     0.998    -0.000
     In     3      Dzx                  0.998     0.998     0.000
     In     3      Dxx-yy               1.000     1.000     0.000
     In     3      Dxy                  0.998     0.998     0.000
     In     3      S                    0.705     0.706    -0.001
     In     3      Px                   0.235     0.235    -0.000
     In     3      Py                   0.242     0.240     0.002
     In     3      Pz                   0.242     0.240     0.002
     In     3      S                   -0.251    -0.259     0.008
     In     4      Dzz                  1.000     1.000     0.000
     In     4      Dzy                  0.998     0.998     0.000
     In     4      Dzx                  0.999     0.999     0.000
     In     4      Dxx-yy               1.000     1.000     0.000
     In     4      Dxy                  0.998     0.998     0.000
     In     4      S                    0.700     0.700     0.000
     In     4      Px                   0.236     0.238    -0.002
     In     4      Py                   0.250     0.247     0.003
     In     4      Pz                   0.226     0.231    -0.005
     In     4      S                   -0.257    -0.259     0.002
     In     5      Dzz                  1.000     1.000    -0.000
     In     5      Dzy                  0.998     0.998     0.000
     In     5      Dzx                  0.998     0.998    -0.000
     In     5      Dxx-yy               1.000     1.000     0.000
     In     5      Dxy                  0.998     0.998    -0.000
     In     5      S                    0.716     0.715     0.001
     In     5      Px                   0.239     0.239    -0.000
     In     5      Py                   0.244     0.242     0.002
     In     5      Pz                   0.245     0.242     0.002
     In     5      S                   -0.268    -0.268    -0.000
     In     6      Dzz                  1.000     1.000     0.000
     In     6      Dzy                  0.998     0.998     0.000
     In     6      Dzx                  0.998     0.998     0.000
     In     6      Dxx-yy               1.000     1.000     0.000
     In     6      Dxy                  0.998     0.998    -0.000
     In     6      S                    0.706     0.707    -0.000
     In     6      Px                   0.242     0.242     0.000
     In     6      Py                   0.239     0.240    -0.000
     In     6      Pz                   0.238     0.238    -0.000
     In     6      S                   -0.266    -0.266    -0.001
     In     7      Dzz                  0.999     0.999     0.000
     In     7      Dzy                  0.998     0.998     0.000
     In     7      Dzx                  0.998     0.998     0.000
     In     7      Dxx-yy               0.999     0.999     0.000
     In     7      Dxy                  0.998     0.998     0.000
     In     7      S                    0.715     0.715     0.000
     In     7      Px                   0.240     0.240    -0.000
     In     7      Py                   0.255     0.253     0.003
     In     7      Pz                   0.240     0.240     0.000
     In     7      S                   -0.265    -0.263    -0.001
     In     8      Dzz                  1.000     1.000     0.000
     In     8      Dzy                  0.998     0.998     0.000
     In     8      Dzx                  0.999     0.999     0.000
     In     8      Dxx-yy               1.000     1.000     0.000
     In     8      Dxy                  0.998     0.998     0.000
     In     8      S                    0.699     0.697     0.002
     In     8      Px                   0.234     0.236    -0.001
     In     8      Py                   0.255     0.248     0.008
     In     8      Pz                   0.224     0.232    -0.009
     In     8      S                   -0.260    -0.260    -0.000
     In     9      Dzz                  1.000     1.000    -0.000
     In     9      Dzy                  0.998     0.998     0.000
     In     9      Dzx                  0.998     0.998    -0.000
     In     9      Dxx-yy               1.000     1.000     0.000
     In     9      Dxy                  0.998     0.998    -0.000
     In     9      S                    0.716     0.715     0.001
     In     9      Px                   0.239     0.239    -0.000
     In     9      Py                   0.245     0.242     0.002
     In     9      Pz                   0.244     0.242     0.002
     In     9      S                   -0.268    -0.268    -0.000
     In    10      Dzz                  1.000     0.999     0.000
     In    10      Dzy                  0.998     0.998     0.000
     In    10      Dzx                  0.998     0.998     0.000
     In    10      Dxx-yy               1.000     1.000     0.000
     In    10      Dxy                  0.999     0.999     0.000
     In    10      S                    0.699     0.697     0.002
     In    10      Px                   0.234     0.236    -0.001
     In    10      Py                   0.224     0.232    -0.009
     In    10      Pz                   0.255     0.248     0.008
     In    10      S                   -0.260    -0.260    -0.000
     In    11      Dzz                  0.999     0.999     0.000
     In    11      Dzy                  0.998     0.998     0.000
     In    11      Dzx                  0.998     0.998     0.000
     In    11      Dxx-yy               0.999     0.999     0.000
     In    11      Dxy                  0.998     0.998     0.000
     In    11      S                    0.715     0.715     0.000
     In    11      Px                   0.240     0.240    -0.000
     In    11      Py                   0.240     0.240     0.000
     In    11      Pz                   0.255     0.253     0.003
     In    11      S                   -0.265    -0.263    -0.001
     In    12      Dzz                  1.000     1.000    -0.000
     In    12      Dzy                  0.999     0.999     0.000
     In    12      Dzx                  0.998     0.998    -0.000
     In    12      Dxx-yy               1.000     1.000     0.000
     In    12      Dxy                  0.998     0.998     0.000
     In    12      S                    0.706     0.707    -0.000
     In    12      Px                   0.242     0.242     0.000
     In    12      Py                   0.238     0.238    -0.000
     In    12      Pz                   0.239     0.240    -0.000
     In    12      S                   -0.266    -0.266    -0.001
     In    13      Dzz                  1.000     1.000     0.000
     In    13      Dzy                  0.998     0.998    -0.000
     In    13      Dzx                  0.998     0.998     0.000
     In    13      Dxx-yy               1.000     1.000     0.000
     In    13      Dxy                  0.998     0.998     0.000
     In    13      S                    0.706     0.707    -0.001
     In    13      Px                   0.237     0.237    -0.000
     In    13      Py                   0.242     0.242     0.000
     In    13      Pz                   0.242     0.242     0.000
     In    13      S                   -0.261    -0.260    -0.001
     In    14      Dzz                  1.000     1.000     0.000
     In    14      Dzy                  0.999     0.999     0.000
     In    14      Dzx                  0.998     0.998     0.000
     In    14      Dxx-yy               1.000     1.000     0.000
     In    14      Dxy                  0.998     0.998    -0.000
     In    14      S                    0.706     0.707    -0.001
     In    14      Px                   0.243     0.243    -0.000
     In    14      Py                   0.239     0.239    -0.000
     In    14      Pz                   0.238     0.238    -0.000
     In    14      S                   -0.264    -0.263    -0.001
     In    15      Dzz                  1.000     1.000     0.000
     In    15      Dzy                  0.998     0.998    -0.000
     In    15      Dzx                  0.998     0.998     0.000
     In    15      Dxx-yy               1.000     1.000     0.000
     In    15      Dxy                  0.998     0.998     0.000
     In    15      S                    0.708     0.708    -0.000
     In    15      Px                   0.242     0.242    -0.000
     In    15      Py                   0.240     0.240    -0.000
     In    15      Pz                   0.240     0.240    -0.000
     In    15      S                   -0.265    -0.266     0.001
     In    16      Dzz                  1.000     1.000    -0.000
     In    16      Dzy                  0.999     0.999     0.000
     In    16      Dzx                  0.998     0.998    -0.000
     In    16      Dxx-yy               1.000     1.000     0.000
     In    16      Dxy                  0.998     0.998    -0.000
     In    16      S                    0.706     0.707    -0.001
     In    16      Px                   0.243     0.243    -0.000
     In    16      Py                   0.238     0.238    -0.000
     In    16      Pz                   0.239     0.239    -0.000
     In    16      S                   -0.264    -0.263    -0.001
     In    17      Dzz                  0.999     0.999     0.000
     In    17      Dzy                  0.998     0.998     0.000
     In    17      Dzx                  0.998     0.998     0.000
     In    17      Dxx-yy               0.999     0.999     0.000
     In    17      Dxy                  0.998     0.998     0.000
     In    17      S                    0.715     0.718    -0.003
     In    17      Px                   0.256     0.258    -0.002
     In    17      Py                   0.241     0.241    -0.000
     In    17      Pz                   0.241     0.241    -0.000
     In    17      S                   -0.273    -0.275     0.002
     In    18      Dzz                  1.000     1.000     0.000
     In    18      Dzy                  0.998     0.998     0.000
     In    18      Dzx                  0.998     0.998    -0.000
     In    18      Dxx-yy               1.000     1.000    -0.000
     In    18      Dxy                  0.998     0.998     0.000
     In    18      S                    0.708     0.707     0.000
     In    18      Px                   0.237     0.237    -0.000
     In    18      Py                   0.241     0.241     0.000
     In    18      Pz                   0.247     0.247     0.001
     In    18      S                   -0.267    -0.268     0.000
     In    19      Dzz                  0.999     0.999     0.000
     In    19      Dzy                  0.998     0.998    -0.000
     In    19      Dzx                  0.999     0.998     0.001
     In    19      Dxx-yy               0.998     0.998     0.000
     In    19      Dxy                  0.999     0.998     0.001
     In    19      S                    0.712     0.728    -0.016
     In    19      Px                   0.247     0.262    -0.015
     In    19      Py                   0.220     0.223    -0.003
     In    19      Pz                   0.220     0.223    -0.003
     In    19      S                   -0.243    -0.242    -0.001
     In    20      Dzz                  1.000     1.000    -0.000
     In    20      Dzy                  0.998     0.998     0.000
     In    20      Dzx                  0.998     0.998     0.000
     In    20      Dxx-yy               1.000     1.000     0.000
     In    20      Dxy                  0.998     0.998    -0.000
     In    20      S                    0.708     0.707     0.000
     In    20      Px                   0.237     0.237    -0.000
     In    20      Py                   0.247     0.247     0.001
     In    20      Pz                   0.241     0.241     0.000
     In    20      S                   -0.267    -0.268     0.000
     In    21      Dzz                  1.000     1.000    -0.000
     In    21      Dzy                  0.999     0.999     0.000
     In    21      Dzx                  0.998     0.998     0.000
     In    21      Dxx-yy               1.000     1.000     0.000
     In    21      Dxy                  0.998     0.998     0.000
     In    21      S                    0.714     0.714    -0.000
     In    21      Px                   0.240     0.240    -0.000
     In    21      Py                   0.238     0.238     0.000
     In    21      Pz                   0.238     0.238     0.000
     In    21      S                   -0.266    -0.272     0.005
     In    22      Dzz                  1.000     1.000    -0.000
     In    22      Dzy                  0.998     0.998    -0.000
     In    22      Dzx                  0.998     0.998    -0.000
     In    22      Dxx-yy               1.000     1.000     0.000
     In    22      Dxy                  0.998     0.998    -0.000
     In    22      S                    0.707     0.707     0.000
     In    22      Px                   0.241     0.241    -0.000
     In    22      Py                   0.242     0.242     0.000
     In    22      Pz                   0.240     0.241    -0.000
     In    22      S                   -0.266    -0.266     0.000
     In    23      Dzz                  1.000     1.000     0.000
     In    23      Dzy                  0.999     0.999     0.000
     In    23      Dzx                  0.998     0.998    -0.000
     In    23      Dxx-yy               1.000     1.000    -0.000
     In    23      Dxy                  0.998     0.998    -0.000
     In    23      S                    0.709     0.710    -0.000
     In    23      Px                   0.240     0.240    -0.000
     In    23      Py                   0.239     0.239    -0.000
     In    23      Pz                   0.240     0.240    -0.000
     In    23      S                   -0.264    -0.264    -0.001
     In    24      Dzz                  1.000     1.000     0.000
     In    24      Dzy                  0.998     0.998     0.000
     In    24      Dzx                  0.998     0.998     0.000
     In    24      Dxx-yy               1.000     1.000     0.000
     In    24      Dxy                  0.998     0.998     0.000
     In    24      S                    0.710     0.710     0.000
     In    24      Px                   0.238     0.238    -0.000
     In    24      Py                   0.246     0.245     0.001
     In    24      Pz                   0.242     0.242     0.000
     In    24      S                   -0.270    -0.271     0.000
     In    25      Dzz                  1.000     1.000     0.000
     In    25      Dzy                  0.999     0.999     0.000
     In    25      Dzx                  0.998     0.998     0.000
     In    25      Dxx-yy               1.000     1.000     0.000
     In    25      Dxy                  0.998     0.998     0.000
     In    25      S                    0.714     0.714    -0.000
     In    25      Px                   0.240     0.240    -0.000
     In    25      Py                   0.238     0.238     0.000
     In    25      Pz                   0.238     0.238     0.000
     In    25      S                   -0.266    -0.272     0.005
     In    26      Dzz                  1.000     1.000     0.000
     In    26      Dzy                  0.998     0.998     0.000
     In    26      Dzx                  0.998     0.998    -0.000
     In    26      Dxx-yy               1.000     1.000     0.000
     In    26      Dxy                  0.998     0.998     0.000
     In    26      S                    0.710     0.710     0.000
     In    26      Px                   0.238     0.238    -0.000
     In    26      Py                   0.242     0.242     0.000
     In    26      Pz                   0.246     0.245     0.001
     In    26      S                   -0.270    -0.271     0.000
     In    27      Dzz                  1.000     1.000     0.000
     In    27      Dzy                  0.999     0.999    -0.000
     In    27      Dzx                  0.998     0.998    -0.000
     In    27      Dxx-yy               1.000     1.000     0.000
     In    27      Dxy                  0.998     0.998    -0.000
     In    27      S                    0.709     0.710    -0.000
     In    27      Px                   0.240     0.240    -0.000
     In    27      Py                   0.240     0.240    -0.000
     In    27      Pz                   0.239     0.239    -0.000
     In    27      S                   -0.264    -0.264    -0.001
     In    28      Dzz                  1.000     1.000     0.000
     In    28      Dzy                  0.998     0.998    -0.000
     In    28      Dzx                  0.998     0.998    -0.000
     In    28      Dxx-yy               1.000     1.000     0.000
     In    28      Dxy                  0.998     0.998    -0.000
     In    28      S                    0.707     0.707     0.000
     In    28      Px                   0.241     0.241    -0.000
     In    28      Py                   0.240     0.241    -0.000
     In    28      Pz                   0.242     0.242     0.000
     In    28      S                   -0.266    -0.266     0.000
     In    29      Dzz                  1.000     1.000     0.000
     In    29      Dzy                  0.999     0.999     0.000
     In    29      Dzx                  0.998     0.998     0.000
     In    29      Dxx-yy               0.999     0.999     0.000
     In    29      Dxy                  0.998     0.998     0.000
     In    29      S                    0.719     0.723    -0.004
     In    29      Px                   0.244     0.247    -0.003
     In    29      Py                   0.243     0.242     0.001
     In    29      Pz                   0.243     0.242     0.001
     In    29      S                   -0.273    -0.276     0.003
     In    30      Dzz                  1.000     1.000     0.000
     In    30      Dzy                  0.998     0.998     0.000
     In    30      Dzx                  0.998     0.998     0.000
     In    30      Dxx-yy               1.000     1.000     0.000
     In    30      Dxy                  0.998     0.998     0.000
     In    30      S                    0.708     0.708     0.000
     In    30      Px                   0.241     0.241    -0.000
     In    30      Py                   0.242     0.241     0.001
     In    30      Pz                   0.240     0.240    -0.000
     In    30      S                   -0.266    -0.266    -0.000
     In    31      Dzz                  1.000     1.000     0.000
     In    31      Dzy                  0.998     0.998     0.000
     In    31      Dzx                  0.998     0.998     0.000
     In    31      Dxx-yy               1.000     1.000    -0.000
     In    31      Dxy                  0.998     0.998     0.000
     In    31      S                    0.710     0.711    -0.001
     In    31      Px                   0.246     0.246    -0.000
     In    31      Py                   0.242     0.242     0.000
     In    31      Pz                   0.242     0.242     0.000
     In    31      S                   -0.263    -0.263    -0.000
     In    32      Dzz                  1.000     1.000     0.000
     In    32      Dzy                  0.998     0.998     0.000
     In    32      Dzx                  0.998     0.998    -0.000
     In    32      Dxx-yy               1.000     1.000    -0.000
     In    32      Dxy                  0.998     0.998     0.000
     In    32      S                    0.708     0.708     0.000
     In    32      Px                   0.241     0.241    -0.000
     In    32      Py                   0.240     0.240    -0.000
     In    32      Pz                   0.242     0.241     0.001
     In    32      S                   -0.266    -0.266    -0.000
  ---------------------------------------------------------------
                           Total:     290.988   290.011     0.977
  ---------------------------------------------------------------

     Atomic Populations (Mulliken)
     -----------------------------
Species          Ion Spin      s       p       d       f      Total   Charge(e)   Spin(hbar/2)
==============================================================================================
  P               1   up:     0.870   1.958   0.000   0.000   2.828    -0.644        0.012
                  1   dn:     0.867   1.949   0.000   0.000   2.816
  P               2   up:     0.875   2.001   0.000   0.000   2.877    -0.672        0.081
                  2   dn:     0.872   1.923   0.000   0.000   2.795
  P               3   up:     0.870   1.958   0.000   0.000   2.828    -0.644        0.012
                  3   dn:     0.867   1.949   0.000   0.000   2.816
  P               4   up:     0.865   1.970   0.000   0.000   2.835    -0.579        0.091
                  4   dn:     0.862   1.882   0.000   0.000   2.744
  P               5   up:     0.867   1.974   0.000   0.000   2.842    -0.671        0.012
                  5   dn:     0.866   1.964   0.000   0.000   2.830
  P               6   up:     0.867   1.970   0.000   0.000   2.838    -0.674        0.001
                  6   dn:     0.867   1.969   0.000   0.000   2.836
  P               7   up:     0.867   1.980   0.000   0.000   2.847    -0.670        0.024
                  7   dn:     0.865   1.958   0.000   0.000   2.823
  P               8   up:     0.867   1.971   0.000   0.000   2.838    -0.675        0.000
                  8   dn:     0.867   1.970   0.000   0.000   2.837
  P               9   up:     0.867   1.980   0.000   0.000   2.847    -0.670        0.024
                  9   dn:     0.865   1.958   0.000   0.000   2.823
  P              10   up:     0.867   1.970   0.000   0.000   2.838    -0.674        0.001
                 10   dn:     0.867   1.969   0.000   0.000   2.836
  P              11   up:     0.867   1.974   0.000   0.000   2.842    -0.671        0.012
                 11   dn:     0.866   1.964   0.000   0.000   2.830
  P              12   up:     0.867   1.971   0.000   0.000   2.838    -0.675        0.000
                 12   dn:     0.867   1.970   0.000   0.000   2.837
  P              13   up:     0.867   1.970   0.000   0.000   2.837    -0.674        0.000
                 13   dn:     0.867   1.970   0.000   0.000   2.837
  P              14   up:     0.868   1.965   0.000   0.000   2.833    -0.665        0.000
                 14   dn:     0.868   1.965   0.000   0.000   2.832
  P              15   up:     0.867   1.970   0.000   0.000   2.837    -0.674        0.000
                 15   dn:     0.867   1.970   0.000   0.000   2.837
  P              16   up:     0.868   1.966   0.000   0.000   2.834    -0.664        0.003
                 16   dn:     0.868   1.962   0.000   0.000   2.830
  P              17   up:     0.869   1.978   0.000   0.000   2.847    -0.675        0.018
                 17   dn:     0.867   1.962   0.000   0.000   2.829
  P              18   up:     0.866   1.971   0.000   0.000   2.837    -0.676       -0.001
                 18   dn:     0.867   1.972   0.000   0.000   2.838
  P              19   up:     0.869   1.978   0.000   0.000   2.847    -0.675        0.018
                 19   dn:     0.867   1.962   0.000   0.000   2.829
  P              20   up:     0.866   1.972   0.000   0.000   2.838    -0.677       -0.001
                 20   dn:     0.866   1.972   0.000   0.000   2.839
  P              21   up:     0.866   1.972   0.000   0.000   2.839    -0.676        0.001
                 21   dn:     0.866   1.971   0.000   0.000   2.837
  P              22   up:     0.865   1.974   0.000   0.000   2.839    -0.676        0.003
                 22   dn:     0.865   1.972   0.000   0.000   2.837
  P              23   up:     0.867   1.972   0.000   0.000   2.839    -0.676        0.003
                 23   dn:     0.867   1.969   0.000   0.000   2.836
  P              24   up:     0.865   1.976   0.000   0.000   2.841    -0.678        0.004
                 24   dn:     0.864   1.972   0.000   0.000   2.837
  P              25   up:     0.867   1.972   0.000   0.000   2.839    -0.676        0.003
                 25   dn:     0.867   1.969   0.000   0.000   2.836
  P              26   up:     0.865   1.974   0.000   0.000   2.839    -0.676        0.003
                 26   dn:     0.865   1.972   0.000   0.000   2.837
  P              27   up:     0.866   1.972   0.000   0.000   2.839    -0.676        0.001
                 27   dn:     0.866   1.971   0.000   0.000   2.837
  P              28   up:     0.865   1.976   0.000   0.000   2.841    -0.678        0.004
                 28   dn:     0.864   1.972   0.000   0.000   2.837
  P              29   up:     0.867   1.969   0.000   0.000   2.837    -0.673        0.000
                 29   dn:     0.867   1.969   0.000   0.000   2.837
  P              30   up:     0.866   1.971   0.000   0.000   2.838    -0.676       -0.000
                 30   dn:     0.866   1.972   0.000   0.000   2.838
  P              31   up:     0.867   1.969   0.000   0.000   2.837    -0.673        0.000
                 31   dn:     0.867   1.969   0.000   0.000   2.837
  P              32   up:     0.867   1.971   0.000   0.000   2.838    -0.675        0.000
                 32   dn:     0.867   1.971   0.000   0.000   2.838
  P              33   up:     0.943   2.042   0.000   0.000   2.985    -0.312        0.658
                 33   dn:     0.927   1.400   0.000   0.000   2.327
  In              1   up:     0.441   0.722   4.995   0.000   6.158     0.682       -0.002
                  1   dn:     0.444   0.722   4.995   0.000   6.160
  In              2   up:     0.443   0.711   4.995   0.000   6.149     0.702       -0.001
                  2   dn:     0.440   0.715   4.994   0.000   6.150
  In              3   up:     0.454   0.719   4.995   0.000   6.168     0.676        0.011
                  3   dn:     0.447   0.714   4.995   0.000   6.156
  In              4   up:     0.443   0.711   4.995   0.000   6.149     0.702       -0.001
                  4   dn:     0.440   0.715   4.994   0.000   6.150
  In              5   up:     0.448   0.728   4.994   0.000   6.170     0.665        0.006
                  5   dn:     0.447   0.723   4.994   0.000   6.165
  In              6   up:     0.440   0.719   4.995   0.000   6.154     0.691       -0.001
                  6   dn:     0.441   0.720   4.995   0.000   6.155
  In              7   up:     0.451   0.735   4.994   0.000   6.180     0.642        0.002
                  7   dn:     0.451   0.733   4.994   0.000   6.178
  In              8   up:     0.439   0.713   4.995   0.000   6.146     0.707        0.000
                  8   dn:     0.437   0.715   4.994   0.000   6.146
  In              9   up:     0.448   0.728   4.994   0.000   6.170     0.665        0.006
                  9   dn:     0.447   0.723   4.994   0.000   6.165
  In             10   up:     0.439   0.713   4.995   0.000   6.146     0.707        0.000
                 10   dn:     0.437   0.715   4.994   0.000   6.146
  In             11   up:     0.451   0.735   4.994   0.000   6.180     0.642        0.002
                 11   dn:     0.451   0.733   4.994   0.000   6.178
  In             12   up:     0.440   0.719   4.995   0.000   6.154     0.691       -0.001
                 12   dn:     0.441   0.720   4.995   0.000   6.155
  In             13   up:     0.445   0.720   4.995   0.000   6.160     0.678       -0.003
                 13   dn:     0.448   0.720   4.995   0.000   6.163
  In             14   up:     0.442   0.720   4.995   0.000   6.157     0.684       -0.002
                 14   dn:     0.444   0.720   4.995   0.000   6.159
  In             15   up:     0.443   0.722   4.995   0.000   6.161     0.680        0.001
                 15   dn:     0.442   0.723   4.995   0.000   6.160
  In             16   up:     0.442   0.720   4.995   0.000   6.157     0.684       -0.002
                 16   dn:     0.444   0.720   4.995   0.000   6.159
  In             17   up:     0.442   0.737   4.994   0.000   6.173     0.651       -0.003
                 17   dn:     0.443   0.739   4.994   0.000   6.176
  In             18   up:     0.440   0.726   4.994   0.000   6.160     0.681        0.002
                 18   dn:     0.440   0.724   4.994   0.000   6.159
  In             19   up:     0.470   0.687   4.993   0.000   6.150     0.665       -0.036
                 19   dn:     0.487   0.708   4.992   0.000   6.186
  In             20   up:     0.440   0.726   4.994   0.000   6.160     0.681        0.002
                 20   dn:     0.440   0.724   4.994   0.000   6.159
  In             21   up:     0.447   0.717   4.995   0.000   6.159     0.688        0.005
                 21   dn:     0.442   0.716   4.995   0.000   6.154
  In             22   up:     0.441   0.723   4.995   0.000   6.159     0.683        0.000
                 22   dn:     0.441   0.723   4.995   0.000   6.158
  In             23   up:     0.445   0.719   4.995   0.000   6.159     0.680       -0.002
                 23   dn:     0.446   0.720   4.995   0.000   6.161
  In             24   up:     0.440   0.725   4.994   0.000   6.160     0.682        0.001
                 24   dn:     0.440   0.724   4.994   0.000   6.158
  In             25   up:     0.447   0.717   4.995   0.000   6.159     0.688        0.005
                 25   dn:     0.442   0.716   4.995   0.000   6.154
  In             26   up:     0.440   0.725   4.994   0.000   6.160     0.682        0.001
                 26   dn:     0.440   0.724   4.994   0.000   6.158
  In             27   up:     0.445   0.719   4.995   0.000   6.159     0.680       -0.002
                 27   dn:     0.446   0.720   4.995   0.000   6.161
  In             28   up:     0.441   0.723   4.995   0.000   6.159     0.683        0.000
                 28   dn:     0.441   0.723   4.995   0.000   6.158
  In             29   up:     0.446   0.730   4.994   0.000   6.170     0.658       -0.002
                 29   dn:     0.446   0.731   4.994   0.000   6.172
  In             30   up:     0.442   0.723   4.995   0.000   6.159     0.682        0.000
                 30   dn:     0.442   0.722   4.995   0.000   6.159
  In             31   up:     0.447   0.730   4.994   0.000   6.171     0.656       -0.001
                 31   dn:     0.448   0.730   4.994   0.000   6.172
  In             32   up:     0.442   0.723   4.995   0.000   6.159     0.682        0.000
                 32   dn:     0.442   0.722   4.995   0.000   6.159
==============================================================================================

                 Bond                   Population        Spin       Length (A)
================================================================================
              P 4  -- P 33                   0.17        -0.07          2.24701
              P 33 -- In 19                  1.15        -0.02          2.38004
              P 19 -- In 19                  0.70        -0.00          2.48446
              P 17 -- In 19                  0.70        -0.00          2.48446
              P 2  -- In 17                  0.72        -0.00          2.48799
              P 24 -- In 20                  0.69        -0.00          2.52239
              P 28 -- In 18                  0.69        -0.00          2.52239
              P 9  -- In 11                  0.65        -0.00          2.52601
              P 7  -- In 7                   0.65        -0.00          2.52601
              P 9  -- In 10                  0.65        -0.01          2.52683
              P 7  -- In 8                   0.65        -0.01          2.52683
              P 22 -- In 24                  0.68         0.00          2.52763
              P 26 -- In 26                  0.68         0.00          2.52763
              P 24 -- In 7                   0.64        -0.00          2.53008
              P 28 -- In 11                  0.64        -0.00          2.53008
              P 5  -- In 7                   0.65        -0.00          2.53152
              P 11 -- In 11                  0.65        -0.00          2.53153
              P 4  -- In 10                  0.63         0.01          2.53184
              P 4  -- In 8                   0.63         0.01          2.53184
              P 16 -- In 31                  0.65         0.00          2.53416
              P 26 -- In 11                  0.64        -0.00          2.53534
              P 22 -- In 7                   0.64        -0.00          2.53534
              P 4  -- In 29                  0.66        -0.00          2.53840
              P 14 -- In 31                  0.64         0.00          2.53892
              P 2  -- In 4                   0.69         0.00          2.54032
              P 2  -- In 2                   0.69         0.00          2.54032
              P 21 -- In 17                  0.64        -0.00          2.54047
              P 27 -- In 17                  0.64        -0.00          2.54047
              P 3  -- In 9                   0.65        -0.00          2.54093
              P 1  -- In 5                   0.65        -0.00          2.54093
              P 21 -- In 20                  0.67         0.00          2.54229
              P 27 -- In 18                  0.67         0.00          2.54229
              P 25 -- In 26                  0.66         0.00          2.54365
              P 23 -- In 24                  0.66         0.00          2.54365
              P 5  -- In 4                   0.64        -0.01          2.54371
              P 11 -- In 2                   0.64        -0.01          2.54371
              P 12 -- In 21                  0.67         0.00          2.54424
              P 8  -- In 25                  0.67         0.00          2.54424
              P 20 -- In 26                  0.66         0.00          2.54425
              P 20 -- In 24                  0.66         0.00          2.54425
              P 18 -- In 18                  0.67         0.00          2.54433
              P 18 -- In 20                  0.67         0.00          2.54433
              P 28 -- In 5                   0.65        -0.00          2.54532
              P 24 -- In 9                   0.65        -0.00          2.54532
              P 23 -- In 29                  0.64        -0.00          2.54549
              P 25 -- In 29                  0.64        -0.00          2.54549
              P 17 -- In 18                  0.61        -0.00          2.54566
              P 19 -- In 20                  0.61        -0.00          2.54566
              P 10 -- In 10                  0.66        -0.00          2.54569
              P 6  -- In 8                   0.66        -0.00          2.54569
              P 15 -- In 16                  0.67         0.00          2.54582
              P 13 -- In 14                  0.67         0.00          2.54582
              P 28 -- In 32                  0.67         0.00          2.54643
              P 24 -- In 30                  0.67         0.00          2.54643
              P 30 -- In 30                  0.67         0.00          2.54676
              P 30 -- In 32                  0.67         0.00          2.54676
              P 30 -- In 13                  0.66         0.00          2.54705
              P 3  -- In 3                   0.66        -0.00          2.54711
              P 1  -- In 3                   0.66        -0.00          2.54711
              P 11 -- In 1                   0.68        -0.00          2.54721
              P 5  -- In 1                   0.68        -0.00          2.54721
              P 31 -- In 32                  0.67        -0.00          2.54736
              P 29 -- In 30                  0.67        -0.00          2.54736
              P 26 -- In 28                  0.67         0.00          2.54809
              P 22 -- In 22                  0.67         0.00          2.54809
              P 31 -- In 22                  0.67         0.00          2.54862
              P 29 -- In 28                  0.67         0.00          2.54862
              P 9  -- In 13                  0.67        -0.00          2.54897
              P 7  -- In 13                  0.67        -0.00          2.54897
              P 13 -- In 12                  0.66         0.00          2.54931
              P 15 -- In 6                   0.66         0.00          2.54931
              P 27 -- In 28                  0.65        -0.00          2.54932
              P 21 -- In 22                  0.65        -0.00          2.54932
              P 20 -- In 13                  0.65         0.00          2.54933
              P 32 -- In 28                  0.67         0.00          2.54957
              P 12 -- In 2                   0.65         0.00          2.54957
              P 8  -- In 4                   0.65         0.00          2.54957
              P 32 -- In 22                  0.67         0.00          2.54957
              P 16 -- In 12                  0.69         0.00          2.54959
              P 16 -- In 6                   0.69         0.00          2.54959
              P 10 -- In 25                  0.66         0.00          2.54960
              P 6  -- In 21                  0.66         0.00          2.54960
              P 22 -- In 5                   0.65        -0.00          2.54963
              P 26 -- In 9                   0.65        -0.00          2.54963
              P 15 -- In 15                  0.66        -0.00          2.55027
              P 13 -- In 15                  0.66        -0.00          2.55027
              P 8  -- In 23                  0.67         0.00          2.55046
              P 12 -- In 27                  0.67         0.00          2.55046
              P 18 -- In 1                   0.65         0.00          2.55078
              P 30 -- In 15                  0.66        -0.00          2.55112
              P 23 -- In 30                  0.64        -0.00          2.55145
              P 25 -- In 32                  0.64        -0.00          2.55145
              P 32 -- In 15                  0.66        -0.00          2.55173
              P 14 -- In 14                  0.68         0.00          2.55186
              P 14 -- In 16                  0.68         0.00          2.55186
              P 10 -- In 27                  0.66         0.00          2.55250
              P 6  -- In 23                  0.66         0.00          2.55250
              P 16 -- In 17                  0.58         0.00          2.55323
              P 17 -- In 24                  0.62        -0.00          2.55349
              P 19 -- In 26                  0.62        -0.00          2.55349
              P 32 -- In 1                   0.65         0.00          2.55374
              P 27 -- In 27                  0.67         0.00          2.55430
              P 21 -- In 23                  0.67         0.00          2.55430
              P 25 -- In 27                  0.66         0.00          2.55461
              P 23 -- In 23                  0.66         0.00          2.55461
              P 5  -- In 6                   0.67         0.00          2.55505
              P 11 -- In 12                  0.67         0.00          2.55505
              P 9  -- In 16                  0.66         0.00          2.55749
              P 7  -- In 14                  0.66         0.00          2.55749
              P 20 -- In 3                   0.65         0.00          2.55799
              P 1  -- In 8                   0.64         0.01          2.55854
              P 3  -- In 10                  0.64         0.01          2.55854
              P 29 -- In 31                  0.64         0.00          2.56033
              P 31 -- In 31                  0.64         0.00          2.56033
              P 13 -- In 9                   0.65         0.00          2.56150
              P 15 -- In 5                   0.65         0.00          2.56150
              P 18 -- In 3                   0.65         0.00          2.56330
              P 12 -- In 16                  0.64         0.00          2.56407
              P 8  -- In 14                  0.64         0.00          2.56408
              P 6  -- In 6                   0.64         0.00          2.56486
              P 10 -- In 12                  0.64         0.00          2.56486
              P 1  -- In 2                   0.63         0.00          2.56526
              P 3  -- In 4                   0.63         0.00          2.56526
              P 17 -- In 21                  0.65         0.00          2.56592
              P 19 -- In 25                  0.65         0.00          2.56592
              P 31 -- In 21                  0.63        -0.00          2.56888
              P 29 -- In 25                  0.63        -0.00          2.56888
              P 14 -- In 29                  0.61         0.00          2.56913
              P 2  -- P 33                  -0.22        -0.04          2.60441
================================================================================

 Hirshfeld supercell size:           2           2           2
Standard grid dimensions: 240 240 240
Fine grid dimensions:     240 240 240


     Hirshfeld Analysis
     ------------------
Species   Ion     Hirshfeld Charge (e)  Spin (hbar/2)
===================================================
  P        1                -0.23        0.02
  P        2                -0.26        0.07
  P        3                -0.23        0.02
  P        4                -0.20        0.10
  P        5                -0.24        0.01
  P        6                -0.23        0.00
  P        7                -0.24        0.02
  P        8                -0.23        0.00
  P        9                -0.24        0.02
  P       10                -0.23        0.00
  P       11                -0.24        0.01
  P       12                -0.23        0.00
  P       13                -0.24        0.00
  P       14                -0.24        0.00
  P       15                -0.24        0.00
  P       16                -0.24        0.00
  P       17                -0.23        0.01
  P       18                -0.24        0.00
  P       19                -0.23        0.01
  P       20                -0.24        0.00
  P       21                -0.24        0.00
  P       22                -0.24        0.00
  P       23                -0.24        0.00
  P       24                -0.24        0.00
  P       25                -0.24        0.00
  P       26                -0.24        0.00
  P       27                -0.24        0.00
  P       28                -0.24        0.00
  P       29                -0.24        0.00
  P       30                -0.24        0.00
  P       31                -0.24        0.00
  P       32                -0.24        0.00
  P       33                -0.12        0.49
  In       1                 0.24        0.00
  In       2                 0.24        0.02
  In       3                 0.25        0.00
  In       4                 0.24        0.02
  In       5                 0.24        0.00
  In       6                 0.24        0.00
  In       7                 0.23        0.00
  In       8                 0.25        0.03
  In       9                 0.24        0.00
  In      10                 0.25        0.03
  In      11                 0.23        0.00
  In      12                 0.24        0.00
  In      13                 0.24        0.00
  In      14                 0.24        0.00
  In      15                 0.24        0.00
  In      16                 0.24        0.00
  In      17                 0.22        0.00
  In      18                 0.24        0.00
  In      19                 0.25        0.03
  In      20                 0.24        0.00
  In      21                 0.25        0.00
  In      22                 0.24        0.00
  In      23                 0.24        0.00
  In      24                 0.24        0.00
  In      25                 0.25        0.00
  In      26                 0.24        0.00
  In      27                 0.24        0.00
  In      28                 0.24        0.00
  In      29                 0.23        0.01
  In      30                 0.24        0.00
  In      31                 0.23       -0.00
  In      32                 0.24        0.00
===================================================

 
 A BibTeX formatted list of references used in this run has been written to 
 P_Interstitial_Migration_Dumbbell#_Dumbbell+_Singlepoints_3.bib
 
Initialisation time =     30.46 s
Calculation time    =   7845.94 s
Finalisation time   =    159.93 s
Total time          =   8036.33 s
Peak Memory Use     = 9659264 kB
 
Overall parallel efficiency rating: Terrible (34%)
 
Data was distributed by:-
G-vector (3-way); efficiency rating: Poor (36%)
k-point (36-way); efficiency rating: Very good (83%)
