 +-------------------------------------------------+
 |                                                 |
 |      CCC   AA    SSS  TTTTT  EEEEE  PPPP        |
 |     C     A  A  S       T    E      P   P       |
 |     C     AAAA   SS     T    EEE    PPPP        |
 |     C     A  A     S    T    E      P           |
 |      CCC  A  A  SSS     T    EEEEE  P           |
 |                                                 |
 +-------------------------------------------------+
 |                                                 |
 | Welcome to Academic Release CASTEP version 24.1 |
 | Ab Initio Total Energy Program                  |
 |                                                 |
 | Authors:                                        |
 | M. Segall, M. Probert, C. Pickard, P. Hasnip,   |
 | S. Clark, K. Refson, J. R. Yates,               |
 | A. Bartok-Partay, M. Payne                      |
 |                                                 |
 | Contributors:                                   |
 | P. Lindan, P. Haynes, J. White, V. Milman,      |
 | N. Govind, M. Gibson, P. Tulip, V. Cocula,      |
 | B. Montanari, D. Quigley, M. Glover,            |
 | L. Bernasconi, A. Perlov, M. Plummer,           |
 | E. McNellis, J. Meyer, J. Gale, D. Jochym       |
 | J. Aarons, B. Walker, R. Gillen, D. Jones       |
 | T. Green, I. J. Bush, C. J. Armstrong,          |
 | E. J. Higgins, E. L. Brown, M. S. McFly,        |
 | J. Wilkins, B-C. Shih, P. J. P. Byrne,          |
 | R. J. Maurer, J. C. Womack, J. Dziedzic,        |
 | L. LeBlanc, T. K. Stenczel, J. Kermode,         |
 | S. Sturniolo, B. Shi, B. Durham, M. Evans,      |
 | M. J. Smith, A. Tamerus, Z. Hawkhead,           |
 | V. Ravindran, T. Hollins, S. A. Joyce,          |
 | R. T. Strong, A. M. Reilly, S. J. Donaldson     |
 |                                                 |
 | Copyright (c) 2000 - 2023                       |
 |                                                 |
 |     Distributed under license from Cambridge    |
 |     Enterprise for academic use only.           |
 |                                                 |
 | Please cite                                     |
 |                                                 |
 |     "First principles methods using CASTEP"     |
 |                                                 |
 |         Zeitschrift fuer Kristallographie       |
 |           220(5-6) pp. 567-570 (2005)           |
 |                                                 |
 | S. J. Clark, M. D. Segall, C. J. Pickard,       |
 | P. J. Hasnip, M. J. Probert, K. Refson,         |
 | M. C. Payne                                     |
 |                                                 |
 |       in all publications arising from          |
 |              your use of CASTEP                 |
 |                                                 |
 +-------------------------------------------------+
 |                                                 |
 |              http://www.castep.org              |
 |                                                 |
 +-------------------------------------------------+



 Compiled for  GNU 11.2.0 on 04-04-2024 18:39:17
 from code version 6355fd106 Castep241_branch Thu Mar 7 17:56:19 2024 +0000
 Compiler: GNU Fortran 11.2.0; Optimisation: FAST
 Comms   : MPI VERSION : CRAY MPICH version 8.1.23.14 (ANL base 3.4a2)
 MATHLIBS: default (LAPACK version 3.10.1)
 FFT Lib : fftw3 version commercial-fftw-3.3.10-sse2-avx-avx2-avx2_128
 Fundamental constants values: CODATA 2018

 Run started: Wed, 02 Apr 2025 18:49:28 +0100

 Atomic calculation performed for P: 1s2 2s2 2p6 3s2 3p3

 Converged in 47 iterations to an ae energy of -9309.074 eV

   ============================================================                
   | Pseudopotential Report - Date of generation  2-04-2025   |                
   ------------------------------------------------------------                
   | Element: P Ionic charge:  5.00 Level of theory: RSCAN    |                
   | Atomic Solver: Koelling-Harmon                           |                
   |                                                          |                
   |               Reference Electronic Structure             |                
   |         Orbital         Occupation         Energy        |                
   |            3s              2.000           -0.535        |                
   |            3p              3.000           -0.209        |                
   |                                                          |                
   |                 Pseudopotential Definition               |                
   |        Beta     l      e      Rc     scheme   norm       |                
   |          1      0   -0.535   1.807     qc      0         |                
   |          2      0    0.250   1.807     qc      0         |                
   |          3      1   -0.209   1.807     qc      0         |                
   |          4      1    0.250   1.807     qc      0         |                
   |          5      2    0.000   1.807     qc      0         |                
   |          6      2    0.250   1.807     qc      0         |                
   |         loc     3    0.000   1.807     pn      0         |                
   |                                                          |                
   | Augmentation charge Rinner = 1.263                       |                
   | Partial core correction Rc = 1.263                       |                
   ------------------------------------------------------------                
   | "3|1.8|4|4|5|30:31:32"                                   |                
   ------------------------------------------------------------                
   |      Author: Chris J. Pickard, Cambridge University      |                
   ============================================================                
 Warning: otfg_output_psp cannot write out meta-GGA pseudopotentials presently.

 Atomic calculation performed for In:
 1s2 2s2 2p6 3s2 3p6 3d10 4s2 4p6 4d10 5s2 5p1

 Converged in 84 iterations to an ae energy of -160093.328 eV

   ============================================================                
   | Pseudopotential Report - Date of generation  2-04-2025   |                
   ------------------------------------------------------------                
   | Element: In Ionic charge: 13.00 Level of theory: RSCAN   |                
   | Atomic Solver: Koelling-Harmon                           |                
   |                                                          |                
   |               Reference Electronic Structure             |                
   |         Orbital         Occupation         Energy        |                
   |            4d             10.000           -0.711        |                
   |            5s              2.000           -0.313        |                
   |            5p              1.000           -0.095        |                
   |                                                          |                
   |                 Pseudopotential Definition               |                
   |        Beta     l      e      Rc     scheme   norm       |                
   |          1      0   -0.313   2.501     qc      0         |                
   |          2      0    0.250   2.501     qc      0         |                
   |          3      1   -0.095   2.501     qc      0         |                
   |          4      1    0.250   2.501     qc      0         |                
   |          5      2   -0.711   2.207     qc      0         |                
   |          6      2    0.250   2.207     qc      0         |                
   |         loc     3    0.000   2.501     pn      0         |                
   |                                                          |                
   | Augmentation charge Rinner = 1.504                       |                
   | Partial core correction Rc = 1.504                       |                
   ------------------------------------------------------------                
   | "3|2.5|2.5|1.5|7|8|9|50:51:42U2.2U2.2"                   |                
   ------------------------------------------------------------                
   |      Author: Chris J. Pickard, Cambridge University      |                
   ============================================================                
 Warning: otfg_output_psp cannot write out meta-GGA pseudopotentials presently.

 Pseudo atomic calculation performed for P 3s2 3p3

 Converged in 20 iterations to a total energy of -208.0292 eV

 Pseudo atomic calculation performed for In 4d10 5s2 5p1

 Converged in 32 iterations to a total energy of -1747.4501 eV
 Calculation parallelised over 108 processes.
 Data is distributed by G-vector(3-way) and k-point(36-way)
 Each process may use up to 16 threads.

 ************************************ Title ************************************
 

 ***************************** General Parameters ******************************
  
 output verbosity                               : normal  (1)
 write checkpoint data to                       : P_Vacancy_Antisite.check
 type of calculation                            : geometry optimization
 stress calculation                             : off
 density difference calculation                 : off
 electron localisation func (ELF) calculation   : off
 Hirshfeld analysis                             : on
 polarisation (Berry phase) analysis            : off
 molecular orbital projected DOS                : off
 deltaSCF calculation                           : off
 unlimited duration calculation
 timing information                             : on
 memory usage estimate                          : on
 write extra output files                       : on
 write final potential to formatted file        : off
 write final density to formatted file          : off
 write BibTeX reference list                    : on
 write OTFG pseudopotential files               : on
 write electrostatic potential file             : on
 write bands file                               : on
 checkpoint writing                             : off
  
 output         length unit                     : A
 output           mass unit                     : amu
 output           time unit                     : ps
 output         charge unit                     : e
 output           spin unit                     : hbar/2
 output         energy unit                     : eV
 output          force unit                     : eV/A
 output       velocity unit                     : A/ps
 output       pressure unit                     : GPa
 output     inv_length unit                     : 1/A
 output      frequency unit                     : cm-1
 output force constant unit                     : eV/A**2
 output         volume unit                     : A**3
 output   IR intensity unit                     : (D/A)**2/amu
 output         dipole unit                     : D
 output         efield unit                     : eV/A/e
 output        entropy unit                     : J/mol/K
 output    efield chi2 unit                     : pm/V
  
 wavefunctions paging                           : none
 random number generator seed                   :  184928645
 data distribution                              : optimal for this architecture
 optimization strategy                          : balance speed and memory

 *********************** Exchange-Correlation Parameters ***********************
  
 using functional                               : RSCAN
 relativistic treatment                         : Koelling-Harmon
 DFT+D: Semi-empirical dispersion correction    : off

 ************************* Pseudopotential Parameters **************************
  
 pseudopotential representation                 : reciprocal space
 <beta|phi> representation                      : reciprocal space
 spin-orbit coupling                            : off

 **************************** Basis Set Parameters *****************************
  
 plane wave basis set cut-off                   :   900.0000   eV
 size of standard grid                          :     2.0000
 size of   fine   gmax                          :    30.7390   1/A
 finite basis set correction                    : none

 **************************** Electronic Parameters ****************************
  
 number of  electrons                           :  571.0    
 net charge of system                           :  0.000    
 net spin   of system                           :  1.000    
 number of  up  spins                           :  286.0    
 number of down spins                           :  285.0    
 treating system as spin-polarized
 number of bands                                :        343

 ********************* Electronic Minimization Parameters **********************
  
 Method: Treating system as metallic with density mixing treatment of electrons,
         and number of  SD  steps               :          1
         and number of  CG  steps               :          4
  
 total energy / atom convergence tol.           : 0.1000E-06   eV
 eigen-energy convergence tolerance             : 0.2203E-07   eV
 max force / atom convergence tol.              : ignored
 convergence tolerance window                   :          3   cycles
 max. number of SCF cycles                      :         50
 number of fixed-spin iterations                :         10
 smearing scheme                                : Gaussian
 smearing width                                 : 0.2000       eV
 Fermi energy convergence tolerance             : 0.2721E-13   eV
 periodic dipole correction                     : NONE

 ************************** Density Mixing Parameters **************************
  
 density-mixing scheme                          : Pulay
 max. length of mixing history                  :         15
 charge density mixing amplitude                : 0.5000    
   spin density mixing amplitude                :  2.000    
 cut-off energy for mixing                      :  900.0       eV

 *********************** Population Analysis Parameters ************************
  
 Population analysis with cutoff                :  3.000       A
 Population analysis output                     : summary and pdos components

 ********************** Geometry Optimization Parameters ***********************
  
 optimization method                            : LBFGS
 max. no. of LBFGS updates                      : unbounded
 preconditioned LBFGS is activated
 preconditioner type                            : EXP
     stabilization constant                     :     0.1000
     parameter A                                :     3.0000
     nearest neighbor distance                  : automatic
     cut-off distance                           : automatic
     parameter mu                               : automatic
 variable cell method                           : fixed basis quality
 max. number of steps                           :         30
 estimated bulk modulus                         :  500.0       GPa
 estimated <frequency>                          :  1668.       cm-1
 geom line minimiser                            : on
 with line minimiser tolerance                  :     0.4000
  with spin fully able to relax for all steps
 total energy convergence tolerance             : 0.2000E-04   eV/atom
        max ionic |force| tolerance             : 0.1000E-02   eV/A
 max ionic |displacement| tolerance             : 0.1000E-02   A
   max |stress component| tolerance             : 0.1000       GPa
 convergence tolerance window                   :          2   steps
 backup results every                           :          5   steps
 write geom trajectory file                     : on

 *******************************************************************************
  

                           -------------------------------
                                      Unit Cell
                           -------------------------------
        Real Lattice(A)                      Reciprocal Lattice(1/A)
    11.8016820    -0.0000080    -0.0000080        0.532397442   0.000000361   0.000000361
    -0.0000080    11.8016820    -0.0000080        0.000000361   0.532397442   0.000000361
    -0.0000080    -0.0000080    11.8016820        0.000000361   0.000000361   0.532397442

                       Lattice parameters(A)       Cell Angles
                    a =     11.801682          alpha =   90.000078
                    b =     11.801682          beta  =   90.000078
                    c =     11.801682          gamma =   90.000078

                       Current cell volume =          1643.734705       A**3
                                   density =             2.819410   AMU/A**3
                                           =             4.681741     g/cm^3

                           -------------------------------
                                     Cell Contents
                           -------------------------------
                         Total number of ions in cell =   63
                      Total number of species in cell =    2
                        Max number of any one species =   32

            xxxxxxxxxxxxxxxxxxxxxxxxxxxxxxxxxxxxxxxxxxxxxxxxxxxxxxxxxxxx
            x  Element    Atom        Fractional coordinates of atoms  x
            x            Number           u          v          w      x
            x----------------------------------------------------------x
            x  P            1         0.127399   0.103570   0.358108   x 
            x  P            2         0.358108   0.103570   0.127399   x 
            x  P            3         0.126381   0.373908   0.126381   x 
            x  P            4         0.125677   0.125377   0.876687   x 
            x  P            5         0.372509   0.124855   0.627463   x 
            x  P            6         0.121886   0.374090   0.625887   x 
            x  P            7         0.375556   0.376613   0.874678   x 
            x  P            8         0.125446   0.628988   0.377056   x 
            x  P            9         0.377056   0.628988   0.125446   x 
            x  P           10         0.136966   0.886429   0.136966   x 
            x  P           11         0.364400   0.894178   0.364400   x 
            x  P           12         0.125693   0.626042   0.876437   x 
            x  P           13         0.371813   0.631243   0.624448   x 
            x  P           14         0.124307   0.877501   0.625338   x 
            x  P           15         0.375649   0.871624   0.876484   x 
            x  P           16         0.627463   0.124855   0.372509   x 
            x  P           17         0.876687   0.125377   0.125677   x 
            x  P           18         0.625887   0.374091   0.121886   x 
            x  P           19         0.874678   0.376613   0.375556   x 
            x  P           20         0.624827   0.126133   0.873970   x 
            x  P           21         0.873970   0.126133   0.624827   x 
            x  P           22         0.626186   0.379335   0.626186   x 
            x  P           23         0.876427   0.375524   0.876427   x 
            x  P           24         0.624448   0.631243   0.371813   x 
            x  P           25         0.876437   0.626042   0.125693   x 
            x  P           26         0.625338   0.877501   0.124307   x 
            x  P           27         0.876484   0.871624   0.375649   x 
            x  P           28         0.626436   0.626802   0.875047   x 
            x  P           29         0.875047   0.626802   0.626436   x 
            x  P           30         0.624234   0.876796   0.624234   x 
            x  P           31         0.877615   0.877202   0.877615   x 
            x  In           1         0.007020  -0.001369   0.007020   x 
            x  In           2         0.382752   0.345883   0.382752   x 
            x  In           3         0.003060   0.247278   0.254923   x 
            x  In           4         0.254923   0.247278   0.003060   x 
            x  In           5        -0.000733   0.001250   0.497071   x 
            x  In           6         0.250914  -0.002599   0.754473   x 
            x  In           7        -0.000847   0.249002   0.752706   x 
            x  In           8         0.220748   0.222276   0.506045   x 
            x  In           9         0.001651   0.499986   0.001651   x 
            x  In          10         0.247722   0.506660   0.247722   x 
            x  In          11         0.005864   0.754967   0.246151   x 
            x  In          12         0.246151   0.754967   0.005864   x 
            x  In          13        -0.000473   0.502445   0.500103   x 
            x  In          14         0.249866   0.501189   0.749074   x 
            x  In          15         0.001243   0.751834   0.751134   x 
            x  In          16         0.253417   0.762114   0.493211   x 
            x  In          17         0.497071   0.001250  -0.000733   x 
            x  In          18         0.754473  -0.002599   0.250914   x 
            x  In          19         0.506045   0.222277   0.220748   x 
            x  In          20         0.752706   0.249002  -0.000847   x 
            x  In          21         0.497008   0.001865   0.497008   x 
            x  In          22         0.750685  -0.000544   0.750685   x 
            x  In          23         0.499889   0.252379   0.748687   x 
            x  In          24         0.748687   0.252379   0.499889   x 
            x  In          25         0.500103   0.502445  -0.000473   x 
            x  In          26         0.749074   0.501189   0.249866   x 
            x  In          27         0.493211   0.762114   0.253417   x 
            x  In          28         0.751134   0.751834   0.001243   x 
            x  In          29         0.503189   0.511142   0.503189   x 
            x  In          30         0.752320   0.500901   0.752320   x 
            x  In          31         0.500451   0.751076   0.749666   x 
            x  In          32         0.749666   0.751076   0.500451   x 
            xxxxxxxxxxxxxxxxxxxxxxxxxxxxxxxxxxxxxxxxxxxxxxxxxxxxxxxxxxxx


                         No user defined ionic velocities

                           -------------------------------
                                   Details of Species
                           -------------------------------

                               Mass of species in AMU
                                    P   30.9737600
                                    In  114.8180000

                          Electric Quadrupole Moment (Barn)
                                    P    1.0000000 No Isotope Defined
                                    In    0.7700000 Isotope115

                          Files used for pseudopotentials:
                                    P 3|1.8|4|4|5|30:31:32
                                    In 3|2.5|2.5|1.5|7|8|9|50:51:42U2.2U2.2

                           -------------------------------
                              k-Points For BZ Sampling
                           -------------------------------
                       MP grid size for SCF calculation is  4  4  4
                            with an offset of   0.125  0.125  0.125
                       Number of kpoints used =            36

                           -------------------------------
                               Symmetry and Constraints
                           -------------------------------

                      Maximum deviation from symmetry =  0.00000         ANG

                      Number of symmetry operations   =           1
                      Number of ionic constraints     =           3
                      Point group of crystal =     1: C1, 1, 1
                      Space group of crystal =     8: Cm, C -2y

             Set iprint > 1 for details on symmetry rotations/translations

                         Centre of mass is constrained
             Set iprint > 1 for details of linear ionic constraints

                         Number of cell constraints= 6
                         Cell constraints are:  0 0 0 0 0 0

                         External pressure/stress (GPa)
                          0.00000   0.00000   0.00000
                                    0.00000   0.00000
                                              0.00000
 
+---------------- MEMORY AND SCRATCH DISK ESTIMATES PER PROCESS --------------+
|                                                     Memory          Disk    |
| Baseline code, static data and system overhead      368.0 MB         0.0 MB |
| BLAS internal memory storage                          0.0 MB         0.0 MB |
| Model and support data                             4302.1 MB         0.0 MB |
| Electronic energy minimisation requirements        1310.6 MB         0.0 MB |
| Force calculation requirements                      127.4 MB         0.0 MB |
|                                               ----------------------------- |
| Approx. total storage required per process         5980.7 MB         0.0 MB |
|                                                                             |
| Requirements will fluctuate during execution and may exceed these estimates |
+-----------------------------------------------------------------------------+
Calculating approximate eigenstates for fixed initial Hamiltonian
Cut-off for approx. calculation is   89.988 eV
Improving approx. states at cut-off of  450.000 eV
Resetting cut-off to  900.000 eV
Calculating total energy with cut-off of  900.000 eV.
------------------------------------------------------------------------ <-- SCF
SCF loop      Energy           Fermi           Energy gain       Timer   <-- SCF
                               energy          per atom          (sec)   <-- SCF
------------------------------------------------------------------------ <-- SCF
Initial  -6.28302489E+004  0.00000000E+000                       435.38  <-- SCF
      1  -6.25832003E+004  2.51261485E+000  -3.92140675E+000     882.60  <-- SCF
      2  -6.25835090E+004  2.51240009E+000   4.90120257E-003    1200.04  <-- SCF
      3  -6.26505070E+004  2.58897522E+000   1.06345914E+000    1544.25  <-- SCF
      4  -6.26626277E+004  2.63288041E+000   1.92392734E-001    2027.55  <-- SCF
      5  -6.26700200E+004  2.73985655E+000   1.17338474E-001    2372.88  <-- SCF
      6  -6.26587931E+004  2.87942403E+000  -1.78204873E-001    2709.59  <-- SCF
      7  -6.26574328E+004  2.92091135E+000  -2.15922711E-002    3069.20  <-- SCF
      8  -6.26573242E+004  2.94231102E+000  -1.72359336E-003    3433.41  <-- SCF
      9  -6.26579878E+004  2.94460344E+000   1.05331356E-002    3789.14  <-- SCF
     10  -6.26585603E+004  2.95050713E+000   9.08653106E-003    4136.32  <-- SCF
     11  -6.26586537E+004  2.94759865E+000   1.48231776E-003    4497.47  <-- SCF
     12  -6.26586781E+004  2.94613799E+000   3.88660667E-004    4863.81  <-- SCF
     13  -6.26586937E+004  2.94315038E+000   2.47373925E-004    5204.61  <-- SCF
     14  -6.26586945E+004  2.94208567E+000   1.17849512E-005    5522.50  <-- SCF
     15  -6.26586948E+004  2.94097932E+000   4.91821694E-006    5831.77  <-- SCF
     16  -6.26586950E+004  2.94049775E+000   3.29213338E-006    6129.55  <-- SCF
     17  -6.26586954E+004  2.93946999E+000   5.91123848E-006    6446.09  <-- SCF
     18  -6.26586958E+004  2.93838347E+000   6.49565122E-006    6777.48  <-- SCF
     19  -6.26586960E+004  2.93759111E+000   3.99019272E-006    7091.62  <-- SCF
     20  -6.26586963E+004  2.93636169E+000   4.18549423E-006    7428.73  <-- SCF
     21  -6.26586963E+004  2.93586623E+000   6.61050540E-007    7750.16  <-- SCF
     22  -6.26586963E+004  2.93569033E+000   1.08621460E-007    7997.95  <-- SCF
     23  -6.26586963E+004  2.93561933E+000   2.81279756E-008    8237.06  <-- SCF
     24  -6.26586963E+004  2.93555430E+000   1.12617968E-008    8476.35  <-- SCF
------------------------------------------------------------------------ <-- SCF
 
Integrated Spin Density     =     1.06136     hbar/2
Integrated |Spin Density|   =     1.44736     hbar/2
 
Final energy, E             =  -62658.43276571     eV
Final free energy (E-TS)    =  -62658.69633043     eV
(energies not corrected for finite basis set)
 
NB est. 0K energy (E-0.5TS)      =  -62658.56454807     eV
 
 
+---------------- MEMORY AND SCRATCH DISK ESTIMATES PER PROCESS --------------+
|                                                     Memory          Disk    |
| Model and support data                             2743.6 MB         0.0 MB |
| Electronic energy minimisation requirements        1310.6 MB         0.0 MB |
| Geometry minimisation requirements                 1684.8 MB         0.0 MB |
|                                               ----------------------------- |
| Approx. total storage required per process         5739.0 MB         0.0 MB |
|                                                                             |
| Requirements will fluctuate during execution and may exceed these estimates |
+-----------------------------------------------------------------------------+
 

 ************************************** Forces **************************************
 *                                                                                  *
 *                           Cartesian components (eV/A)                            *
 * -------------------------------------------------------------------------------- *
 *                         x                    y                    z              *
 *                                                                                  *
 * P               1      0.23104              0.13376             -0.09288         *
 * P               2     -0.09287              0.13376              0.23104         *
 * P               3      0.09772             -0.09012              0.09772         *
 * P               4      0.02374              0.07725             -0.04318         *
 * P               5      0.16835              0.10466             -0.12280         *
 * P               6      0.19668              0.13569             -0.13838         *
 * P               7     -0.06862              0.04292              0.02222         *
 * P               8      0.11925             -0.19073              0.10966         *
 * P               9      0.10966             -0.19072              0.11924         *
 * P              10     -0.00580             -0.10157             -0.00581         *
 * P              11      0.03512             -0.13570              0.03512         *
 * P              12      0.04120             -0.05982             -0.02883         *
 * P              13     -0.07812             -0.15367             -0.09757         *
 * P              14      0.01530             -0.02883             -0.00038         *
 * P              15      0.00059              0.01532             -0.01513         *
 * P              16     -0.12280              0.10466              0.16836         *
 * P              17     -0.04318              0.07725              0.02374         *
 * P              18     -0.13838              0.13569              0.19667         *
 * P              19      0.02222              0.04292             -0.06861         *
 * P              20     -0.02422             -0.02194             -0.04851         *
 * P              21     -0.04851             -0.02194             -0.02422         *
 * P              22     -0.13847             -0.13418             -0.13846         *
 * P              23      0.02108              0.02781              0.02108         *
 * P              24     -0.09758             -0.15368             -0.07812         *
 * P              25     -0.02882             -0.05981              0.04120         *
 * P              26     -0.00038             -0.02883              0.01530         *
 * P              27     -0.01512              0.01532              0.00058         *
 * P              28     -0.01777             -0.01786              0.00843         *
 * P              29      0.00843             -0.01786             -0.01776         *
 * P              30     -0.00585              0.03680             -0.00585         *
 * P              31     -0.02520              0.01450             -0.02520         *
 * In              1      0.00610             -0.20479              0.00610         *
 * In              2     -0.06981              0.29041             -0.06981         *
 * In              3     -0.02918             -0.09532              0.11053         *
 * In              4      0.11054             -0.09532             -0.02917         *
 * In              5      0.02774              0.13092              0.16940         *
 * In              6     -0.22765             -0.01150             -0.01370         *
 * In              7     -0.04875             -0.21547             -0.00585         *
 * In              8     -0.31226             -0.21753              0.23246         *
 * In              9     -0.00807              0.18014             -0.00807         *
 * In             10     -0.28094              0.24310             -0.28093         *
 * In             11      0.05465              0.11622             -0.31348         *
 * In             12     -0.31348              0.11621              0.05466         *
 * In             13     -0.05575             -0.05087             -0.04108         *
 * In             14      0.03195             -0.02578              0.07601         *
 * In             15     -0.02214              0.05213              0.05487         *
 * In             16      0.14126              0.12071             -0.03123         *
 * In             17      0.16939              0.13092              0.02775         *
 * In             18     -0.01370             -0.01150             -0.22765         *
 * In             19      0.23245             -0.21753             -0.31226         *
 * In             20     -0.00585             -0.21547             -0.04875         *
 * In             21     -0.17341             -0.31413             -0.17341         *
 * In             22      0.04743              0.02966              0.04743         *
 * In             23     -0.02546             -0.00166              0.13160         *
 * In             24      0.13161             -0.00166             -0.02546         *
 * In             25     -0.04108             -0.05087             -0.05574         *
 * In             26      0.07601             -0.02578              0.03196         *
 * In             27     -0.03123              0.12071              0.14126         *
 * In             28      0.05487              0.05213             -0.02215         *
 * In             29      0.27731              0.28296              0.27730         *
 * In             30      0.02826              0.16266              0.02827         *
 * In             31      0.13786              0.01763             -0.00741         *
 * In             32     -0.00741              0.01763              0.13787         *
 *                                                                                  *
 ************************************************************************************
 EXP precond LBFGS => estimated nearest neighbor distance :  2.801       A
 EXP precond LBFGS => estimated cutoff distance :  5.602       A

 ************************************** Forces **************************************
 *                                                                                  *
 *                           Cartesian components (eV/A)                            *
 * -------------------------------------------------------------------------------- *
 *                         x                    y                    z              *
 *                                                                                  *
 * P               1      0.23104              0.13376             -0.09288         *
 * P               2     -0.09287              0.13376              0.23104         *
 * P               3      0.09772             -0.09012              0.09772         *
 * P               4      0.02374              0.07725             -0.04318         *
 * P               5      0.16835              0.10466             -0.12280         *
 * P               6      0.19668              0.13569             -0.13838         *
 * P               7     -0.06862              0.04292              0.02222         *
 * P               8      0.11925             -0.19073              0.10966         *
 * P               9      0.10966             -0.19072              0.11924         *
 * P              10     -0.00580             -0.10157             -0.00581         *
 * P              11      0.03512             -0.13570              0.03512         *
 * P              12      0.04120             -0.05982             -0.02883         *
 * P              13     -0.07812             -0.15367             -0.09757         *
 * P              14      0.01530             -0.02883             -0.00038         *
 * P              15      0.00059              0.01532             -0.01513         *
 * P              16     -0.12280              0.10466              0.16836         *
 * P              17     -0.04318              0.07725              0.02374         *
 * P              18     -0.13838              0.13569              0.19667         *
 * P              19      0.02222              0.04292             -0.06861         *
 * P              20     -0.02422             -0.02194             -0.04851         *
 * P              21     -0.04851             -0.02194             -0.02422         *
 * P              22     -0.13847             -0.13418             -0.13846         *
 * P              23      0.02108              0.02781              0.02108         *
 * P              24     -0.09758             -0.15368             -0.07812         *
 * P              25     -0.02882             -0.05981              0.04120         *
 * P              26     -0.00038             -0.02883              0.01530         *
 * P              27     -0.01512              0.01532              0.00058         *
 * P              28     -0.01777             -0.01786              0.00843         *
 * P              29      0.00843             -0.01786             -0.01776         *
 * P              30     -0.00585              0.03680             -0.00585         *
 * P              31     -0.02520              0.01450             -0.02520         *
 * In              1      0.00610             -0.20479              0.00610         *
 * In              2     -0.06981              0.29041             -0.06981         *
 * In              3     -0.02918             -0.09532              0.11053         *
 * In              4      0.11054             -0.09532             -0.02917         *
 * In              5      0.02774              0.13092              0.16940         *
 * In              6     -0.22765             -0.01150             -0.01370         *
 * In              7     -0.04875             -0.21547             -0.00585         *
 * In              8     -0.31226             -0.21753              0.23246         *
 * In              9     -0.00807              0.18014             -0.00807         *
 * In             10     -0.28094              0.24310             -0.28093         *
 * In             11      0.05465              0.11622             -0.31348         *
 * In             12     -0.31348              0.11621              0.05466         *
 * In             13     -0.05575             -0.05087             -0.04108         *
 * In             14      0.03195             -0.02578              0.07601         *
 * In             15     -0.02214              0.05213              0.05487         *
 * In             16      0.14126              0.12071             -0.03123         *
 * In             17      0.16939              0.13092              0.02775         *
 * In             18     -0.01370             -0.01150             -0.22765         *
 * In             19      0.23245             -0.21753             -0.31226         *
 * In             20     -0.00585             -0.21547             -0.04875         *
 * In             21     -0.17341             -0.31413             -0.17341         *
 * In             22      0.04743              0.02966              0.04743         *
 * In             23     -0.02546             -0.00166              0.13160         *
 * In             24      0.13161             -0.00166             -0.02546         *
 * In             25     -0.04108             -0.05087             -0.05574         *
 * In             26      0.07601             -0.02578              0.03196         *
 * In             27     -0.03123              0.12071              0.14126         *
 * In             28      0.05487              0.05213             -0.02215         *
 * In             29      0.27731              0.28296              0.27730         *
 * In             30      0.02826              0.16266              0.02827         *
 * In             31      0.13786              0.01763             -0.00741         *
 * In             32     -0.00741              0.01763              0.13787         *
 *                                                                                  *
 ************************************************************************************
 doing test perturbation to get energy scale for EXP preconditioner

                           -------------------------------
                                     Cell Contents
                           -------------------------------

            xxxxxxxxxxxxxxxxxxxxxxxxxxxxxxxxxxxxxxxxxxxxxxxxxxxxxxxxxxxxxxxxx
            x  Element         Atom        Fractional coordinates of atoms  x
            x                 Number           u          v          w      x
            x---------------------------------------------------------------x
            x  P                 1         0.127701   0.103815   0.358941   x
            x  P                 2         0.358941   0.103816   0.127701   x
            x  P                 3         0.126681   0.374777   0.126681   x
            x  P                 4         0.125975   0.125675   0.878514   x
            x  P                 5         0.373375   0.125151   0.628858   x
            x  P                 6         0.122175   0.374959   0.627280   x
            x  P                 7         0.376428   0.377487   0.876501   x
            x  P                 8         0.125744   0.630387   0.377931   x
            x  P                 9         0.377931   0.630387   0.125744   x
            x  P                10         0.137291   0.888270   0.137291   x
            x  P                11         0.365248   0.896031   0.365248   x
            x  P                12         0.125991   0.627435   0.878263   x
            x  P                13         0.372677   0.632645   0.625838   x
            x  P                14         0.124601   0.879329   0.626729   x
            x  P                15         0.376521   0.873443   0.878310   x
            x  P                16         0.628858   0.125151   0.373375   x
            x  P                17         0.878514   0.125675   0.125975   x
            x  P                18         0.627280   0.374959   0.122175   x
            x  P                19         0.876501   0.377487   0.376428   x
            x  P                20         0.626217   0.126432   0.875793   x
            x  P                21         0.875793   0.126432   0.626217   x
            x  P                22         0.627579   0.380215   0.627579   x
            x  P                23         0.878253   0.376396   0.878253   x
            x  P                24         0.625838   0.632645   0.372677   x
            x  P                25         0.878263   0.627435   0.125991   x
            x  P                26         0.626729   0.879329   0.124601   x
            x  P                27         0.878310   0.873443   0.376521   x
            x  P                28         0.627830   0.628196   0.876871   x
            x  P                29         0.876871   0.628196   0.627830   x
            x  P                30         0.625623   0.878623   0.625623   x
            x  P                31         0.879443   0.879029   0.879443   x
            x  In                1         0.007036   1.000628   0.007036   x
            x  In                2         0.383640   0.346689   0.383640   x
            x  In                3         0.003067   0.247860   0.255523   x
            x  In                4         0.255523   0.247860   0.003067   x
            x  In                5         1.001265   0.001253   0.498205   x
            x  In                6         0.251505   0.999397   0.756101   x
            x  In                7         1.001151   0.249588   0.754330   x
            x  In                8         0.221268   0.222800   0.507197   x
            x  In                9         0.001655   0.501126   0.001655   x
            x  In               10         0.248305   0.507814   0.248305   x
            x  In               11         0.005878   0.756596   0.246730   x
            x  In               12         0.246730   0.756596   0.005878   x
            x  In               13         1.001526   0.503590   0.501243   x
            x  In               14         0.250454   0.502331   0.750692   x
            x  In               15         0.001246   0.753458   0.752756   x
            x  In               16         0.254013   0.763755   0.494336   x
            x  In               17         0.498205   0.001253   1.001265   x
            x  In               18         0.756101   0.999397   0.251505   x
            x  In               19         0.507197   0.222801   0.221269   x
            x  In               20         0.754330   0.249588   1.001151   x
            x  In               21         0.498142   0.001869   0.498142   x
            x  In               22         0.752306   1.001454   0.752306   x
            x  In               23         0.501028   0.252973   0.750305   x
            x  In               24         0.750305   0.252973   0.501028   x
            x  In               25         0.501243   0.503590   1.001525   x
            x  In               26         0.750692   0.502331   0.250454   x
            x  In               27         0.494336   0.763755   0.254013   x
            x  In               28         0.752756   0.753458   0.001246   x
            x  In               29         0.504335   0.512305   0.504335   x
            x  In               30         0.753944   0.502043   0.753944   x
            x  In               31         0.501592   0.752698   0.751285   x
            x  In               32         0.751285   0.752698   0.501592   x
            xxxxxxxxxxxxxxxxxxxxxxxxxxxxxxxxxxxxxxxxxxxxxxxxxxxxxxxxxxxxxxxxx


------------------------------------------------------------------------ <-- SCF
SCF loop      Energy           Fermi           Energy gain       Timer   <-- SCF
                               energy          per atom          (sec)   <-- SCF
------------------------------------------------------------------------ <-- SCF
Initial  -6.26552004E+004  0.00000000E+000                      8965.25  <-- SCF
      1  -6.26582820E+004  2.94056576E+000   4.89135663E-002    9367.45  <-- SCF
      2  -6.26586528E+004  2.94049151E+000   5.88605000E-003    9771.26  <-- SCF
      3  -6.26586579E+004  2.94062918E+000   8.11473151E-005   10122.78  <-- SCF
      4  -6.26586606E+004  2.94052132E+000   4.21220666E-005   10478.15  <-- SCF
      5  -6.26586611E+004  2.94063599E+000   8.23475678E-006   10846.23  <-- SCF
      6  -6.26586613E+004  2.94082803E+000   2.41345298E-006   11152.34  <-- SCF
      7  -6.26586613E+004  2.94086809E+000   6.16696314E-007   11424.81  <-- SCF
      8  -6.26586613E+004  2.94087289E+000   1.03713574E-007   11670.30  <-- SCF
      9  -6.26586613E+004  2.94087319E+000   4.28351326E-008   11923.88  <-- SCF
     10  -6.26586613E+004  2.94078215E+000   4.32038084E-008   12171.34  <-- SCF
     11  -6.26586613E+004  2.94072381E+000   2.30146374E-008   12414.03  <-- SCF
------------------------------------------------------------------------ <-- SCF
 
Integrated Spin Density     =     1.06843     hbar/2
Integrated |Spin Density|   =     1.48583     hbar/2
 
Final energy, E             =  -62658.39626616     eV
Final free energy (E-TS)    =  -62658.66130883     eV
(energies not corrected for finite basis set)
 
NB est. 0K energy (E-0.5TS)      =  -62658.52878749     eV
 

 ************************************** Forces **************************************
 *                                                                                  *
 *                           Cartesian components (eV/A)                            *
 * -------------------------------------------------------------------------------- *
 *                         x                    y                    z              *
 *                                                                                  *
 * P               1      0.27526              0.20944             -0.11064         *
 * P               2     -0.11064              0.20945              0.27526         *
 * P               3      0.12101             -0.09459              0.12101         *
 * P               4      0.09028              0.16389             -0.12686         *
 * P               5      0.19471              0.16694             -0.15625         *
 * P               6      0.29327              0.13424             -0.13008         *
 * P               7     -0.03192              0.07480             -0.04296         *
 * P               8      0.18916             -0.15958              0.07032         *
 * P               9      0.07032             -0.15957              0.18915         *
 * P              10     -0.01669             -0.14130             -0.01670         *
 * P              11      0.01993             -0.19316              0.01993         *
 * P              12      0.06659             -0.05270             -0.14383         *
 * P              13     -0.07438             -0.15383             -0.09025         *
 * P              14      0.11929             -0.13772              0.08323         *
 * P              15     -0.00309             -0.02704             -0.13399         *
 * P              16     -0.15626              0.16694              0.19472         *
 * P              17     -0.12686              0.16389              0.09028         *
 * P              18     -0.13008              0.13424              0.29327         *
 * P              19     -0.04296              0.07480             -0.03192         *
 * P              20     -0.05749              0.04771             -0.02875         *
 * P              21     -0.02875              0.04771             -0.05749         *
 * P              22     -0.13749             -0.13790             -0.13748         *
 * P              23     -0.08446             -0.05021             -0.08446         *
 * P              24     -0.09025             -0.15384             -0.07439         *
 * P              25     -0.14382             -0.05269              0.06659         *
 * P              26      0.08324             -0.13772              0.11929         *
 * P              27     -0.13398             -0.02704             -0.00310         *
 * P              28     -0.05359             -0.05804             -0.05512         *
 * P              29     -0.05512             -0.05803             -0.05358         *
 * P              30      0.03495             -0.03000              0.03494         *
 * P              31     -0.13894             -0.00300             -0.13894         *
 * In              1      0.12026             -0.33135              0.12026         *
 * In              2     -0.07147              0.28407             -0.07147         *
 * In              3      0.08893             -0.07914              0.11551         *
 * In              4      0.11552             -0.07915              0.08893         *
 * In              5     -0.04967              0.22897              0.17918         *
 * In              6     -0.20502             -0.10052             -0.03552         *
 * In              7     -0.14709             -0.19828             -0.03199         *
 * In              8     -0.28659             -0.21313              0.21021         *
 * In              9      0.10547              0.18061              0.10546         *
 * In             10     -0.29571              0.24554             -0.29570         *
 * In             11      0.15554              0.11397             -0.31798         *
 * In             12     -0.31798              0.11396              0.15555         *
 * In             13     -0.13092             -0.04896             -0.04574         *
 * In             14      0.04220             -0.01834              0.06804         *
 * In             15      0.08550              0.04201              0.03476         *
 * In             16      0.14341              0.10972             -0.03259         *
 * In             17      0.17918              0.22898             -0.04967         *
 * In             18     -0.03552             -0.10052             -0.20502         *
 * In             19      0.21021             -0.21313             -0.28659         *
 * In             20     -0.03199             -0.19828             -0.14709         *
 * In             21     -0.17366             -0.25100             -0.17366         *
 * In             22      0.02835             -0.03404              0.02835         *
 * In             23     -0.01987              0.00248              0.12710         *
 * In             24      0.12711              0.00248             -0.01987         *
 * In             25     -0.04573             -0.04896             -0.13092         *
 * In             26      0.06803             -0.01834              0.04220         *
 * In             27     -0.03259              0.10972              0.14342         *
 * In             28      0.03476              0.04201              0.08550         *
 * In             29      0.27902              0.28560              0.27901         *
 * In             30      0.01082              0.15429              0.01082         *
 * In             31      0.13112              0.01130             -0.02282         *
 * In             32     -0.02283              0.01131              0.13113         *
 *                                                                                  *
 ************************************************************************************
 EXP precond LBFGS => estimated parameter mu :  1.000       eV/A**2
 LBFGS: finished iteration     0 with enthalpy= -6.26586963E+004 eV
  
 +-----------+-----------------+-----------------+------------+-----+ <-- LBFGS
 | Parameter |      value      |    tolerance    |    units   | OK? | <-- LBFGS
 +-----------+-----------------+-----------------+------------+-----+ <-- LBFGS
 |  dE/ion   |   0.000000E+000 |   2.000000E-005 |         eV | No  | <-- LBFGS
 |  |F|max   |   4.871045E-001 |   1.000000E-003 |       eV/A | No  | <-- LBFGS
 |  |dR|max  |   4.197986E-015 |   1.000000E-003 |          A | No  | <-- LBFGS
 +-----------+-----------------+-----------------+------------+-----+ <-- LBFGS
  

================================================================================
 Starting LBFGS iteration          1 ...
================================================================================
  
 +------------+-------------+-------------+-----------------+ <-- min LBFGS
 |    Step    |   lambda    |   F.delta'  |    enthalpy     | <-- min LBFGS
 +------------+-------------+-------------+-----------------+ <-- min LBFGS
 |  previous  |    0.000000 |    0.701510 |   -62658.696330 | <-- min LBFGS
 +------------+-------------+-------------+-----------------+ <-- min LBFGS
  

--------------------------------------------------------------------------------
 LBFGS: starting iteration         1 with trial guess (lambda=  1.000000)
--------------------------------------------------------------------------------

                           -------------------------------
                                     Cell Contents
                           -------------------------------

            xxxxxxxxxxxxxxxxxxxxxxxxxxxxxxxxxxxxxxxxxxxxxxxxxxxxxxxxxxxxxxxxx
            x  Element         Atom        Fractional coordinates of atoms  x
            x                 Number           u          v          w      x
            x---------------------------------------------------------------x
            x  P                 1         0.129407   0.104701   0.357661   x
            x  P                 2         0.357661   0.104701   0.129407   x
            x  P                 3         0.127074   0.373366   0.127074   x
            x  P                 4         0.125651   0.125437   0.876337   x
            x  P                 5         0.373285   0.125317   0.626445   x
            x  P                 6         0.123444   0.374925   0.624797   x
            x  P                 7         0.374968   0.376817   0.875124   x
            x  P                 8         0.126508   0.627717   0.377250   x
            x  P                 9         0.377250   0.627717   0.126508   x
            x  P                10         0.136599   0.885436   0.136599   x
            x  P                11         0.364706   0.892648   0.364706   x
            x  P                12         0.125699   0.625808   0.876327   x
            x  P                13         0.371732   0.630305   0.623913   x
            x  P                14         0.124417   0.877422   0.625459   x
            x  P                15         0.375320   0.871958   0.876507   x
            x  P                16         0.626445   0.125317   0.373285   x
            x  P                17         0.876337   0.125437   0.125651   x
            x  P                18         0.624797   0.374925   0.123444   x
            x  P                19         0.875124   0.376817   0.374968   x
            x  P                20         0.624725   0.125781   0.873703   x
            x  P                21         0.873703   0.125782   0.624725   x
            x  P                22         0.625335   0.378628   0.625335   x
            x  P                23         0.876605   0.375584   0.876605   x
            x  P                24         0.623913   0.630305   0.371732   x
            x  P                25         0.876328   0.625808   0.125699   x
            x  P                26         0.625459   0.877422   0.124417   x
            x  P                27         0.876507   0.871958   0.375320   x
            x  P                28         0.626414   0.626887   0.875259   x
            x  P                29         0.875259   0.626887   0.626414   x
            x  P                30         0.624201   0.876830   0.624201   x
            x  P                31         0.877414   0.877197   0.877414   x
            x  In                1         0.006873  -0.003424   0.006873   x
            x  In                2         0.382010   0.349191   0.382011   x
            x  In                3         0.003092   0.246504   0.255880   x
            x  In                4         0.255880   0.246504   0.003092   x
            x  In                5        -0.000263   0.002488   0.498470   x
            x  In                6         0.248880  -0.002723   0.754277   x
            x  In                7        -0.001121   0.247058   0.752522   x
            x  In                8         0.218300   0.220834   0.507819   x
            x  In                9         0.001619   0.501505   0.001619   x
            x  In               10         0.245228   0.508954   0.245228   x
            x  In               11         0.006403   0.755811   0.243135   x
            x  In               12         0.243135   0.755811   0.006403   x
            x  In               13        -0.000554   0.501987   0.499480   x
            x  In               14         0.250287   0.500975   0.749712   x
            x  In               15         0.001027   0.752342   0.751650   x
            x  In               16         0.254896   0.762823   0.492872   x
            x  In               17         0.498470   0.002488  -0.000263   x
            x  In               18         0.754277  -0.002723   0.248880   x
            x  In               19         0.507819   0.220835   0.218300   x
            x  In               20         0.752522   0.247058  -0.001121   x
            x  In               21         0.495400  -0.001121   0.495400   x
            x  In               22         0.751069  -0.000477   0.751069   x
            x  In               23         0.499543   0.252321   0.749733   x
            x  In               24         0.749733   0.252321   0.499543   x
            x  In               25         0.499480   0.501987  -0.000555   x
            x  In               26         0.749712   0.500975   0.250287   x
            x  In               27         0.492872   0.762823   0.254896   x
            x  In               28         0.751650   0.752342   0.001027   x
            x  In               29         0.505624   0.513928   0.505624   x
            x  In               30         0.752581   0.502315   0.752581   x
            x  In               31         0.501629   0.751225   0.749638   x
            x  In               32         0.749638   0.751225   0.501629   x
            xxxxxxxxxxxxxxxxxxxxxxxxxxxxxxxxxxxxxxxxxxxxxxxxxxxxxxxxxxxxxxxxx


------------------------------------------------------------------------ <-- SCF
SCF loop      Energy           Fermi           Energy gain       Timer   <-- SCF
                               energy          per atom          (sec)   <-- SCF
------------------------------------------------------------------------ <-- SCF
Initial  -6.26524240E+004  0.00000000E+000                     12685.40  <-- SCF
      1  -6.26581890E+004  2.97842424E+000   9.15081170E-002   13083.36  <-- SCF
      2  -6.26588666E+004  2.97827862E+000   1.07557567E-002   13485.96  <-- SCF
      3  -6.26588594E+004  2.98124494E+000  -1.13987463E-004   13848.80  <-- SCF
      4  -6.26588624E+004  2.97919761E+000   4.72414619E-005   14255.49  <-- SCF
      5  -6.26588637E+004  2.97847429E+000   2.07168595E-005   14634.39  <-- SCF
      6  -6.26588646E+004  2.97871647E+000   1.42733414E-005   15000.58  <-- SCF
      7  -6.26588648E+004  2.97919734E+000   2.72150523E-006   15320.09  <-- SCF
      8  -6.26588648E+004  2.97942797E+000   7.54274042E-007   15597.55  <-- SCF
      9  -6.26588649E+004  2.97959227E+000   3.74640947E-007   15843.55  <-- SCF
     10  -6.26588651E+004  2.98118060E+000   3.91784722E-006   16097.08  <-- SCF
     11  -6.26588653E+004  2.98190927E+000   2.32924661E-006   16394.11  <-- SCF
     12  -6.26588654E+004  2.98211037E+000   1.45421742E-006   16662.91  <-- SCF
     13  -6.26588654E+004  2.98246338E+000   1.25946647E-006   16931.64  <-- SCF
     14  -6.26588655E+004  2.98297923E+000   1.43637720E-006   17224.49  <-- SCF
     15  -6.26588656E+004  2.98355396E+000   1.38918946E-006   17517.41  <-- SCF
     16  -6.26588657E+004  2.98429924E+000   1.24094095E-006   17820.93  <-- SCF
     17  -6.26588657E+004  2.98466796E+000   3.74691033E-007   18097.76  <-- SCF
     18  -6.26588657E+004  2.98492363E+000   1.79439023E-007   18348.60  <-- SCF
     19  -6.26588657E+004  2.98503392E+000   4.98637383E-008   18589.72  <-- SCF
     20  -6.26588657E+004  2.98511992E+000   3.96702566E-008   18827.98  <-- SCF
------------------------------------------------------------------------ <-- SCF
 
Integrated Spin Density     =    0.827423     hbar/2
Integrated |Spin Density|   =     1.06225     hbar/2
 
Final energy, E             =  -62658.65372605     eV
Final free energy (E-TS)    =  -62658.86573160     eV
(energies not corrected for finite basis set)
 
NB est. 0K energy (E-0.5TS)      =  -62658.75972883     eV
 

 ************************************** Forces **************************************
 *                                                                                  *
 *                           Cartesian components (eV/A)                            *
 * -------------------------------------------------------------------------------- *
 *                         x                    y                    z              *
 *                                                                                  *
 * P               1      0.11751             -0.02713             -0.06124         *
 * P               2     -0.06124             -0.02713              0.11751         *
 * P               3     -0.03404             -0.09154             -0.03404         *
 * P               4     -0.01055              0.02514              0.09795         *
 * P               5      0.08199              0.01638             -0.08160         *
 * P               6      0.02279              0.05081              0.01550         *
 * P               7     -0.02699             -0.01621              0.00226         *
 * P               8     -0.01757              0.06422              0.08703         *
 * P               9      0.08703              0.06422             -0.01757         *
 * P              10      0.05947              0.14380              0.05947         *
 * P              11     -0.10567             -0.00050             -0.10567         *
 * P              12      0.04853             -0.03170             -0.08542         *
 * P              13     -0.08759             -0.00396              0.06992         *
 * P              14     -0.01181             -0.09582             -0.07131         *
 * P              15      0.01147              0.02813              0.04453         *
 * P              16     -0.08160              0.01638              0.08199         *
 * P              17      0.09795              0.02514             -0.01055         *
 * P              18      0.01550              0.05080              0.02279         *
 * P              19      0.00226             -0.01621             -0.02699         *
 * P              20     -0.00123              0.00496             -0.07287         *
 * P              21     -0.07287              0.00496             -0.00123         *
 * P              22      0.01894             -0.08072              0.01893         *
 * P              23      0.00408             -0.02030              0.00409         *
 * P              24      0.06992             -0.00395             -0.08759         *
 * P              25     -0.08542             -0.03170              0.04853         *
 * P              26     -0.07131             -0.09582             -0.01181         *
 * P              27      0.04453              0.02813              0.01148         *
 * P              28     -0.03280             -0.02195              0.07270         *
 * P              29      0.07270             -0.02195             -0.03280         *
 * P              30      0.02222              0.10627              0.02223         *
 * P              31     -0.03772              0.03032             -0.03772         *
 * In              1      0.01361             -0.05673              0.01361         *
 * In              2     -0.01766              0.16614             -0.01766         *
 * In              3     -0.00943             -0.04576              0.05478         *
 * In              4      0.05478             -0.04576             -0.00943         *
 * In              5      0.05314              0.03297             -0.07332         *
 * In              6      0.01739              0.03381             -0.02584         *
 * In              7     -0.00144              0.04749             -0.03354         *
 * In              8     -0.12343             -0.14684              0.20236         *
 * In              9      0.02269             -0.02397              0.02269         *
 * In             10     -0.24718              0.13635             -0.24719         *
 * In             11     -0.02956             -0.02539             -0.00751         *
 * In             12     -0.00751             -0.02539             -0.02957         *
 * In             13     -0.03608             -0.00501              0.00429         *
 * In             14      0.01784              0.00801              0.02830         *
 * In             15      0.00798             -0.01440             -0.00146         *
 * In             16      0.02794             -0.02394              0.03474         *
 * In             17     -0.07332              0.03297              0.05314         *
 * In             18     -0.02584              0.03381              0.01739         *
 * In             19      0.20236             -0.14683             -0.12343         *
 * In             20     -0.03354              0.04749             -0.00144         *
 * In             21     -0.03446             -0.12775             -0.03446         *
 * In             22     -0.01907             -0.02177             -0.01907         *
 * In             23     -0.04591              0.02888              0.03512         *
 * In             24      0.03511              0.02889             -0.04590         *
 * In             25      0.00429             -0.00501             -0.03608         *
 * In             26      0.02830              0.00801              0.01783         *
 * In             27      0.03474             -0.02394              0.02794         *
 * In             28     -0.00146             -0.01440              0.00798         *
 * In             29      0.19177              0.07841              0.19177         *
 * In             30     -0.02250             -0.02853             -0.02250         *
 * In             31     -0.02957              0.01256              0.00751         *
 * In             32      0.00751              0.01256             -0.02957         *
 *                                                                                  *
 ************************************************************************************
  
 +------------+-------------+-------------+-----------------+ <-- min LBFGS
 |    Step    |   lambda    |   F.delta'  |    enthalpy     | <-- min LBFGS
 +------------+-------------+-------------+-----------------+ <-- min LBFGS
 |  previous  |    0.000000 |    0.701510 |   -62658.696330 | <-- min LBFGS
 | trial step |    1.000000 |    0.184810 |   -62658.865732 | <-- min LBFGS
 +------------+-------------+-------------+-----------------+ <-- min LBFGS
  
 LBFGS: finished iteration     1 with enthalpy= -6.26588657E+004 eV
  
 +-----------+-----------------+-----------------+------------+-----+ <-- LBFGS
 | Parameter |      value      |    tolerance    |    units   | OK? | <-- LBFGS
 +-----------+-----------------+-----------------+------------+-----+ <-- LBFGS
 |  dE/ion   |   2.688908E-003 |   2.000000E-005 |         eV | No  | <-- LBFGS
 |  |F|max   |   3.752222E-001 |   1.000000E-003 |       eV/A | No  | <-- LBFGS
 |  |dR|max  |   5.228086E-002 |   1.000000E-003 |          A | No  | <-- LBFGS
 +-----------+-----------------+-----------------+------------+-----+ <-- LBFGS
  

================================================================================
 Starting LBFGS iteration          2 ...
================================================================================
  
 +------------+-------------+-------------+-----------------+ <-- min LBFGS
 |    Step    |   lambda    |   F.delta'  |    enthalpy     | <-- min LBFGS
 +------------+-------------+-------------+-----------------+ <-- min LBFGS
 |  previous  |    0.000000 |    0.359704 |   -62658.865732 | <-- min LBFGS
 +------------+-------------+-------------+-----------------+ <-- min LBFGS
  

--------------------------------------------------------------------------------
 LBFGS: starting iteration         2 with trial guess (lambda=  1.000000)
--------------------------------------------------------------------------------

                           -------------------------------
                                     Cell Contents
                           -------------------------------

            xxxxxxxxxxxxxxxxxxxxxxxxxxxxxxxxxxxxxxxxxxxxxxxxxxxxxxxxxxxxxxxxx
            x  Element         Atom        Fractional coordinates of atoms  x
            x                 Number           u          v          w      x
            x---------------------------------------------------------------x
            x  P                 1         0.131874   0.104548   0.356829   x
            x  P                 2         0.356829   0.104548   0.131874   x
            x  P                 3         0.126626   0.371975   0.126626   x
            x  P                 4         0.125606   0.125677   0.877426   x
            x  P                 5         0.374408   0.125410   0.625243   x
            x  P                 6         0.124280   0.375865   0.624856   x
            x  P                 7         0.374387   0.376651   0.875521   x
            x  P                 8         0.126216   0.628283   0.377993   x
            x  P                 9         0.377993   0.628283   0.126216   x
            x  P                10         0.137165   0.886847   0.137165   x
            x  P                11         0.363443   0.891647   0.363443   x
            x  P                12         0.126283   0.625224   0.875164   x
            x  P                13         0.370881   0.630072   0.625059   x
            x  P                14         0.124464   0.876163   0.624436   x
            x  P                15         0.375089   0.872570   0.877215   x
            x  P                16         0.625243   0.125410   0.374408   x
            x  P                17         0.877426   0.125677   0.125606   x
            x  P                18         0.624856   0.375865   0.124280   x
            x  P                19         0.875521   0.376651   0.374387   x
            x  P                20         0.624390   0.125725   0.872788   x
            x  P                21         0.872788   0.125725   0.624390   x
            x  P                22         0.625519   0.377464   0.625519   x
            x  P                23         0.876717   0.375291   0.876717   x
            x  P                24         0.625059   0.630072   0.370881   x
            x  P                25         0.875164   0.625224   0.126283   x
            x  P                26         0.624436   0.876163   0.124464   x
            x  P                27         0.877215   0.872570   0.375088   x
            x  P                28         0.625874   0.626610   0.876370   x
            x  P                29         0.876370   0.626610   0.625874   x
            x  P                30         0.624330   0.878059   0.624330   x
            x  P                31         0.876791   0.877392   0.876791   x
            x  In                1         0.007141  -0.004844   0.007141   x
            x  In                2         0.381545   0.353160   0.381545   x
            x  In                3         0.003202   0.245344   0.256836   x
            x  In                4         0.256836   0.245344   0.003202   x
            x  In                5         0.000780   0.003287   0.498025   x
            x  In                6         0.248117  -0.002539   0.753965   x
            x  In                7        -0.001334   0.246655   0.752221   x
            x  In                8         0.215840   0.218429   0.511057   x
            x  In                9         0.001650   0.501679   0.001650   x
            x  In               10         0.240724   0.512192   0.240724   x
            x  In               11         0.006216   0.756333   0.241655   x
            x  In               12         0.241655   0.756333   0.006216   x
            x  In               13        -0.001043   0.501840   0.499239   x
            x  In               14         0.250682   0.500969   0.750639   x
            x  In               15         0.001155   0.752183   0.751473   x
            x  In               16         0.255595   0.762958   0.492998   x
            x  In               17         0.498025   0.003287   0.000780   x
            x  In               18         0.753965  -0.002539   0.248117   x
            x  In               19         0.511057   0.218429   0.215840   x
            x  In               20         0.752221   0.246655  -0.001334   x
            x  In               21         0.494038  -0.004134   0.494038   x
            x  In               22         0.750811  -0.000525   0.750811   x
            x  In               23         0.498906   0.252503   0.750730   x
            x  In               24         0.750730   0.252503   0.498906   x
            x  In               25         0.499239   0.501840  -0.001043   x
            x  In               26         0.750639   0.500969   0.250682   x
            x  In               27         0.492998   0.762958   0.255595   x
            x  In               28         0.751473   0.752183   0.001155   x
            x  In               29         0.509417   0.516552   0.509417   x
            x  In               30         0.752617   0.502464   0.752617   x
            x  In               31         0.501706   0.751632   0.750150   x
            x  In               32         0.750150   0.751632   0.501706   x
            xxxxxxxxxxxxxxxxxxxxxxxxxxxxxxxxxxxxxxxxxxxxxxxxxxxxxxxxxxxxxxxxx


------------------------------------------------------------------------ <-- SCF
SCF loop      Energy           Fermi           Energy gain       Timer   <-- SCF
                               energy          per atom          (sec)   <-- SCF
------------------------------------------------------------------------ <-- SCF
Initial  -6.26533405E+004  0.00000000E+000                     19086.98  <-- SCF
      1  -6.26585311E+004  3.06157956E+000   8.23905798E-002   19492.88  <-- SCF
      2  -6.26589704E+004  3.06157201E+000   6.97200823E-003   19887.22  <-- SCF
      3  -6.26589636E+004  3.04766878E+000  -1.07941279E-004   20245.56  <-- SCF
      4  -6.26589642E+004  3.04316287E+000   9.86485688E-006   20630.12  <-- SCF
      5  -6.26589646E+004  3.04096792E+000   5.52762283E-006   20973.12  <-- SCF
      6  -6.26589649E+004  3.03940451E+000   5.07944452E-006   21332.85  <-- SCF
      7  -6.26589649E+004  3.03930415E+000   7.11021326E-007   21630.91  <-- SCF
      8  -6.26589649E+004  3.03934420E+000   2.07382562E-007   21876.31  <-- SCF
      9  -6.26589649E+004  3.03934917E+000   6.27263382E-008   22121.81  <-- SCF
     10  -6.26589650E+004  3.03996167E+000   3.70299726E-007   22361.16  <-- SCF
     11  -6.26589650E+004  3.04019607E+000   1.72886140E-007   22605.64  <-- SCF
     12  -6.26589650E+004  3.04026388E+000   1.14348603E-007   22847.59  <-- SCF
     13  -6.26589650E+004  3.04039841E+000   1.06714245E-007   23093.76  <-- SCF
     14  -6.26589650E+004  3.04054547E+000   9.47573269E-008   23345.36  <-- SCF
     15  -6.26589650E+004  3.04079956E+000   1.35730618E-007   23598.62  <-- SCF
     16  -6.26589650E+004  3.04101347E+000   8.20809309E-008   23851.19  <-- SCF
     17  -6.26589650E+004  3.04112723E+000   7.21225610E-009   24086.75  <-- SCF
     18  -6.26589650E+004  3.04119732E+000   5.98226975E-008   24321.76  <-- SCF
------------------------------------------------------------------------ <-- SCF
 
[...]
 LBFGS: improving iteration        17 with line minimization (lambda=  0.586246)
--------------------------------------------------------------------------------

                           -------------------------------
                                     Cell Contents
                           -------------------------------

            xxxxxxxxxxxxxxxxxxxxxxxxxxxxxxxxxxxxxxxxxxxxxxxxxxxxxxxxxxxxxxxxx
            x  Element         Atom        Fractional coordinates of atoms  x
            x                 Number           u          v          w      x
            x---------------------------------------------------------------x
            x  P                 1         0.139289   0.107099   0.355855   x
            x  P                 2         0.355855   0.107099   0.139289   x
            x  P                 3         0.119539   0.368741   0.119539   x
            x  P                 4         0.125037   0.124129   0.876433   x
            x  P                 5         0.376620   0.124204   0.623922   x
            x  P                 6         0.125017   0.377399   0.625555   x
            x  P                 7         0.374224   0.373827   0.876582   x
            x  P                 8         0.124346   0.628391   0.376263   x
            x  P                 9         0.376263   0.628391   0.124346   x
            x  P                10         0.138534   0.889970   0.138534   x
            x  P                11         0.359644   0.889811   0.359644   x
            x  P                12         0.125927   0.626645   0.875842   x
            x  P                13         0.373986   0.628715   0.627274   x
            x  P                14         0.126597   0.874570   0.622540   x
            x  P                15         0.374412   0.875877   0.877670   x
            x  P                16         0.623922   0.124204   0.376620   x
            x  P                17         0.876433   0.124129   0.125037   x
            x  P                18         0.625555   0.377399   0.125017   x
            x  P                19         0.876582   0.373827   0.374224   x
            x  P                20         0.623774   0.123753   0.876708   x
            x  P                21         0.876708   0.123753   0.623774   x
            x  P                22         0.630173   0.372302   0.630173   x
            x  P                23         0.875155   0.374923   0.875155   x
            x  P                24         0.627274   0.628715   0.373986   x
            x  P                25         0.875842   0.626645   0.125927   x
            x  P                26         0.622540   0.874570   0.126597   x
            x  P                27         0.877670   0.875877   0.374412   x
            x  P                28         0.625221   0.626336   0.876174   x
            x  P                29         0.876174   0.626336   0.625221   x
            x  P                30         0.624033   0.877857   0.624033   x
            x  P                31         0.875723   0.875954   0.875723   x
            x  In                1         0.005888  -0.006602   0.005888   x
            x  In                2         0.374518   0.375999   0.374518   x
            x  In                3         0.003964   0.242283   0.256703   x
            x  In                4         0.256703   0.242283   0.003964   x
            x  In                5         0.006073   0.003809   0.494730   x
            x  In                6         0.248656  -0.001556   0.751349   x
            x  In                7        -0.000412   0.247664   0.752036   x
            x  In                8         0.218489   0.219729   0.514035   x
            x  In                9        -0.001702   0.502177  -0.001702   x
            x  In               10         0.228268   0.514362   0.228268   x
            x  In               11         0.005761   0.759024   0.241681   x
            x  In               12         0.241681   0.759024   0.005761   x
            x  In               13        -0.001097   0.500918   0.498233   x
            x  In               14         0.251697   0.500895   0.752826   x
            x  In               15         0.001549   0.752417   0.750026   x
            x  In               16         0.258526   0.758302   0.492594   x
            x  In               17         0.494730   0.003809   0.006073   x
            x  In               18         0.751349  -0.001556   0.248656   x
            x  In               19         0.514035   0.219729   0.218489   x
            x  In               20         0.752036   0.247664  -0.000412   x
            x  In               21         0.491719  -0.008543   0.491719   x
            x  In               22         0.750549   0.000474   0.750549   x
            x  In               23         0.499072   0.249499   0.752401   x
            x  In               24         0.752401   0.249499   0.499072   x
            x  In               25         0.498233   0.500918  -0.001097   x
            x  In               26         0.752826   0.500895   0.251697   x
            x  In               27         0.492594   0.758302   0.258526   x
            x  In               28         0.750026   0.752417   0.001549   x
            x  In               29         0.517210   0.513366   0.517210   x
            x  In               30         0.752705   0.503044   0.752705   x
            x  In               31         0.501467   0.754153   0.752420   x
            x  In               32         0.752420   0.754153   0.501467   x
            xxxxxxxxxxxxxxxxxxxxxxxxxxxxxxxxxxxxxxxxxxxxxxxxxxxxxxxxxxxxxxxxx


------------------------------------------------------------------------ <-- SCF
SCF loop      Energy           Fermi           Energy gain       Timer   <-- SCF
                               energy          per atom          (sec)   <-- SCF
------------------------------------------------------------------------ <-- SCF
Initial  -6.26589426E+004  0.00000000E+000                     83436.96  <-- SCF
      1  -6.26590662E+004  3.06610748E+000   1.96297083E-003   83850.76  <-- SCF
      2  -6.26590663E+004  3.06610747E+000   4.22950433E-007   84119.87  <-- SCF
      3  -6.26590663E+004  3.06611812E+000   1.29655226E-008   84339.01  <-- SCF
      4  -6.26590663E+004  3.06611986E+000   4.39130722E-009   84570.69  <-- SCF
      5  -6.26590663E+004  3.06610213E+000   2.63042386E-009   84801.58  <-- SCF
------------------------------------------------------------------------ <-- SCF
 
Integrated Spin Density     =    0.722255     hbar/2
Integrated |Spin Density|   =    0.886829     hbar/2
 
Final energy, E             =  -62658.94903201     eV
Final free energy (E-TS)    =  -62659.06626241     eV
(energies not corrected for finite basis set)
 
NB est. 0K energy (E-0.5TS)      =  -62659.00764721     eV
 

 ************************************** Forces **************************************
 *                                                                                  *
 *                           Cartesian components (eV/A)                            *
 * -------------------------------------------------------------------------------- *
 *                         x                    y                    z              *
 *                                                                                  *
 * P               1     -0.00085             -0.00029             -0.00053         *
 * P               2     -0.00053             -0.00029             -0.00085         *
 * P               3     -0.00019             -0.00083             -0.00019         *
 * P               4     -0.00047              0.00034              0.00055         *
 * P               5      0.00004              0.00064             -0.00053         *
 * P               6      0.00010             -0.00007              0.00012         *
 * P               7     -0.00074             -0.00065              0.00020         *
 * P               8      0.00077             -0.00019             -0.00031         *
 * P               9     -0.00031             -0.00019              0.00077         *
 * P              10      0.00024              0.00014              0.00024         *
 * P              11     -0.00100             -0.00153             -0.00100         *
 * P              12     -0.00007             -0.00046              0.00008         *
 * P              13      0.00093             -0.00013              0.00009         *
 * P              14     -0.00032              0.00036             -0.00008         *
 * P              15      0.00041              0.00072             -0.00033         *
 * P              16     -0.00053              0.00064              0.00004         *
 * P              17      0.00055              0.00034             -0.00047         *
 * P              18      0.00012             -0.00007              0.00010         *
 * P              19      0.00020             -0.00065             -0.00074         *
 * P              20     -0.00040             -0.00021             -0.00038         *
 * P              21     -0.00038             -0.00021             -0.00040         *
 * P              22      0.00030             -0.00080              0.00030         *
 * P              23     -0.00007              0.00031             -0.00007         *
 * P              24      0.00009             -0.00013              0.00093         *
 * P              25      0.00008             -0.00046             -0.00007         *
 * P              26     -0.00008              0.00036             -0.00032         *
 * P              27     -0.00033              0.00072              0.00041         *
 * P              28      0.00064              0.00068              0.00039         *
 * P              29      0.00039              0.00068              0.00064         *
 * P              30      0.00029             -0.00014              0.00029         *
 * P              31     -0.00012              0.00040             -0.00012         *
 * In              1      0.00025              0.00041              0.00025         *
 * In              2     -0.00012             -0.00098             -0.00012         *
 * In              3     -0.00039              0.00177              0.00071         *
 * In              4      0.00071              0.00177             -0.00039         *
 * In              5      0.00039             -0.00125             -0.00035         *
 * In              6     -0.00013             -0.00132              0.00060         *
 * In              7      0.00091             -0.00117              0.00087         *
 * In              8      0.00048              0.00012              0.00278         *
 * In              9     -0.00020             -0.00041             -0.00020         *
 * In             10      0.00118              0.00101              0.00118         *
 * In             11     -0.00095             -0.00030             -0.00044         *
 * In             12     -0.00044             -0.00030             -0.00095         *
 * In             13      0.00070              0.00013              0.00034         *
 * In             14     -0.00070              0.00167              0.00030         *
 * In             15     -0.00153              0.00027             -0.00081         *
 * In             16     -0.00016              0.00022             -0.00111         *
 * In             17     -0.00035             -0.00125              0.00039         *
 * In             18      0.00060             -0.00132             -0.00013         *
 * In             19      0.00278              0.00012              0.00048         *
 * In             20      0.00087             -0.00117              0.00091         *
 * In             21      0.00133              0.00009              0.00133         *
 * In             22     -0.00066              0.00108             -0.00066         *
 * In             23      0.00033              0.00115              0.00005         *
 * In             24      0.00005              0.00115              0.00033         *
 * In             25      0.00034              0.00013              0.00070         *
 * In             26      0.00030              0.00167             -0.00070         *
 * In             27     -0.00111              0.00022             -0.00016         *
 * In             28     -0.00081              0.00027             -0.00153         *
 * In             29     -0.00187              0.00088             -0.00187         *
 * In             30      0.00001             -0.00153              0.00001         *
 * In             31     -0.00034             -0.00104             -0.00022         *
 * In             32     -0.00022             -0.00104             -0.00034         *
 *                                                                                  *
 ************************************************************************************
  
 +------------+-------------+-------------+-----------------+ <-- min LBFGS
 |    Step    |   lambda    |   F.delta'  |    enthalpy     | <-- min LBFGS
 +------------+-------------+-------------+-----------------+ <-- min LBFGS
 |  previous  |    0.000000 |    0.001540 |   -62659.066258 | <-- min LBFGS
 | trial step |    1.000000 |   -0.001087 |   -62659.066262 | <-- min LBFGS
 |  line step |    0.586246 |    0.001592 |   -62659.066262 | <-- min LBFGS
 +------------+-------------+-------------+-----------------+ <-- min LBFGS
  

--------------------------------------------------------------------------------
 LBFGS: improving iteration        17 with quad minimization (lambda=  1.084768)
--------------------------------------------------------------------------------

                           -------------------------------
                                     Cell Contents
                           -------------------------------

            xxxxxxxxxxxxxxxxxxxxxxxxxxxxxxxxxxxxxxxxxxxxxxxxxxxxxxxxxxxxxxxxx
            x  Element         Atom        Fractional coordinates of atoms  x
            x                 Number           u          v          w      x
            x---------------------------------------------------------------x
            x  P                 1         0.139282   0.107121   0.355871   x
            x  P                 2         0.355871   0.107121   0.139282   x
            x  P                 3         0.119552   0.368756   0.119551   x
            x  P                 4         0.125052   0.124130   0.876438   x
            x  P                 5         0.376626   0.124187   0.623941   x
            x  P                 6         0.125016   0.377401   0.625561   x
            x  P                 7         0.374230   0.373843   0.876576   x
            x  P                 8         0.124337   0.628399   0.376264   x
            x  P                 9         0.376264   0.628399   0.124337   x
            x  P                10         0.138526   0.889958   0.138526   x
            x  P                11         0.359645   0.889836   0.359645   x
            x  P                12         0.125914   0.626650   0.875835   x
            x  P                13         0.373971   0.628719   0.627259   x
            x  P                14         0.126597   0.874568   0.622541   x
            x  P                15         0.374412   0.875864   0.877671   x
            x  P                16         0.623941   0.124187   0.376626   x
            x  P                17         0.876439   0.124130   0.125052   x
            x  P                18         0.625561   0.377401   0.125015   x
            x  P                19         0.876576   0.373843   0.374230   x
            x  P                20         0.623770   0.123756   0.876710   x
            x  P                21         0.876710   0.123756   0.623770   x
            x  P                22         0.630159   0.372315   0.630159   x
            x  P                23         0.875161   0.374913   0.875161   x
            x  P                24         0.627259   0.628719   0.373971   x
            x  P                25         0.875835   0.626650   0.125914   x
            x  P                26         0.622541   0.874568   0.126597   x
            x  P                27         0.877671   0.875864   0.374412   x
            x  P                28         0.625223   0.626326   0.876164   x
            x  P                29         0.876164   0.626326   0.625223   x
            x  P                30         0.624035   0.877846   0.624035   x
            x  P                31         0.875722   0.875962   0.875722   x
            x  In                1         0.005896  -0.006594   0.005896   x
            x  In                2         0.374531   0.375927   0.374531   x
            x  In                3         0.003963   0.242304   0.256714   x
            x  In                4         0.256714   0.242304   0.003963   x
            x  In                5         0.006067   0.003804   0.494732   x
            x  In                6         0.248655  -0.001569   0.751360   x
            x  In                7        -0.000407   0.247656   0.752038   x
            x  In                8         0.218486   0.219714   0.514069   x
            x  In                9        -0.001701   0.502179  -0.001701   x
            x  In               10         0.228287   0.514365   0.228287   x
            x  In               11         0.005748   0.759015   0.241671   x
            x  In               12         0.241671   0.759015   0.005748   x
            x  In               13        -0.001091   0.500925   0.498233   x
            x  In               14         0.251690   0.500905   0.752825   x
            x  In               15         0.001535   0.752421   0.750021   x
            x  In               16         0.258516   0.758318   0.492580   x
            x  In               17         0.494732   0.003804   0.006067   x
            x  In               18         0.751360  -0.001569   0.248655   x
            x  In               19         0.514069   0.219714   0.218486   x
            x  In               20         0.752038   0.247656  -0.000407   x
            x  In               21         0.491727  -0.008545   0.491727   x
            x  In               22         0.750546   0.000476   0.750546   x
            x  In               23         0.499071   0.249509   0.752403   x
            x  In               24         0.752403   0.249509   0.499071   x
            x  In               25         0.498233   0.500925  -0.001091   x
            x  In               26         0.752825   0.500905   0.251690   x
            x  In               27         0.492580   0.758318   0.258516   x
            x  In               28         0.750021   0.752421   0.001535   x
            x  In               29         0.517195   0.513374   0.517195   x
            x  In               30         0.752705   0.503025   0.752704   x
            x  In               31         0.501464   0.754137   0.752411   x
            x  In               32         0.752411   0.754137   0.501464   x
            xxxxxxxxxxxxxxxxxxxxxxxxxxxxxxxxxxxxxxxxxxxxxxxxxxxxxxxxxxxxxxxxx


------------------------------------------------------------------------ <-- SCF
SCF loop      Energy           Fermi           Energy gain       Timer   <-- SCF
                               energy          per atom          (sec)   <-- SCF
------------------------------------------------------------------------ <-- SCF
Initial  -6.26589554E+004  0.00000000E+000                     85063.94  <-- SCF
      1  -6.26590662E+004  3.06621212E+000   1.75872435E-003   85467.60  <-- SCF
      2  -6.26590663E+004  3.06621211E+000   6.26387949E-007   85756.25  <-- SCF
      3  -6.26590663E+004  3.06620258E+000   1.25239760E-008   85982.80  <-- SCF
      4  -6.26590663E+004  3.06620210E+000   4.64763212E-009   86218.42  <-- SCF
