 +-------------------------------------------------+
 |                                                 |
 |      CCC   AA    SSS  TTTTT  EEEEE  PPPP        |
 |     C     A  A  S       T    E      P   P       |
 |     C     AAAA   SS     T    EEE    PPPP        |
 |     C     A  A     S    T    E      P           |
 |      CCC  A  A  SSS     T    EEEEE  P           |
 |                                                 |
 +-------------------------------------------------+
 |                                                 |
 | Welcome to Academic Release CASTEP version 24.1 |
 | Ab Initio Total Energy Program                  |
 |                                                 |
 | Authors:                                        |
 | M. Segall, M. Probert, C. Pickard, P. Hasnip,   |
 | S. Clark, K. Refson, J. R. Yates,               |
 | A. Bartok-Partay, M. Payne                      |
 |                                                 |
 | Contributors:                                   |
 | P. Lindan, P. Haynes, J. White, V. Milman,      |
 | N. Govind, M. Gibson, P. Tulip, V. Cocula,      |
 | B. Montanari, D. Quigley, M. Glover,            |
 | L. Bernasconi, A. Perlov, M. Plummer,           |
 | E. McNellis, J. Meyer, J. Gale, D. Jochym       |
 | J. Aarons, B. Walker, R. Gillen, D. Jones       |
 | T. Green, I. J. Bush, C. J. Armstrong,          |
 | E. J. Higgins, E. L. Brown, M. S. McFly,        |
 | J. Wilkins, B-C. Shih, P. J. P. Byrne,          |
 | R. J. Maurer, J. C. Womack, J. Dziedzic,        |
 | L. LeBlanc, T. K. Stenczel, J. Kermode,         |
 | S. Sturniolo, B. Shi, B. Durham, M. Evans,      |
 | M. J. Smith, A. Tamerus, Z. Hawkhead,           |
 | V. Ravindran, T. Hollins, S. A. Joyce,          |
 | R. T. Strong, A. M. Reilly, S. J. Donaldson     |
 |                                                 |
 | Copyright (c) 2000 - 2023                       |
 |                                                 |
 |     Distributed under license from Cambridge    |
 |     Enterprise for academic use only.           |
 |                                                 |
 | Please cite                                     |
 |                                                 |
 |     "First principles methods using CASTEP"     |
 |                                                 |
 |         Zeitschrift fuer Kristallographie       |
 |           220(5-6) pp. 567-570 (2005)           |
 |                                                 |
 | S. J. Clark, M. D. Segall, C. J. Pickard,       |
 | P. J. Hasnip, M. J. Probert, K. Refson,         |
 | M. C. Payne                                     |
 |                                                 |
 |       in all publications arising from          |
 |              your use of CASTEP                 |
 |                                                 |
 +-------------------------------------------------+
 |                                                 |
 |              http://www.castep.org              |
 |                                                 |
 +-------------------------------------------------+



 Compiled for  GNU 11.2.0 on 04-04-2024 18:39:17
 from code version 6355fd106 Castep241_branch Thu Mar 7 17:56:19 2024 +0000
 Compiler: GNU Fortran 11.2.0; Optimisation: FAST
 Comms   : MPI VERSION : CRAY MPICH version 8.1.23.14 (ANL base 3.4a2)
 MATHLIBS: default (LAPACK version 3.10.1)
 FFT Lib : fftw3 version commercial-fftw-3.3.10-sse2-avx-avx2-avx2_128
 Fundamental constants values: CODATA 2018

 Run started: Wed, 30 Jul 2025 01:29:36 +0100

 Atomic calculation performed for P: 1s2 2s2 2p6 3s2 3p3

 Converged in 47 iterations to an ae energy of -9309.074 eV

   ============================================================                
   | Pseudopotential Report - Date of generation 30-07-2025   |                
   ------------------------------------------------------------                
   | Element: P Ionic charge:  5.00 Level of theory: RSCAN    |                
   | Atomic Solver: Koelling-Harmon                           |                
   |                                                          |                
   |               Reference Electronic Structure             |                
   |         Orbital         Occupation         Energy        |                
   |            3s              2.000           -0.535        |                
   |            3p              3.000           -0.209        |                
   |                                                          |                
   |                 Pseudopotential Definition               |                
   |        Beta     l      e      Rc     scheme   norm       |                
   |          1      0   -0.535   1.807     qc      0         |                
   |          2      0    0.250   1.807     qc      0         |                
   |          3      1   -0.209   1.807     qc      0         |                
   |          4      1    0.250   1.807     qc      0         |                
   |          5      2    0.000   1.807     qc      0         |                
   |          6      2    0.250   1.807     qc      0         |                
   |         loc     3    0.000   1.807     pn      0         |                
   |                                                          |                
   | Augmentation charge Rinner = 1.263                       |                
   | Partial core correction Rc = 1.263                       |                
   ------------------------------------------------------------                
   | "3|1.8|4|4|5|30:31:32"                                   |                
   ------------------------------------------------------------                
   |      Author: Chris J. Pickard, Cambridge University      |                
   ============================================================                
 Warning: otfg_output_psp cannot write out meta-GGA pseudopotentials presently.

 Atomic calculation performed for In:
 1s2 2s2 2p6 3s2 3p6 3d10 4s2 4p6 4d10 5s2 5p1

 Converged in 84 iterations to an ae energy of -160093.328 eV

   ============================================================                
   | Pseudopotential Report - Date of generation 30-07-2025   |                
   ------------------------------------------------------------                
   | Element: In Ionic charge: 13.00 Level of theory: RSCAN   |                
   | Atomic Solver: Koelling-Harmon                           |                
   |                                                          |                
   |               Reference Electronic Structure             |                
   |         Orbital         Occupation         Energy        |                
   |            4d             10.000           -0.711        |                
   |            5s              2.000           -0.313        |                
   |            5p              1.000           -0.095        |                
   |                                                          |                
   |                 Pseudopotential Definition               |                
   |        Beta     l      e      Rc     scheme   norm       |                
   |          1      0   -0.313   2.501     qc      0         |                
   |          2      0    0.250   2.501     qc      0         |                
   |          3      1   -0.095   2.501     qc      0         |                
   |          4      1    0.250   2.501     qc      0         |                
   |          5      2   -0.711   2.207     qc      0         |                
   |          6      2    0.250   2.207     qc      0         |                
   |         loc     3    0.000   2.501     pn      0         |                
   |                                                          |                
   | Augmentation charge Rinner = 1.504                       |                
   | Partial core correction Rc = 1.504                       |                
   ------------------------------------------------------------                
   | "3|2.5|2.5|1.5|7|8|9|50:51:42U2.2U2.2"                   |                
   ------------------------------------------------------------                
   |      Author: Chris J. Pickard, Cambridge University      |                
   ============================================================                
 Warning: otfg_output_psp cannot write out meta-GGA pseudopotentials presently.

 Pseudo atomic calculation performed for P 3s2 3p3

 Converged in 23 iterations to a total energy of -208.0292 eV

 Pseudo atomic calculation performed for In 4d10 5s2 5p1

 Converged in 42 iterations to a total energy of -1747.4501 eV
 Calculation parallelised over 108 processes.
 Data is distributed by G-vector(3-way) and k-point(36-way)
 Each process may use up to 16 threads.

 ************************************ Title ************************************
 

 ***************************** General Parameters ******************************
  
 output verbosity                               : normal  (1)
 write checkpoint data to                       : P_Interstitial_Migration_Dumbbell_Dumbbell+_Singlepoints_5.check
 type of calculation                            : single point energy
 stress calculation                             : off
 density difference calculation                 : off
 electron localisation func (ELF) calculation   : off
 Hirshfeld analysis                             : on
 polarisation (Berry phase) analysis            : off
 molecular orbital projected DOS                : off
 deltaSCF calculation                           : off
 unlimited duration calculation
 timing information                             : on
 memory usage estimate                          : on
 write extra output files                       : on
 write final potential to formatted file        : off
 write final density to formatted file          : off
 write BibTeX reference list                    : on
 write OTFG pseudopotential files               : on
 write electrostatic potential file             : on
 write bands file                               : on
 checkpoint writing                             : off
  
 output         length unit                     : A
 output           mass unit                     : amu
 output           time unit                     : ps
 output         charge unit                     : e
 output           spin unit                     : hbar/2
 output         energy unit                     : eV
 output          force unit                     : eV/A
 output       velocity unit                     : A/ps
 output       pressure unit                     : GPa
 output     inv_length unit                     : 1/A
 output      frequency unit                     : cm-1
 output force constant unit                     : eV/A**2
 output         volume unit                     : A**3
 output   IR intensity unit                     : (D/A)**2/amu
 output         dipole unit                     : D
 output         efield unit                     : eV/A/e
 output        entropy unit                     : J/mol/K
 output    efield chi2 unit                     : pm/V
  
 wavefunctions paging                           : none
 random number generator seed                   :   12936993
 data distribution                              : optimal for this architecture
 optimization strategy                          : balance speed and memory

 *********************** Exchange-Correlation Parameters ***********************
  
 using functional                               : RSCAN
 relativistic treatment                         : Koelling-Harmon
 DFT+D: Semi-empirical dispersion correction    : off

 ************************* Pseudopotential Parameters **************************
  
 pseudopotential representation                 : reciprocal space
 <beta|phi> representation                      : reciprocal space
 spin-orbit coupling                            : off

 **************************** Basis Set Parameters *****************************
  
 plane wave basis set cut-off                   :   900.0000   eV
 size of standard grid                          :     2.0000
 size of   fine   gmax                          :    30.7390   1/A
 finite basis set correction                    : none

 **************************** Electronic Parameters ****************************
  
 number of  electrons                           :  581.0    
 net charge of system                           :  0.000    
 net spin   of system                           :  1.000    
 number of  up  spins                           :  291.0    
 number of down spins                           :  290.0    
 treating system as spin-polarized
 number of bands                                :        349

 ********************* Electronic Minimization Parameters **********************
  
 Method: Treating system as metallic with density mixing treatment of electrons,
         and number of  SD  steps               :          1
         and number of  CG  steps               :          4
  
 total energy / atom convergence tol.           : 0.1000E-07   eV
 eigen-energy convergence tolerance             : 0.2234E-08   eV
 max force / atom convergence tol.              : ignored
 convergence tolerance window                   :          3   cycles
 max. number of SCF cycles                      :        100
 number of fixed-spin iterations                :         10
 smearing scheme                                : Gaussian
 smearing width                                 : 0.2000       eV
 Fermi energy convergence tolerance             : 0.2721E-13   eV
 periodic dipole correction                     : NONE

 ************************** Density Mixing Parameters **************************
  
 density-mixing scheme                          : Pulay
 max. length of mixing history                  :         20
 charge density mixing amplitude                : 0.5000    
   spin density mixing amplitude                :  2.000    
 cut-off energy for mixing                      :  900.0       eV

 *********************** Population Analysis Parameters ************************
  
 Population analysis with cutoff                :  3.000       A
 Population analysis output                     : summary and pdos components

 *******************************************************************************
  

                           -------------------------------
                                      Unit Cell
                           -------------------------------
        Real Lattice(A)                      Reciprocal Lattice(1/A)
    11.8016820    -0.0000080    -0.0000080        0.532397442   0.000000361   0.000000361
    -0.0000080    11.8016820    -0.0000080        0.000000361   0.532397442   0.000000361
    -0.0000080    -0.0000080    11.8016820        0.000000361   0.000000361   0.532397442

                       Lattice parameters(A)       Cell Angles
                    a =     11.801682          alpha =   90.000078
                    b =     11.801682          beta  =   90.000078
                    c =     11.801682          gamma =   90.000078

                       Current cell volume =          1643.734705       A**3
                                   density =             2.857097   AMU/A**3
                                           =             4.744322     g/cm^3

                           -------------------------------
                                     Cell Contents
                           -------------------------------
                         Total number of ions in cell =   65
                      Total number of species in cell =    2
                        Max number of any one species =   33

            xxxxxxxxxxxxxxxxxxxxxxxxxxxxxxxxxxxxxxxxxxxxxxxxxxxxxxxxxxxx
            x  Element    Atom        Fractional coordinates of atoms  x
            x            Number           u          v          w      x
            x----------------------------------------------------------x
            x  P            1         0.116890   0.124945   0.378959   x 
            x  P            2         0.411243   0.096247   0.209901   x 
            x  P            3         0.124574   0.373833   0.123022   x 
            x  P            4         0.371927   0.382869   0.378163   x 
            x  P            5         0.117226   0.125064   0.862476   x 
            x  P            6         0.373660   0.124056   0.621069   x 
            x  P            7         0.123615   0.373839   0.621899   x 
            x  P            8         0.377162   0.378086   0.869025   x 
            x  P            9         0.121370   0.622959   0.371522   x 
            x  P           10         0.373467   0.626709   0.122093   x 
            x  P           11         0.121950   0.871733   0.124736   x 
            x  P           12         0.373143   0.863023   0.384372   x 
            x  P           13         0.123031   0.624108   0.874553   x 
            x  P           14         0.372888   0.619146   0.625244   x 
            x  P           15         0.120707   0.871191   0.622311   x 
            x  P           16         0.372537   0.866041   0.860871   x 
            x  P           17         0.630165   0.128109   0.379166   x 
            x  P           18         0.874201   0.123784   0.122177   x 
            x  P           19         0.627582   0.379155   0.119744   x 
            x  P           20         0.874592   0.374144   0.372754   x 
            x  P           21         0.624370   0.125513   0.870856   x 
            x  P           22         0.871132   0.120940   0.624960   x 
            x  P           23         0.625638   0.375023   0.622707   x 
            x  P           24         0.874172   0.374264   0.872512   x 
            x  P           25         0.623672   0.625297   0.372366   x 
            x  P           26         0.872856   0.622754   0.122117   x 
            x  P           27         0.621644   0.875202   0.120961   x 
            x  P           28         0.870958   0.873993   0.370345   x 
            x  P           29         0.625185   0.624988   0.872284   x 
            x  P           30         0.873593   0.623894   0.622565   x 
            x  P           31         0.624142   0.874291   0.621307   x 
            x  P           32         0.874917   0.874086   0.875431   x 
            x  P           33         0.321982   0.082880   0.055899   x 
            x  In           1         0.002384   0.001208  -0.002533   x 
            x  In           2         0.235097  -0.016953   0.271320   x 
            x  In           3        -0.001848   0.248465   0.247037   x 
            x  In           4         0.238455   0.260548  -0.019782   x 
            x  In           5        -0.006644  -0.004008   0.500054   x 
            x  In           6         0.246531  -0.001704   0.744040   x 
            x  In           7        -0.005983   0.250103   0.742313   x 
            x  In           8         0.249526   0.248916   0.496258   x 
            x  In           9        -0.001398   0.498755  -0.001405   x 
            x  In          10         0.248977   0.501562   0.246232   x 
            x  In          11        -0.004526   0.747402   0.246725   x 
            x  In          12         0.249224   0.751660  -0.003623   x 
            x  In          13        -0.001163   0.498615   0.497846   x 
            x  In          14         0.245836   0.498882   0.748795   x 
            x  In          15        -0.002779   0.748102   0.749518   x 
            x  In          16         0.245133   0.740131   0.503906   x 
            x  In          17         0.501206  -0.010565  -0.017677   x 
            x  In          18         0.745709   0.001844   0.247086   x 
            x  In          19         0.513068   0.270940   0.263580   x 
            x  In          20         0.750383   0.248266  -0.002876   x 
            x  In          21         0.499259   0.000533   0.495294   x 
            x  In          22         0.748139  -0.003965   0.749803   x 
            x  In          23         0.499348   0.249254   0.744937   x 
            x  In          24         0.753932   0.249773   0.501872   x 
            x  In          25         0.498393   0.502967  -0.002554   x 
            x  In          26         0.750380   0.501075   0.249627   x 
            x  In          27         0.497797   0.751045   0.248164   x 
            x  In          28         0.748800   0.749632  -0.000610   x 
            x  In          29         0.501097   0.502242   0.500454   x 
            x  In          30         0.749309   0.499315   0.748554   x 
            x  In          31         0.501188   0.744430   0.741840   x 
            x  In          32         0.748999   0.749393   0.497451   x 
            xxxxxxxxxxxxxxxxxxxxxxxxxxxxxxxxxxxxxxxxxxxxxxxxxxxxxxxxxxxx


                         No user defined ionic velocities

                           -------------------------------
                                   Details of Species
                           -------------------------------

                               Mass of species in AMU
                                    P   30.9737600
                                    In  114.8180000

                          Electric Quadrupole Moment (Barn)
                                    P    1.0000000 No Isotope Defined
                                    In    0.7700000 Isotope115

                          Files used for pseudopotentials:
                                    P 3|1.8|4|4|5|30:31:32
                                    In 3|2.5|2.5|1.5|7|8|9|50:51:42U2.2U2.2

                           -------------------------------
                              k-Points For BZ Sampling
                           -------------------------------
                       MP grid size for SCF calculation is  4  4  4
                            with an offset of   0.125  0.125  0.125
                       Number of kpoints used =            36

                           -------------------------------
                               Symmetry and Constraints
                           -------------------------------

                      Maximum deviation from symmetry =  0.00000         ANG

                      Number of symmetry operations   =           1
                      Number of ionic constraints     =           3
                      Point group of crystal =     1: C1, 1, 1
                      Space group of crystal =     1: P1, P 1

             Set iprint > 1 for details on symmetry rotations/translations

                         Centre of mass is constrained
             Set iprint > 1 for details of linear ionic constraints

                         Number of cell constraints= 0
                         Cell constraints are:  1 2 3 4 5 6

                         External pressure/stress (GPa)
                          0.00000   0.00000   0.00000
                                    0.00000   0.00000
                                              0.00000
 
+---------------- MEMORY AND SCRATCH DISK ESTIMATES PER PROCESS --------------+
|                                                     Memory          Disk    |
| Baseline code, static data and system overhead      368.0 MB         0.0 MB |
| BLAS internal memory storage                          0.0 MB         0.0 MB |
| Model and support data                             4327.0 MB         0.0 MB |
| Electronic energy minimisation requirements        1337.1 MB         0.0 MB |
| Force calculation requirements                      127.4 MB         0.0 MB |
|                                               ----------------------------- |
| Approx. total storage required per process         6032.2 MB         0.0 MB |
|                                                                             |
| Requirements will fluctuate during execution and may exceed these estimates |
+-----------------------------------------------------------------------------+
Calculating approximate eigenstates for fixed initial Hamiltonian
Cut-off for approx. calculation is   89.988 eV
Improving approx. states at cut-off of  450.000 eV
Resetting cut-off to  900.000 eV
Calculating total energy with cut-off of  900.000 eV.
------------------------------------------------------------------------ <-- SCF
SCF loop      Energy           Fermi           Energy gain       Timer   <-- SCF
                               energy          per atom          (sec)   <-- SCF
------------------------------------------------------------------------ <-- SCF
Initial  -6.32534302E+004  0.00000000E+000                       447.61  <-- SCF
      1  -6.30179112E+004  2.86613193E+000  -3.62336934E+000     905.01  <-- SCF
      2  -6.30181831E+004  2.86580973E+000   4.18384677E-003    1222.74  <-- SCF
      3  -6.30840474E+004  3.19146444E+000   1.01329723E+000    1563.40  <-- SCF
      4  -6.30956232E+004  3.27736658E+000   1.78088128E-001    2077.35  <-- SCF
      5  -6.31016419E+004  3.45062580E+000   9.25954938E-002    2420.21  <-- SCF
      6  -6.30902081E+004  3.65210950E+000  -1.75903466E-001    2769.43  <-- SCF
      7  -6.30888774E+004  3.70549714E+000  -2.04727248E-002    3117.66  <-- SCF
      8  -6.30890126E+004  3.74838478E+000   2.07925606E-003    3483.52  <-- SCF
      9  -6.30898468E+004  3.77609981E+000   1.28339918E-002    3825.74  <-- SCF
     10  -6.30901172E+004  3.73747591E+000   4.15990666E-003    4175.58  <-- SCF
     11  -6.30901226E+004  3.72835148E+000   8.29687034E-005    4540.43  <-- SCF
     12  -6.30901248E+004  3.72183865E+000   3.50735111E-005    4898.39  <-- SCF
     13  -6.30901259E+004  3.72129984E+000   1.63008545E-005    5258.69  <-- SCF
     14  -6.30901261E+004  3.72056187E+000   3.57148032E-006    5615.89  <-- SCF
     15  -6.30901262E+004  3.71984989E+000   9.55067197E-007    5972.01  <-- SCF
     16  -6.30901262E+004  3.71986827E+000   2.69154858E-007    6282.86  <-- SCF
     17  -6.30901262E+004  3.71976135E+000   7.38548067E-008    6565.53  <-- SCF
     18  -6.30901262E+004  3.71983754E+000   2.36335915E-008    6819.31  <-- SCF
     19  -6.30901262E+004  3.71991906E+000   9.11986337E-009    7078.78  <-- SCF
     20  -6.30901262E+004  3.71993908E+000   3.38046997E-009    7331.44  <-- SCF
     21  -6.30901262E+004  3.71994133E+000   6.74304479E-010    7576.12  <-- SCF
------------------------------------------------------------------------ <-- SCF
 
Integrated Spin Density     =    0.990503     hbar/2
Integrated |Spin Density|   =     1.15410     hbar/2
 
Final energy, E             =  -63090.10791133     eV
Final free energy (E-TS)    =  -63090.12621937     eV
(energies not corrected for finite basis set)
 
NB est. 0K energy (E-0.5TS)      =  -63090.11706535     eV
 

 ************************** Forces **************************
 *                                                          *
 *               Cartesian components (eV/A)                *
 * -------------------------------------------------------- *
 *                         x            y            z      *
 *                                                          *
 * P               1      0.05398      0.02413     -0.06547 *
 * P               2      0.14208     -0.02351     -0.13826 *
 * P               3     -0.04019      0.03010     -0.00931 *
 * P               4      0.00736     -0.01848     -0.01335 *
 * P               5     -0.04258     -0.00613      0.04692 *
 * P               6     -0.00650     -0.01739      0.01667 *
 * P               7     -0.03289     -0.01864     -0.01726 *
 * P               8     -0.03815      0.07634     -0.01309 *
 * P               9     -0.01852      0.01278      0.00544 *
 * P              10     -0.00045     -0.00912     -0.00553 *
 * P              11     -0.03613      0.02190      0.01517 *
 * P              12     -0.09662     -0.07721      0.05636 *
 * P              13     -0.02972      0.01110     -0.01460 *
 * P              14     -0.00760      0.01344      0.00410 *
 * P              15      0.01283      0.01660     -0.01293 *
 * P              16      0.03338     -0.01214      0.03357 *
 * P              17      0.02820     -0.00747     -0.01425 *
 * P              18     -0.00672     -0.02869     -0.00722 *
 * P              19     -0.03127     -0.03255      0.04164 *
 * P              20      0.00861     -0.01811      0.01227 *
 * P              21      0.01344      0.00090      0.04575 *
 * P              22      0.02795      0.01851     -0.01870 *
 * P              23      0.01919     -0.01323      0.00112 *
 * P              24     -0.00732     -0.01114     -0.01454 *
 * P              25      0.01696      0.01601     -0.00549 *
 * P              26     -0.02080      0.02810      0.01366 *
 * P              27     -0.00829      0.06078      0.06693 *
 * P              28      0.00990      0.00140     -0.01125 *
 * P              29      0.00565      0.03507      0.01177 *
 * P              30     -0.00560     -0.00864     -0.00350 *
 * P              31     -0.01505      0.00049      0.00722 *
 * P              32     -0.02618     -0.00512      0.01901 *
 * P              33     -0.15422      0.02345      0.06683 *
 * In              1     -0.03180     -0.00879     -0.00265 *
 * In              2      0.10291     -0.09773     -0.07223 *
 * In              3     -0.01084      0.02942     -0.02597 *
 * In              4      0.15653      0.01587     -0.00670 *
 * In              5     -0.02560     -0.01187      0.02177 *
 * In              6      0.04294      0.01003     -0.00704 *
 * In              7      0.01534     -0.00547      0.01817 *
 * In              8      0.01659      0.06043      0.08751 *
 * In              9     -0.00662     -0.01266      0.00707 *
 * In             10     -0.01389      0.02198      0.02752 *
 * In             11      0.02077     -0.00415      0.00427 *
 * In             12      0.01710     -0.01382      0.02173 *
 * In             13     -0.00509      0.02849     -0.01272 *
 * In             14      0.10539     -0.00671     -0.00379 *
 * In             15     -0.02082     -0.01020      0.00099 *
 * In             16      0.10475      0.02142     -0.03747 *
 * In             17      0.03372     -0.08058     -0.09570 *
 * In             18      0.01079      0.01122      0.01199 *
 * In             19     -0.04388      0.02445     -0.02988 *
 * In             20     -0.03631      0.03726      0.02246 *
 * In             21     -0.00092     -0.03987      0.05895 *
 * In             22      0.01668      0.01012     -0.01418 *
 * In             23     -0.05433      0.01717      0.01087 *
 * In             24     -0.02305      0.00475     -0.00274 *
 * In             25      0.02040     -0.01827     -0.03450 *
 * In             26     -0.01329     -0.02499     -0.04527 *
 * In             27     -0.04896     -0.02787      0.01738 *
 * In             28      0.00894     -0.02972     -0.05464 *
 * In             29     -0.06672      0.00903      0.01413 *
 * In             30      0.00776      0.02502      0.01132 *
 * In             31     -0.05201     -0.01023      0.00482 *
 * In             32      0.01880     -0.00730      0.00484 *
 *                                                          *
 ************************************************************

 Pseudo atomic calculation performed for P 3s2 3p3

 Converged in 23 iterations to a total energy of -208.0292 eV

 Pseudo atomic calculation performed for In 4d10 5s2 5p1

 Converged in 42 iterations to a total energy of -1747.4501 eV
Charge spilling parameter for spin component 1 = 0.17%
Charge spilling parameter for spin component 2 = 0.18%

                   Orbital Populations                  
  ---------------------------------------------------------------
     Ion    Atom   Orbital              Up        Down      Spin
  ---------------------------------------------------------------
      P     1      S                    0.868     0.866     0.002
      P     1      Px                   0.666     0.652     0.014
      P     1      Py                   0.652     0.647     0.004
      P     1      Pz                   0.664     0.658     0.006
      P     2      S                    0.892     0.875     0.017
      P     2      Px                   0.741     0.418     0.323
      P     2      Py                   0.749     0.654     0.095
      P     2      Pz                   0.592     0.510     0.081
      P     3      S                    0.868     0.867     0.001
      P     3      Px                   0.660     0.658     0.001
      P     3      Py                   0.660     0.657     0.003
      P     3      Pz                   0.651     0.650     0.001
      P     4      S                    0.867     0.865     0.002
      P     4      Px                   0.649     0.646     0.003
      P     4      Py                   0.666     0.658     0.008
      P     4      Pz                   0.663     0.658     0.005
      P     5      S                    0.867     0.865     0.001
      P     5      Px                   0.662     0.659     0.003
      P     5      Py                   0.649     0.648     0.001
      P     5      Pz                   0.661     0.652     0.009
      P     6      S                    0.867     0.867    -0.000
      P     6      Px                   0.657     0.657    -0.000
      P     6      Py                   0.658     0.658    -0.000
      P     6      Pz                   0.656     0.656     0.000
      P     7      S                    0.867     0.867     0.000
      P     7      Px                   0.656     0.656     0.000
      P     7      Py                   0.658     0.657     0.000
      P     7      Pz                   0.657     0.657     0.000
      P     8      S                    0.866     0.866     0.000
      P     8      Px                   0.649     0.649     0.001
      P     8      Py                   0.662     0.661     0.001
      P     8      Pz                   0.662     0.661     0.001
      P     9      S                    0.866     0.866     0.000
      P     9      Px                   0.658     0.658     0.000
      P     9      Py                   0.659     0.659     0.000
      P     9      Pz                   0.654     0.654     0.000
      P    10      S                    0.867     0.867    -0.000
      P    10      Px                   0.658     0.658    -0.000
      P    10      Py                   0.657     0.657    -0.000
      P    10      Pz                   0.658     0.658    -0.000
      P    11      S                    0.872     0.869     0.002
      P    11      Px                   0.653     0.652     0.001
      P    11      Py                   0.653     0.652     0.002
      P    11      Pz                   0.643     0.643     0.000
      P    12      S                    0.868     0.868     0.001
      P    12      Px                   0.645     0.642     0.004
      P    12      Py                   0.662     0.652     0.009
      P    12      Pz                   0.656     0.653     0.003
      P    13      S                    0.867     0.867    -0.000
      P    13      Px                   0.658     0.658     0.000
      P    13      Py                   0.655     0.655     0.000
      P    13      Pz                   0.657     0.657    -0.000
      P    14      S                    0.863     0.862     0.001
      P    14      Px                   0.651     0.650     0.001
      P    14      Py                   0.666     0.662     0.003
      P    14      Pz                   0.665     0.662     0.003
      P    15      S                    0.867     0.867    -0.000
      P    15      Px                   0.657     0.657    -0.000
      P    15      Py                   0.655     0.655     0.000
      P    15      Pz                   0.658     0.658    -0.000
      P    16      S                    0.870     0.866     0.004
      P    16      Px                   0.654     0.645     0.009
      P    16      Py                   0.667     0.643     0.024
      P    16      Pz                   0.660     0.647     0.013
      P    17      S                    0.867     0.866     0.001
      P    17      Px                   0.659     0.659     0.000
      P    17      Py                   0.647     0.646     0.000
      P    17      Pz                   0.660     0.654     0.006
      P    18      S                    0.867     0.867     0.000
      P    18      Px                   0.655     0.655    -0.000
      P    18      Py                   0.659     0.659    -0.000
      P    18      Pz                   0.658     0.658    -0.000
      P    19      S                    0.868     0.868     0.000
      P    19      Px                   0.660     0.660     0.000
      P    19      Py                   0.662     0.661     0.002
      P    19      Pz                   0.648     0.648     0.000
      P    20      S                    0.867     0.867     0.000
      P    20      Px                   0.658     0.658     0.000
      P    20      Py                   0.658     0.657     0.001
      P    20      Pz                   0.655     0.655     0.000
      P    21      S                    0.868     0.867     0.001
      P    21      Px                   0.662     0.653     0.009
      P    21      Py                   0.654     0.652     0.003
      P    21      Pz                   0.661     0.657     0.004
      P    22      S                    0.864     0.863     0.001
      P    22      Px                   0.665     0.661     0.004
      P    22      Py                   0.653     0.652     0.001
      P    22      Pz                   0.664     0.659     0.004
      P    23      S                    0.866     0.866     0.000
      P    23      Px                   0.656     0.656     0.000
      P    23      Py                   0.657     0.656     0.000
      P    23      Pz                   0.659     0.658     0.000
      P    24      S                    0.867     0.867    -0.000
      P    24      Px                   0.658     0.658     0.000
      P    24      Py                   0.658     0.658     0.000
      P    24      Pz                   0.655     0.655    -0.000
      P    25      S                    0.867     0.867     0.000
      P    25      Px                   0.658     0.657     0.000
      P    25      Py                   0.656     0.656     0.000
      P    25      Pz                   0.656     0.656     0.000
      P    26      S                    0.865     0.865    -0.000
      P    26      Px                   0.659     0.659     0.000
      P    26      Py                   0.659     0.658     0.001
      P    26      Pz                   0.657     0.657     0.000
      P    27      S                    0.870     0.868     0.002
      P    27      Px                   0.654     0.654    -0.000
      P    27      Py                   0.654     0.654     0.000
      P    27      Pz                   0.649     0.650    -0.001
      P    28      S                    0.867     0.867    -0.000
      P    28      Px                   0.657     0.657    -0.000
      P    28      Py                   0.657     0.656     0.000
      P    28      Pz                   0.656     0.656     0.000
      P    29      S                    0.866     0.866     0.000
      P    29      Px                   0.658     0.658     0.000
      P    29      Py                   0.658     0.658     0.000
      P    29      Pz                   0.655     0.654     0.000
      P    30      S                    0.867     0.868    -0.000
      P    30      Px                   0.657     0.657     0.000
      P    30      Py                   0.657     0.657     0.000
      P    30      Pz                   0.656     0.656     0.000
      P    31      S                    0.867     0.867    -0.000
      P    31      Px                   0.658     0.658    -0.000
      P    31      Py                   0.655     0.655    -0.000
      P    31      Pz                   0.656     0.656    -0.000
      P    32      S                    0.867     0.867    -0.000
      P    32      Px                   0.655     0.655    -0.000
      P    32      Py                   0.657     0.657     0.000
      P    32      Pz                   0.657     0.657     0.000
      P    33      S                    0.886     0.880     0.007
      P    33      Px                   0.704     0.506     0.198
      P    33      Py                   0.716     0.705     0.011
      P    33      Pz                   0.557     0.518     0.040
     In     1      Dzz                  1.000     1.000     0.000
     In     1      Dzy                  0.998     0.998     0.000
     In     1      Dzx                  0.999     0.999    -0.000
     In     1      Dxx-yy               1.000     1.000    -0.000
     In     1      Dxy                  0.999     0.999    -0.000
     In     1      S                    0.706     0.706    -0.001
     In     1      Px                   0.234     0.234    -0.000
     In     1      Py                   0.239     0.239    -0.000
     In     1      Pz                   0.241     0.241    -0.000
     In     1      S                   -0.260    -0.253    -0.007
     In     2      Dzz                  0.999     0.999     0.000
     In     2      Dzy                  0.999     0.999     0.000
     In     2      Dzx                  0.999     0.998     0.000
     In     2      Dxx-yy               0.999     0.999     0.000
     In     2      Dxy                  0.999     0.998     0.001
     In     2      S                    0.690     0.693    -0.003
     In     2      Px                   0.239     0.236     0.002
     In     2      Py                   0.243     0.243     0.001
     In     2      Pz                   0.220     0.228    -0.008
     In     2      S                   -0.258    -0.258    -0.001
     In     3      Dzz                  1.000     1.000     0.000
     In     3      Dzy                  0.998     0.998     0.000
     In     3      Dzx                  0.998     0.998     0.000
     In     3      Dxx-yy               1.000     1.000    -0.000
     In     3      Dxy                  0.999     0.999     0.000
     In     3      S                    0.712     0.712    -0.000
     In     3      Px                   0.239     0.240    -0.000
     In     3      Py                   0.240     0.240    -0.000
     In     3      Pz                   0.241     0.240     0.001
     In     3      S                   -0.266    -0.271     0.006
     In     4      Dzz                  0.999     0.999     0.000
     In     4      Dzy                  0.998     0.998     0.000
     In     4      Dzx                  0.998     0.998     0.000
     In     4      Dxx-yy               0.999     0.999     0.000
     In     4      Dxy                  0.998     0.998     0.000
     In     4      S                    0.715     0.718    -0.003
     In     4      Px                   0.247     0.251    -0.005
     In     4      Py                   0.249     0.250    -0.001
     In     4      Pz                   0.240     0.234     0.005
     In     4      S                   -0.270    -0.270    -0.000
     In     5      Dzz                  1.000     1.000     0.000
     In     5      Dzy                  0.998     0.998     0.000
     In     5      Dzx                  0.998     0.998     0.000
     In     5      Dxx-yy               1.000     1.000     0.000
     In     5      Dxy                  0.998     0.998     0.000
     In     5      S                    0.710     0.707     0.002
     In     5      Px                   0.239     0.239    -0.000
     In     5      Py                   0.246     0.243     0.003
     In     5      Pz                   0.241     0.240     0.001
     In     5      S                   -0.267    -0.266    -0.001
     In     6      Dzz                  1.000     1.000     0.000
     In     6      Dzy                  0.999     0.999     0.000
     In     6      Dzx                  0.999     0.999     0.000
     In     6      Dxx-yy               1.000     1.000     0.000
     In     6      Dxy                  0.998     0.998     0.000
     In     6      S                    0.706     0.707    -0.001
     In     6      Px                   0.241     0.241     0.000
     In     6      Py                   0.242     0.242    -0.001
     In     6      Pz                   0.232     0.232    -0.001
     In     6      S                   -0.256    -0.259     0.003
     In     7      Dzz                  0.999     0.999     0.000
     In     7      Dzy                  0.998     0.998     0.000
     In     7      Dzx                  0.998     0.998    -0.000
     In     7      Dxx-yy               1.000     1.000     0.000
     In     7      Dxy                  0.998     0.998     0.000
     In     7      S                    0.711     0.710     0.001
     In     7      Px                   0.242     0.240     0.001
     In     7      Py                   0.251     0.249     0.002
     In     7      Pz                   0.240     0.240    -0.000
     In     7      S                   -0.268    -0.268     0.000
     In     8      Dzz                  1.000     1.000     0.000
     In     8      Dzy                  0.999     0.999     0.000
     In     8      Dzx                  0.999     0.999     0.000
     In     8      Dxx-yy               1.000     1.000     0.000
     In     8      Dxy                  0.998     0.998     0.000
     In     8      S                    0.710     0.711    -0.001
     In     8      Px                   0.240     0.241    -0.001
     In     8      Py                   0.240     0.240    -0.001
     In     8      Pz                   0.235     0.235    -0.001
     In     8      S                   -0.271    -0.266    -0.004
     In     9      Dzz                  1.000     1.000     0.000
     In     9      Dzy                  0.998     0.998    -0.000
     In     9      Dzx                  0.998     0.998     0.000
     In     9      Dxx-yy               1.000     1.000     0.000
     In     9      Dxy                  0.998     0.998     0.000
     In     9      S                    0.707     0.707     0.000
     In     9      Px                   0.240     0.240     0.000
     In     9      Py                   0.240     0.240    -0.000
     In     9      Pz                   0.243     0.242     0.001
     In     9      S                   -0.264    -0.263    -0.001
     In    10      Dzz                  1.000     1.000     0.000
     In    10      Dzy                  0.998     0.998     0.000
     In    10      Dzx                  0.998     0.998    -0.000
     In    10      Dxx-yy               1.000     1.000    -0.000
     In    10      Dxy                  0.998     0.998     0.000
     In    10      S                    0.712     0.712    -0.000
     In    10      Px                   0.240     0.240     0.001
     In    10      Py                   0.239     0.239    -0.000
     In    10      Pz                   0.242     0.241     0.001
     In    10      S                   -0.269    -0.271     0.003
     In    11      Dzz                  1.000     1.000    -0.000
     In    11      Dzy                  0.998     0.998    -0.000
     In    11      Dzx                  0.998     0.998    -0.000
     In    11      Dxx-yy               1.000     1.000    -0.000
     In    11      Dxy                  0.998     0.998    -0.000
     In    11      S                    0.716     0.715     0.001
     In    11      Px                   0.243     0.242     0.001
     In    11      Py                   0.242     0.242     0.001
     In    11      Pz                   0.248     0.247     0.002
     In    11      S                   -0.264    -0.265     0.000
     In    12      Dzz                  1.000     1.000     0.000
     In    12      Dzy                  0.999     0.999     0.000
     In    12      Dzx                  0.998     0.998     0.000
     In    12      Dxx-yy               1.000     1.000     0.000
     In    12      Dxy                  0.999     0.999     0.000
     In    12      S                    0.706     0.707    -0.001
     In    12      Px                   0.239     0.239     0.001
     In    12      Py                   0.233     0.233    -0.000
     In    12      Pz                   0.243     0.242     0.000
     In    12      S                   -0.255    -0.258     0.003
     In    13      Dzz                  1.000     1.000    -0.000
     In    13      Dzy                  0.998     0.998     0.000
     In    13      Dzx                  0.998     0.998     0.000
     In    13      Dxx-yy               1.000     1.000     0.000
     In    13      Dxy                  0.998     0.998     0.000
     In    13      S                    0.706     0.706     0.000
     In    13      Px                   0.241     0.241     0.000
     In    13      Py                   0.241     0.241    -0.000
     In    13      Pz                   0.243     0.243    -0.000
     In    13      S                   -0.264    -0.266     0.001
     In    14      Dzz                  1.000     1.000     0.000
     In    14      Dzy                  0.998     0.998    -0.000
     In    14      Dzx                  0.998     0.998    -0.000
     In    14      Dxx-yy               1.000     1.000    -0.000
     In    14      Dxy                  0.998     0.998     0.000
     In    14      S                    0.708     0.708     0.000
     In    14      Px                   0.248     0.248    -0.000
     In    14      Py                   0.238     0.238    -0.000
     In    14      Pz                   0.240     0.240    -0.000
     In    14      S                   -0.264    -0.266     0.002
     In    15      Dzz                  1.000     1.000     0.000
     In    15      Dzy                  0.998     0.998     0.000
     In    15      Dzx                  0.998     0.998     0.000
     In    15      Dxx-yy               1.000     1.000     0.000
     In    15      Dxy                  0.999     0.999     0.000
     In    15      S                    0.706     0.706    -0.000
     In    15      Px                   0.240     0.240    -0.000
     In    15      Py                   0.242     0.242    -0.000
     In    15      Pz                   0.242     0.242    -0.000
     In    15      S                   -0.265    -0.265    -0.000
     In    16      Dzz                  0.999     0.999    -0.000
     In    16      Dzy                  0.998     0.998     0.000
     In    16      Dzx                  0.998     0.998     0.000
     In    16      Dxx-yy               1.000     0.999     0.000
     In    16      Dxy                  0.998     0.998     0.000
     In    16      S                    0.713     0.714    -0.002
     In    16      Px                   0.252     0.252    -0.001
     In    16      Py                   0.239     0.240    -0.000
     In    16      Pz                   0.240     0.241    -0.000
     In    16      S                   -0.270    -0.270    -0.001
     In    17      Dzz                  1.000     0.999     0.000
     In    17      Dzy                  0.999     0.999     0.000
     In    17      Dzx                  0.998     0.998     0.000
     In    17      Dxx-yy               0.999     0.999     0.000
     In    17      Dxy                  0.999     0.998     0.001
     In    17      S                    0.700     0.694     0.006
     In    17      Px                   0.253     0.238     0.015
     In    17      Py                   0.246     0.238     0.008
     In    17      Pz                   0.220     0.234    -0.014
     In    17      S                   -0.262    -0.260    -0.002
     In    18      Dzz                  1.000     1.000     0.000
     In    18      Dzy                  0.999     0.999     0.000
     In    18      Dzx                  0.999     0.999     0.000
     In    18      Dxx-yy               1.000     1.000     0.000
     In    18      Dxy                  0.999     0.999     0.000
     In    18      S                    0.707     0.707     0.000
     In    18      Px                   0.235     0.236    -0.001
     In    18      Py                   0.239     0.239    -0.000
     In    18      Pz                   0.240     0.240    -0.000
     In    18      S                   -0.261    -0.257    -0.005
     In    19      Dzz                  0.999     0.999     0.000
     In    19      Dzy                  0.998     0.998     0.000
     In    19      Dzx                  0.998     0.998     0.000
     In    19      Dxx-yy               0.999     0.999     0.000
     In    19      Dxy                  0.998     0.998     0.000
     In    19      S                    0.711     0.720    -0.009
     In    19      Px                   0.246     0.255    -0.008
     In    19      Py                   0.243     0.251    -0.008
     In    19      Pz                   0.242     0.243    -0.000
     In    19      S                   -0.266    -0.269     0.003
     In    20      Dzz                  1.000     1.000     0.000
     In    20      Dzy                  0.998     0.998     0.000
     In    20      Dzx                  0.999     0.999    -0.000
     In    20      Dxx-yy               1.000     1.000     0.000
     In    20      Dxy                  0.998     0.998     0.000
     In    20      S                    0.713     0.714    -0.001
     In    20      Px                   0.240     0.240    -0.000
     In    20      Py                   0.240     0.240    -0.000
     In    20      Pz                   0.240     0.240     0.000
     In    20      S                   -0.264    -0.268     0.004
     In    21      Dzz                  1.000     1.000     0.000
     In    21      Dzy                  0.999     0.999     0.000
     In    21      Dzx                  0.999     0.999     0.000
     In    21      Dxx-yy               1.000     1.000     0.000
     In    21      Dxy                  0.998     0.998     0.000
     In    21      S                    0.705     0.705     0.000
     In    21      Px                   0.240     0.240     0.000
     In    21      Py                   0.242     0.242    -0.000
     In    21      Pz                   0.229     0.230    -0.001
     In    21      S                   -0.250    -0.262     0.012
     In    22      Dzz                  1.000     1.000     0.000
     In    22      Dzy                  0.998     0.998     0.000
     In    22      Dzx                  0.998     0.998     0.000
     In    22      Dxx-yy               1.000     1.000     0.000
     In    22      Dxy                  0.998     0.998     0.000
     In    22      S                    0.709     0.708     0.001
     In    22      Px                   0.240     0.240    -0.000
     In    22      Py                   0.244     0.242     0.003
     In    22      Pz                   0.241     0.240     0.000
     In    22      S                   -0.267    -0.265    -0.001
     In    23      Dzz                  1.000     1.000     0.000
     In    23      Dzy                  0.998     0.998     0.000
     In    23      Dzx                  0.999     0.999     0.000
     In    23      Dxx-yy               1.000     1.000     0.000
     In    23      Dxy                  0.998     0.998    -0.000
     In    23      S                    0.711     0.711    -0.000
     In    23      Px                   0.240     0.240    -0.000
     In    23      Py                   0.240     0.240    -0.000
     In    23      Pz                   0.238     0.238    -0.000
     In    23      S                   -0.273    -0.272    -0.001
     In    24      Dzz                  0.999     0.999     0.000
     In    24      Dzy                  0.998     0.998     0.000
     In    24      Dzx                  0.998     0.998    -0.000
     In    24      Dxx-yy               1.000     1.000    -0.000
     In    24      Dxy                  0.998     0.998     0.000
     In    24      S                    0.713     0.711     0.002
     In    24      Px                   0.241     0.238     0.003
     In    24      Py                   0.252     0.249     0.002
     In    24      Pz                   0.241     0.241     0.000
     In    24      S                   -0.268    -0.265    -0.003
     In    25      Dzz                  1.000     1.000    -0.000
     In    25      Dzy                  0.998     0.998    -0.000
     In    25      Dzx                  0.998     0.998    -0.000
     In    25      Dxx-yy               1.000     1.000    -0.000
     In    25      Dxy                  0.998     0.998     0.000
     In    25      S                    0.713     0.713     0.000
     In    25      Px                   0.241     0.241     0.000
     In    25      Py                   0.239     0.239     0.000
     In    25      Pz                   0.241     0.240     0.000
     In    25      S                   -0.268    -0.268     0.001
     In    26      Dzz                  1.000     1.000     0.000
     In    26      Dzy                  0.998     0.998    -0.000
     In    26      Dzx                  0.998     0.998     0.000
     In    26      Dxx-yy               1.000     1.000     0.000
     In    26      Dxy                  0.998     0.998    -0.000
     In    26      S                    0.706     0.706     0.000
     In    26      Px                   0.240     0.240     0.000
     In    26      Py                   0.240     0.239     0.000
     In    26      Pz                   0.246     0.245     0.001
     In    26      S                   -0.263    -0.262    -0.001
     In    27      Dzz                  1.000     1.000     0.000
     In    27      Dzy                  0.998     0.998     0.000
     In    27      Dzx                  0.998     0.998     0.000
     In    27      Dxx-yy               1.000     1.000     0.000
     In    27      Dxy                  0.999     0.999     0.000
     In    27      S                    0.708     0.708     0.000
     In    27      Px                   0.240     0.240     0.001
     In    27      Py                   0.234     0.235    -0.000
     In    27      Pz                   0.243     0.242     0.001
     In    27      S                   -0.258    -0.262     0.004
     In    28      Dzz                  1.000     1.000     0.000
     In    28      Dzy                  0.998     0.998    -0.000
     In    28      Dzx                  0.998     0.998    -0.000
     In    28      Dxx-yy               1.000     1.000    -0.000
     In    28      Dxy                  0.998     0.998    -0.000
     In    28      S                    0.714     0.711     0.002
     In    28      Px                   0.242     0.241     0.002
     In    28      Py                   0.242     0.241     0.001
     In    28      Pz                   0.243     0.242     0.002
     In    28      S                   -0.266    -0.266     0.000
     In    29      Dzz                  1.000     1.000    -0.000
     In    29      Dzy                  0.998     0.998    -0.000
     In    29      Dzx                  0.998     0.998     0.000
     In    29      Dxx-yy               1.000     1.000    -0.000
     In    29      Dxy                  0.998     0.998     0.000
     In    29      S                    0.710     0.708     0.002
     In    29      Px                   0.250     0.248     0.002
     In    29      Py                   0.237     0.237     0.000
     In    29      Pz                   0.241     0.240     0.001
     In    29      S                   -0.266    -0.266     0.000
     In    30      Dzz                  1.000     1.000     0.000
     In    30      Dzy                  0.998     0.998     0.000
     In    30      Dzx                  0.998     0.998     0.000
     In    30      Dxx-yy               1.000     1.000     0.000
     In    30      Dxy                  0.998     0.998    -0.000
     In    30      S                    0.707     0.707     0.000
     In    30      Px                   0.241     0.241     0.000
     In    30      Py                   0.241     0.241    -0.000
     In    30      Pz                   0.243     0.243    -0.000
     In    30      S                   -0.264    -0.265     0.001
     In    31      Dzz                  0.999     0.999     0.000
     In    31      Dzy                  0.998     0.998     0.000
     In    31      Dzx                  0.998     0.998     0.000
     In    31      Dxx-yy               1.000     0.999     0.000
     In    31      Dxy                  0.998     0.998     0.000
     In    31      S                    0.714     0.714    -0.001
     In    31      Px                   0.252     0.249     0.003
     In    31      Py                   0.241     0.242    -0.001
     In    31      Pz                   0.240     0.239     0.000
     In    31      S                   -0.272    -0.271    -0.002
     In    32      Dzz                  1.000     1.000    -0.000
     In    32      Dzy                  0.998     0.998     0.000
     In    32      Dzx                  0.998     0.998     0.000
     In    32      Dxx-yy               1.000     1.000     0.000
     In    32      Dxy                  0.998     0.998     0.000
     In    32      S                    0.705     0.705    -0.000
     In    32      Px                   0.240     0.240    -0.000
     In    32      Py                   0.242     0.242    -0.000
     In    32      Pz                   0.242     0.242     0.000
     In    32      S                   -0.265    -0.264    -0.002
  ---------------------------------------------------------------
                           Total:     290.995   290.004     0.990
  ---------------------------------------------------------------

     Atomic Populations (Mulliken)
     -----------------------------
Species          Ion Spin      s       p       d       f      Total   Charge(e)   Spin(hbar/2)
==============================================================================================
  P               1   up:     0.868   1.981   0.000   0.000   2.850    -0.673        0.026
                  1   dn:     0.866   1.957   0.000   0.000   2.823
  P               2   up:     0.892   2.081   0.000   0.000   2.973    -0.430        0.516
                  2   dn:     0.875   1.582   0.000   0.000   2.457
  P               3   up:     0.868   1.971   0.000   0.000   2.839    -0.673        0.006
                  3   dn:     0.867   1.966   0.000   0.000   2.834
  P               4   up:     0.867   1.978   0.000   0.000   2.845    -0.673        0.017
                  4   dn:     0.865   1.963   0.000   0.000   2.828
  P               5   up:     0.867   1.972   0.000   0.000   2.838    -0.663        0.014
                  5   dn:     0.865   1.960   0.000   0.000   2.825
  P               6   up:     0.867   1.970   0.000   0.000   2.838    -0.676       -0.000
                  6   dn:     0.867   1.971   0.000   0.000   2.838
  P               7   up:     0.867   1.971   0.000   0.000   2.837    -0.674        0.001
                  7   dn:     0.867   1.970   0.000   0.000   2.837
  P               8   up:     0.866   1.973   0.000   0.000   2.839    -0.676        0.002
                  8   dn:     0.866   1.971   0.000   0.000   2.837
  P               9   up:     0.866   1.971   0.000   0.000   2.838    -0.674        0.001
                  9   dn:     0.866   1.971   0.000   0.000   2.837
  P              10   up:     0.867   1.972   0.000   0.000   2.839    -0.678       -0.000
                 10   dn:     0.867   1.973   0.000   0.000   2.839
  P              11   up:     0.872   1.950   0.000   0.000   2.821    -0.638        0.005
                 11   dn:     0.869   1.947   0.000   0.000   2.816
  P              12   up:     0.868   1.963   0.000   0.000   2.832    -0.647        0.017
                 12   dn:     0.868   1.947   0.000   0.000   2.815
  P              13   up:     0.867   1.970   0.000   0.000   2.837    -0.674        0.000
                 13   dn:     0.867   1.970   0.000   0.000   2.837
  P              14   up:     0.863   1.981   0.000   0.000   2.844    -0.680        0.008
                 14   dn:     0.862   1.974   0.000   0.000   2.836
  P              15   up:     0.867   1.970   0.000   0.000   2.837    -0.674       -0.000
                 15   dn:     0.867   1.970   0.000   0.000   2.837
  P              16   up:     0.870   1.982   0.000   0.000   2.851    -0.653        0.050
                 16   dn:     0.866   1.936   0.000   0.000   2.802
  P              17   up:     0.867   1.966   0.000   0.000   2.833    -0.658        0.008
                 17   dn:     0.866   1.959   0.000   0.000   2.825
  P              18   up:     0.867   1.972   0.000   0.000   2.839    -0.678       -0.000
                 18   dn:     0.867   1.972   0.000   0.000   2.839
  P              19   up:     0.868   1.970   0.000   0.000   2.838    -0.674        0.003
                 19   dn:     0.868   1.968   0.000   0.000   2.835
  P              20   up:     0.867   1.971   0.000   0.000   2.838    -0.675        0.001
                 20   dn:     0.867   1.970   0.000   0.000   2.837
  P              21   up:     0.868   1.978   0.000   0.000   2.846    -0.675        0.018
                 21   dn:     0.867   1.961   0.000   0.000   2.828
  P              22   up:     0.864   1.982   0.000   0.000   2.846    -0.681        0.011
                 22   dn:     0.863   1.972   0.000   0.000   2.835
  P              23   up:     0.866   1.972   0.000   0.000   2.838    -0.675        0.001
                 23   dn:     0.866   1.971   0.000   0.000   2.837
  P              24   up:     0.867   1.971   0.000   0.000   2.838    -0.675        0.000
                 24   dn:     0.867   1.971   0.000   0.000   2.837
  P              25   up:     0.867   1.971   0.000   0.000   2.837    -0.674        0.001
                 25   dn:     0.867   1.970   0.000   0.000   2.837
  P              26   up:     0.865   1.975   0.000   0.000   2.839    -0.678        0.001
                 26   dn:     0.865   1.973   0.000   0.000   2.838
  P              27   up:     0.870   1.957   0.000   0.000   2.827    -0.653        0.001
                 27   dn:     0.868   1.958   0.000   0.000   2.826
  P              28   up:     0.867   1.970   0.000   0.000   2.837    -0.674        0.000
                 28   dn:     0.867   1.970   0.000   0.000   2.837
  P              29   up:     0.866   1.971   0.000   0.000   2.838    -0.675        0.001
                 29   dn:     0.866   1.970   0.000   0.000   2.837
  P              30   up:     0.867   1.970   0.000   0.000   2.837    -0.674        0.000
                 30   dn:     0.868   1.970   0.000   0.000   2.837
  P              31   up:     0.867   1.969   0.000   0.000   2.836    -0.673       -0.001
                 31   dn:     0.867   1.969   0.000   0.000   2.837
  P              32   up:     0.867   1.970   0.000   0.000   2.837    -0.673        0.001
                 32   dn:     0.867   1.969   0.000   0.000   2.836
  P              33   up:     0.886   1.978   0.000   0.000   2.864    -0.472        0.256
                 33   dn:     0.880   1.728   0.000   0.000   2.608
  In              1   up:     0.445   0.713   4.995   0.000   6.154     0.684       -0.009
                  1   dn:     0.453   0.714   4.995   0.000   6.162
  In              2   up:     0.431   0.702   4.995   0.000   6.128     0.736       -0.008
                  2   dn:     0.435   0.707   4.994   0.000   6.136
  In              3   up:     0.446   0.720   4.995   0.000   6.161     0.683        0.005
                  3   dn:     0.441   0.720   4.995   0.000   6.156
  In              4   up:     0.446   0.736   4.993   0.000   6.175     0.648       -0.003
                  4   dn:     0.449   0.736   4.993   0.000   6.177
  In              5   up:     0.442   0.726   4.994   0.000   6.163     0.680        0.006
                  5   dn:     0.441   0.722   4.994   0.000   6.157
  In              6   up:     0.450   0.715   4.995   0.000   6.160     0.682        0.002
                  6   dn:     0.447   0.716   4.995   0.000   6.158
  In              7   up:     0.443   0.732   4.994   0.000   6.169     0.666        0.004
                  7   dn:     0.442   0.729   4.994   0.000   6.165
  In              8   up:     0.439   0.715   4.995   0.000   6.149     0.695       -0.007
                  8   dn:     0.445   0.717   4.995   0.000   6.156
  In              9   up:     0.443   0.723   4.995   0.000   6.160     0.680        0.000
                  9   dn:     0.443   0.722   4.995   0.000   6.160
  In             10   up:     0.443   0.721   4.995   0.000   6.159     0.686        0.004
                 10   dn:     0.441   0.720   4.995   0.000   6.155
  In             11   up:     0.452   0.733   4.994   0.000   6.180     0.646        0.005
                 11   dn:     0.451   0.730   4.994   0.000   6.175
  In             12   up:     0.451   0.715   4.995   0.000   6.161     0.681        0.002
                 12   dn:     0.449   0.714   4.995   0.000   6.158
  In             13   up:     0.442   0.725   4.994   0.000   6.161     0.679        0.002
                 13   dn:     0.440   0.725   4.994   0.000   6.160
  In             14   up:     0.445   0.725   4.994   0.000   6.164     0.673        0.002
                 14   dn:     0.442   0.726   4.994   0.000   6.162
  In             15   up:     0.440   0.724   4.995   0.000   6.159     0.682       -0.000
                 15   dn:     0.441   0.724   4.995   0.000   6.159
  In             16   up:     0.443   0.731   4.994   0.000   6.168     0.660       -0.004
                 16   dn:     0.445   0.733   4.994   0.000   6.172
  In             17   up:     0.438   0.719   4.995   0.000   6.152     0.710        0.014
                 17   dn:     0.434   0.710   4.994   0.000   6.138
  In             18   up:     0.446   0.715   4.995   0.000   6.155     0.684       -0.006
                 18   dn:     0.451   0.716   4.995   0.000   6.161
  In             19   up:     0.445   0.732   4.993   0.000   6.170     0.638       -0.022
                 19   dn:     0.452   0.748   4.992   0.000   6.192
  In             20   up:     0.449   0.720   4.995   0.000   6.163     0.677        0.003
                 20   dn:     0.445   0.720   4.995   0.000   6.160
  In             21   up:     0.456   0.711   4.995   0.000   6.162     0.687        0.011
                 21   dn:     0.444   0.713   4.995   0.000   6.151
  In             22   up:     0.442   0.725   4.994   0.000   6.162     0.680        0.003
                 22   dn:     0.442   0.722   4.994   0.000   6.159
  In             23   up:     0.438   0.717   4.995   0.000   6.150     0.699       -0.002
                 23   dn:     0.439   0.718   4.995   0.000   6.152
  In             24   up:     0.445   0.734   4.994   0.000   6.173     0.660        0.005
                 24   dn:     0.445   0.728   4.994   0.000   6.168
  In             25   up:     0.445   0.721   4.995   0.000   6.161     0.680        0.002
                 25   dn:     0.444   0.720   4.995   0.000   6.159
  In             26   up:     0.444   0.725   4.994   0.000   6.163     0.675        0.000
                 26   dn:     0.444   0.724   4.994   0.000   6.163
  In             27   up:     0.449   0.717   4.995   0.000   6.161     0.683        0.005
                 27   dn:     0.445   0.716   4.995   0.000   6.156
  In             28   up:     0.448   0.728   4.994   0.000   6.170     0.666        0.007
                 28   dn:     0.446   0.724   4.995   0.000   6.164
  In             29   up:     0.445   0.727   4.994   0.000   6.166     0.673        0.005
                 29   dn:     0.443   0.725   4.994   0.000   6.161
  In             30   up:     0.442   0.724   4.995   0.000   6.161     0.678        0.001
                 30   dn:     0.441   0.724   4.994   0.000   6.160
  In             31   up:     0.441   0.733   4.994   0.000   6.168     0.664        0.001
                 31   dn:     0.443   0.730   4.994   0.000   6.167
  In             32   up:     0.440   0.725   4.995   0.000   6.159     0.681       -0.002
                 32   dn:     0.441   0.725   4.995   0.000   6.161
==============================================================================================

                 Bond                   Population        Spin       Length (A)
================================================================================
              P 2  -- P 33                   0.47        -0.10          2.10662
              P 2  -- In 19                  0.75        -0.01          2.46899
              P 33 -- In 4                   0.73         0.01          2.48313
              P 17 -- In 24                  0.68         0.00          2.50844
              P 5  -- In 7                   0.68         0.00          2.51058
              P 8  -- In 4                   0.64         0.00          2.51514
              P 22 -- In 24                  0.67        -0.00          2.51695
              P 16 -- In 31                  0.65         0.00          2.51762
              P 19 -- In 19                  0.67        -0.00          2.51774
              P 22 -- In 7                   0.67        -0.00          2.51892
              P 4  -- In 19                  0.63         0.00          2.51955
              P 14 -- In 29                  0.67        -0.00          2.52226
              P 14 -- In 16                  0.66         0.00          2.52240
              P 1  -- In 2                   0.68        -0.00          2.52274
              P 14 -- In 31                  0.66        -0.00          2.52434
              P 12 -- In 16                  0.63         0.00          2.52505
              P 14 -- In 14                  0.67        -0.00          2.52761
              P 4  -- In 29                  0.64        -0.00          2.52815
              P 26 -- In 26                  0.68         0.00          2.53296
              P 26 -- In 11                  0.65        -0.00          2.53392
              P 21 -- In 17                  0.67        -0.01          2.53425
              P 22 -- In 5                   0.68        -0.00          2.53536
              P 3  -- In 4                   0.66        -0.01          2.53655
              P 12 -- In 2                   0.63        -0.01          2.53787
              P 33 -- In 17                  0.63         0.05          2.53851
              P 8  -- In 14                  0.63        -0.00          2.53924
              P 22 -- In 22                  0.67        -0.00          2.53982
              P 11 -- In 11                  0.61        -0.00          2.54040
              P 9  -- In 13                  0.67         0.00          2.54308
              P 26 -- In 9                   0.67         0.00          2.54341
              P 10 -- In 25                  0.66        -0.00          2.54368
              P 18 -- In 20                  0.66         0.00          2.54394
              P 18 -- In 3                   0.66         0.00          2.54487
              P 29 -- In 30                  0.67        -0.00          2.54516
              P 31 -- In 31                  0.66         0.00          2.54517
              P 7  -- In 13                  0.67         0.00          2.54566
              P 31 -- In 32                  0.67        -0.00          2.54570
              P 16 -- In 17                  0.61        -0.02          2.54578
              P 26 -- In 28                  0.66        -0.00          2.54626
              P 25 -- In 26                  0.67        -0.00          2.54629
              P 1  -- In 5                   0.63        -0.00          2.54637
              P 28 -- In 32                  0.67         0.00          2.54641
              P 10 -- In 10                  0.66        -0.00          2.54681
              P 9  -- In 16                  0.66         0.00          2.54687
              P 25 -- In 29                  0.66        -0.00          2.54691
              P 6  -- In 8                   0.66         0.00          2.54702
              P 13 -- In 14                  0.67        -0.00          2.54703
              P 20 -- In 13                  0.66        -0.00          2.54703
              P 23 -- In 30                  0.66         0.00          2.54709
              P 15 -- In 15                  0.66         0.00          2.54713
              P 13 -- In 9                   0.67        -0.00          2.54716
              P 24 -- In 30                  0.67        -0.00          2.54747
              P 7  -- In 7                   0.65        -0.00          2.54780
              P 4  -- In 10                  0.66        -0.00          2.54792
              P 12 -- In 27                  0.68         0.00          2.54846
              P 29 -- In 25                  0.66        -0.00          2.54848
              P 23 -- In 29                  0.66         0.00          2.54875
              P 16 -- In 12                  0.68         0.00          2.54903
              P 29 -- In 31                  0.66         0.00          2.54920
              P 7  -- In 14                  0.67         0.00          2.54971
              P 15 -- In 16                  0.66        -0.00          2.54978
              P 11 -- In 2                   0.66         0.00          2.54981
              P 32 -- In 15                  0.67        -0.00          2.54993
              P 28 -- In 5                   0.67        -0.00          2.55008
              P 20 -- In 24                  0.65         0.00          2.55033
              P 20 -- In 26                  0.66        -0.00          2.55038
              P 23 -- In 23                  0.67         0.00          2.55056
              P 31 -- In 22                  0.67         0.00          2.55058
              P 27 -- In 28                  0.63        -0.00          2.55080
              P 9  -- In 10                  0.66        -0.00          2.55086
              P 1  -- In 8                   0.66         0.00          2.55092
              P 32 -- In 22                  0.67         0.00          2.55110
              P 24 -- In 20                  0.66         0.00          2.55111
              P 24 -- In 7                   0.66         0.00          2.55120
              P 21 -- In 22                  0.63        -0.00          2.55138
              P 17 -- In 18                  0.68         0.00          2.55141
              P 15 -- In 5                   0.67         0.00          2.55147
              P 23 -- In 24                  0.65        -0.00          2.55168
              P 5  -- In 1                   0.68         0.00          2.55177
              P 25 -- In 32                  0.66         0.00          2.55181
              P 1  -- In 3                   0.65        -0.00          2.55199
              P 32 -- In 28                  0.66         0.00          2.55201
              P 27 -- In 17                  0.66         0.00          2.55241
              P 8  -- In 25                  0.65        -0.00          2.55266
              P 21 -- In 23                  0.67         0.00          2.55303
              P 15 -- In 6                   0.66         0.00          2.55322
              P 10 -- In 27                  0.65         0.00          2.55340
              P 28 -- In 11                  0.65         0.00          2.55341
              P 19 -- In 26                  0.63         0.00          2.55346
              P 6  -- In 23                  0.66        -0.00          2.55350
              P 5  -- In 6                   0.66        -0.00          2.55355
              P 30 -- In 15                  0.66        -0.00          2.55388
              P 13 -- In 15                  0.66        -0.00          2.55408
              P 30 -- In 30                  0.66        -0.00          2.55418
              P 6  -- In 21                  0.65         0.00          2.55452
              P 10 -- In 12                  0.65         0.00          2.55456
              P 20 -- In 3                   0.66        -0.00          2.55492
              P 4  -- In 8                   0.68         0.00          2.55506
              P 24 -- In 9                   0.66        -0.00          2.55520
              P 21 -- In 20                  0.64        -0.00          2.55559
              P 17 -- In 21                  0.66        -0.00          2.55575
              P 9  -- In 11                  0.65        -0.00          2.55610
              P 5  -- In 4                   0.56        -0.01          2.55624
              P 8  -- In 23                  0.68         0.00          2.55650
              P 30 -- In 32                  0.66         0.00          2.55656
              P 27 -- In 27                  0.66        -0.00          2.55674
              P 30 -- In 13                  0.66        -0.00          2.55679
              P 3  -- In 9                   0.64         0.00          2.55737
              P 3  -- In 10                  0.65         0.00          2.55776
              P 29 -- In 28                  0.65        -0.00          2.55780
              P 19 -- In 25                  0.65         0.00          2.55789
              P 18 -- In 18                  0.65        -0.00          2.55806
              P 18 -- In 1                   0.64        -0.00          2.55877
              P 16 -- In 6                   0.65         0.00          2.55905
              P 13 -- In 12                  0.65         0.00          2.55949
              P 3  -- In 3                   0.66         0.00          2.56071
              P 25 -- In 27                  0.65         0.00          2.56080
              P 11 -- In 12                  0.66        -0.01          2.56105
              P 6  -- In 6                   0.65         0.00          2.56124
              P 12 -- In 21                  0.64        -0.00          2.56174
              P 28 -- In 18                  0.64        -0.00          2.56469
              P 7  -- In 8                   0.65        -0.00          2.56520
              P 19 -- In 20                  0.66        -0.00          2.56528
              P 11 -- In 1                   0.65         0.01          2.56554
              P 32 -- In 1                   0.64        -0.00          2.56671
              P 27 -- In 18                  0.65         0.00          2.56772
              P 31 -- In 21                  0.64         0.00          2.56974
              P 17 -- In 19                  0.54         0.00          2.57138
              P 2  -- In 2                   0.55         0.02          2.57520
              P 33 -- In 2                  -0.01        -0.03          2.98379
================================================================================

 Hirshfeld supercell size:           2           2           2
Standard grid dimensions: 240 240 240
Fine grid dimensions:     240 240 240


     Hirshfeld Analysis
     ------------------
Species   Ion     Hirshfeld Charge (e)  Spin (hbar/2)
===================================================
  P        1                -0.23        0.02
  P        2                -0.15        0.39
  P        3                -0.23        0.00
  P        4                -0.24        0.02
  P        5                -0.24        0.01
  P        6                -0.23        0.00
  P        7                -0.24        0.00
  P        8                -0.24        0.00
  P        9                -0.24        0.00
  P       10                -0.24       -0.00
  P       11                -0.23        0.01
  P       12                -0.23        0.01
  P       13                -0.24        0.00
  P       14                -0.24        0.01
  P       15                -0.24        0.00
  P       16                -0.23        0.04
  P       17                -0.24        0.01
  P       18                -0.24        0.00
  P       19                -0.23        0.00
  P       20                -0.24        0.00
  P       21                -0.23        0.02
  P       22                -0.24        0.01
  P       23                -0.24        0.00
  P       24                -0.24        0.00
  P       25                -0.24        0.00
  P       26                -0.24        0.00
  P       27                -0.23        0.01
  P       28                -0.24        0.00
  P       29                -0.24        0.00
  P       30                -0.24        0.00
  P       31                -0.24       -0.00
  P       32                -0.24        0.00
  P       33                -0.18        0.22
  In       1                 0.25        0.00
  In       2                 0.26        0.04
  In       3                 0.25        0.00
  In       4                 0.22        0.02
  In       5                 0.24        0.01
  In       6                 0.25        0.00
  In       7                 0.23        0.00
  In       8                 0.25        0.00
  In       9                 0.24        0.00
  In      10                 0.24        0.00
  In      11                 0.23        0.00
  In      12                 0.25        0.00
  In      13                 0.23        0.00
  In      14                 0.23        0.00
  In      15                 0.24        0.00
  In      16                 0.23        0.00
  In      17                 0.25        0.05
  In      18                 0.25        0.00
  In      19                 0.22        0.02
  In      20                 0.25        0.00
  In      21                 0.25        0.00
  In      22                 0.24        0.00
  In      23                 0.25        0.00
  In      24                 0.23        0.01
  In      25                 0.24        0.00
  In      26                 0.24        0.00
  In      27                 0.25        0.00
  In      28                 0.24        0.00
  In      29                 0.23        0.00
  In      30                 0.24        0.00
  In      31                 0.23        0.01
  In      32                 0.24        0.00
===================================================

 
 A BibTeX formatted list of references used in this run has been written to 
 P_Interstitial_Migration_Dumbbell_Dumbbell+_Singlepoints_5.bib
 
Initialisation time =     32.92 s
Calculation time    =   7819.68 s
Finalisation time   =    162.79 s
Total time          =   8015.39 s
Peak Memory Use     = 9617320 kB
 
Overall parallel efficiency rating: Poor (35%)
 
Data was distributed by:-
G-vector (3-way); efficiency rating: Poor (38%)
k-point (36-way); efficiency rating: Very good (82%)
