 +-------------------------------------------------+
 |                                                 |
 |      CCC   AA    SSS  TTTTT  EEEEE  PPPP        |
 |     C     A  A  S       T    E      P   P       |
 |     C     AAAA   SS     T    EEE    PPPP        |
 |     C     A  A     S    T    E      P           |
 |      CCC  A  A  SSS     T    EEEEE  P           |
 |                                                 |
 +-------------------------------------------------+
 |                                                 |
 | Welcome to Academic Release CASTEP version 24.1 |
 | Ab Initio Total Energy Program                  |
 |                                                 |
 | Authors:                                        |
 | M. Segall, M. Probert, C. Pickard, P. Hasnip,   |
 | S. Clark, K. Refson, J. R. Yates,               |
 | A. Bartok-Partay, M. Payne                      |
 |                                                 |
 | Contributors:                                   |
 | P. Lindan, P. Haynes, J. White, V. Milman,      |
 | N. Govind, M. Gibson, P. Tulip, V. Cocula,      |
 | B. Montanari, D. Quigley, M. Glover,            |
 | L. Bernasconi, A. Perlov, M. Plummer,           |
 | E. McNellis, J. Meyer, J. Gale, D. Jochym       |
 | J. Aarons, B. Walker, R. Gillen, D. Jones       |
 | T. Green, I. J. Bush, C. J. Armstrong,          |
 | E. J. Higgins, E. L. Brown, M. S. McFly,        |
 | J. Wilkins, B-C. Shih, P. J. P. Byrne,          |
 | R. J. Maurer, J. C. Womack, J. Dziedzic,        |
 | L. LeBlanc, T. K. Stenczel, J. Kermode,         |
 | S. Sturniolo, B. Shi, B. Durham, M. Evans,      |
 | M. J. Smith, A. Tamerus, Z. Hawkhead,           |
 | V. Ravindran, T. Hollins, S. A. Joyce,          |
 | R. T. Strong, A. M. Reilly, S. J. Donaldson     |
 |                                                 |
 | Copyright (c) 2000 - 2023                       |
 |                                                 |
 |     Distributed under license from Cambridge    |
 |     Enterprise for academic use only.           |
 |                                                 |
 | Please cite                                     |
 |                                                 |
 |     "First principles methods using CASTEP"     |
 |                                                 |
 |         Zeitschrift fuer Kristallographie       |
 |           220(5-6) pp. 567-570 (2005)           |
 |                                                 |
 | S. J. Clark, M. D. Segall, C. J. Pickard,       |
 | P. J. Hasnip, M. J. Probert, K. Refson,         |
 | M. C. Payne                                     |
 |                                                 |
 |       in all publications arising from          |
 |              your use of CASTEP                 |
 |                                                 |
 +-------------------------------------------------+
 |                                                 |
 |              http://www.castep.org              |
 |                                                 |
 +-------------------------------------------------+



 Compiled for  GNU 11.2.0 on 04-04-2024 18:39:17
 from code version 6355fd106 Castep241_branch Thu Mar 7 17:56:19 2024 +0000
 Compiler: GNU Fortran 11.2.0; Optimisation: FAST
 Comms   : MPI VERSION : CRAY MPICH version 8.1.23.14 (ANL base 3.4a2)
 MATHLIBS: default (LAPACK version 3.10.1)
 FFT Lib : fftw3 version commercial-fftw-3.3.10-sse2-avx-avx2-avx2_128
 Fundamental constants values: CODATA 2018

 Run started: Tue, 29 Apr 2025 13:33:18 +0100

 Atomic calculation performed for P: 1s2 2s2 2p6 3s2 3p3

 Converged in 47 iterations to an ae energy of -9309.074 eV

   ============================================================                
   | Pseudopotential Report - Date of generation 29-04-2025   |                
   ------------------------------------------------------------                
   | Element: P Ionic charge:  5.00 Level of theory: RSCAN    |                
   | Atomic Solver: Koelling-Harmon                           |                
   |                                                          |                
   |               Reference Electronic Structure             |                
   |         Orbital         Occupation         Energy        |                
   |            3s              2.000           -0.535        |                
   |            3p              3.000           -0.209        |                
   |                                                          |                
   |                 Pseudopotential Definition               |                
   |        Beta     l      e      Rc     scheme   norm       |                
   |          1      0   -0.535   1.807     qc      0         |                
   |          2      0    0.250   1.807     qc      0         |                
   |          3      1   -0.209   1.807     qc      0         |                
   |          4      1    0.250   1.807     qc      0         |                
   |          5      2    0.000   1.807     qc      0         |                
   |          6      2    0.250   1.807     qc      0         |                
   |         loc     3    0.000   1.807     pn      0         |                
   |                                                          |                
   | Augmentation charge Rinner = 1.263                       |                
   | Partial core correction Rc = 1.263                       |                
   ------------------------------------------------------------                
   | "3|1.8|4|4|5|30:31:32"                                   |                
   ------------------------------------------------------------                
   |      Author: Chris J. Pickard, Cambridge University      |                
   ============================================================                
 Warning: otfg_output_psp cannot write out meta-GGA pseudopotentials presently.

 Atomic calculation performed for In:
 1s2 2s2 2p6 3s2 3p6 3d10 4s2 4p6 4d10 5s2 5p1

 Converged in 84 iterations to an ae energy of -160093.328 eV

   ============================================================                
   | Pseudopotential Report - Date of generation 29-04-2025   |                
   ------------------------------------------------------------                
   | Element: In Ionic charge: 13.00 Level of theory: RSCAN   |                
   | Atomic Solver: Koelling-Harmon                           |                
   |                                                          |                
   |               Reference Electronic Structure             |                
   |         Orbital         Occupation         Energy        |                
   |            4d             10.000           -0.711        |                
   |            5s              2.000           -0.313        |                
   |            5p              1.000           -0.095        |                
   |                                                          |                
   |                 Pseudopotential Definition               |                
   |        Beta     l      e      Rc     scheme   norm       |                
   |          1      0   -0.313   2.501     qc      0         |                
   |          2      0    0.250   2.501     qc      0         |                
   |          3      1   -0.095   2.501     qc      0         |                
   |          4      1    0.250   2.501     qc      0         |                
   |          5      2   -0.711   2.207     qc      0         |                
   |          6      2    0.250   2.207     qc      0         |                
   |         loc     3    0.000   2.501     pn      0         |                
   |                                                          |                
   | Augmentation charge Rinner = 1.504                       |                
   | Partial core correction Rc = 1.504                       |                
   ------------------------------------------------------------                
   | "3|2.5|2.5|1.5|7|8|9|50:51:42U2.2U2.2"                   |                
   ------------------------------------------------------------                
   |      Author: Chris J. Pickard, Cambridge University      |                
   ============================================================                
 Warning: otfg_output_psp cannot write out meta-GGA pseudopotentials presently.

 Pseudo atomic calculation performed for P 3s2 3p3

 Converged in 23 iterations to a total energy of -208.0292 eV

 Pseudo atomic calculation performed for In 4d10 5s2 5p1

 Converged in 42 iterations to a total energy of -1747.4501 eV
 Calculation parallelised over 108 processes.
 Data is distributed by G-vector(3-way) and k-point(36-way)
 Each process may use up to 16 threads.

 ************************************ Title ************************************
 

 ***************************** General Parameters ******************************
  
 output verbosity                               : normal  (1)
 write checkpoint data to                       : P_Interstitial_Migration_Dumbbell_Dumbbell+_Singlepoints_5.check
 type of calculation                            : single point energy
 stress calculation                             : off
 density difference calculation                 : off
 electron localisation func (ELF) calculation   : off
 Hirshfeld analysis                             : on
 polarisation (Berry phase) analysis            : off
 molecular orbital projected DOS                : off
 deltaSCF calculation                           : off
 unlimited duration calculation
 timing information                             : on
 memory usage estimate                          : on
 write extra output files                       : on
 write final potential to formatted file        : off
 write final density to formatted file          : off
 write BibTeX reference list                    : on
 write OTFG pseudopotential files               : on
 write electrostatic potential file             : on
 write bands file                               : on
 checkpoint writing                             : off
  
 output         length unit                     : A
 output           mass unit                     : amu
 output           time unit                     : ps
 output         charge unit                     : e
 output           spin unit                     : hbar/2
 output         energy unit                     : eV
 output          force unit                     : eV/A
 output       velocity unit                     : A/ps
 output       pressure unit                     : GPa
 output     inv_length unit                     : 1/A
 output      frequency unit                     : cm-1
 output force constant unit                     : eV/A**2
 output         volume unit                     : A**3
 output   IR intensity unit                     : (D/A)**2/amu
 output         dipole unit                     : D
 output         efield unit                     : eV/A/e
 output        entropy unit                     : J/mol/K
 output    efield chi2 unit                     : pm/V
  
 wavefunctions paging                           : none
 random number generator seed                   :  133318753
 data distribution                              : optimal for this architecture
 optimization strategy                          : balance speed and memory

 *********************** Exchange-Correlation Parameters ***********************
  
 using functional                               : RSCAN
 relativistic treatment                         : Koelling-Harmon
 DFT+D: Semi-empirical dispersion correction    : off

 ************************* Pseudopotential Parameters **************************
  
 pseudopotential representation                 : reciprocal space
 <beta|phi> representation                      : reciprocal space
 spin-orbit coupling                            : off

 **************************** Basis Set Parameters *****************************
  
 plane wave basis set cut-off                   :   900.0000   eV
 size of standard grid                          :     2.0000
 size of   fine   gmax                          :    30.7390   1/A
 finite basis set correction                    : none

 **************************** Electronic Parameters ****************************
  
 number of  electrons                           :  581.0    
 net charge of system                           :  0.000    
 net spin   of system                           :  1.000    
 number of  up  spins                           :  291.0    
 number of down spins                           :  290.0    
 treating system as spin-polarized
 number of bands                                :        349

 ********************* Electronic Minimization Parameters **********************
  
 Method: Treating system as metallic with density mixing treatment of electrons,
         and number of  SD  steps               :          1
         and number of  CG  steps               :          4
  
 total energy / atom convergence tol.           : 0.1000E-07   eV
 eigen-energy convergence tolerance             : 0.2234E-08   eV
 max force / atom convergence tol.              : ignored
 convergence tolerance window                   :          3   cycles
 max. number of SCF cycles                      :        100
 number of fixed-spin iterations                :         10
 smearing scheme                                : Gaussian
 smearing width                                 : 0.2000       eV
 Fermi energy convergence tolerance             : 0.2721E-13   eV
 periodic dipole correction                     : NONE

 ************************** Density Mixing Parameters **************************
  
 density-mixing scheme                          : Pulay
 max. length of mixing history                  :         20
 charge density mixing amplitude                : 0.5000    
   spin density mixing amplitude                :  2.000    
 cut-off energy for mixing                      :  900.0       eV

 *********************** Population Analysis Parameters ************************
  
 Population analysis with cutoff                :  3.000       A
 Population analysis output                     : summary and pdos components

 *******************************************************************************
  

                           -------------------------------
                                      Unit Cell
                           -------------------------------
        Real Lattice(A)                      Reciprocal Lattice(1/A)
    11.8016820    -0.0000080    -0.0000080        0.532397442   0.000000361   0.000000361
    -0.0000080    11.8016820    -0.0000080        0.000000361   0.532397442   0.000000361
    -0.0000080    -0.0000080    11.8016820        0.000000361   0.000000361   0.532397442

                       Lattice parameters(A)       Cell Angles
                    a =     11.801682          alpha =   90.000078
                    b =     11.801682          beta  =   90.000078
                    c =     11.801682          gamma =   90.000078

                       Current cell volume =          1643.734705       A**3
                                   density =             2.857097   AMU/A**3
                                           =             4.744322     g/cm^3

                           -------------------------------
                                     Cell Contents
                           -------------------------------
                         Total number of ions in cell =   65
                      Total number of species in cell =    2
                        Max number of any one species =   33

            xxxxxxxxxxxxxxxxxxxxxxxxxxxxxxxxxxxxxxxxxxxxxxxxxxxxxxxxxxxx
            x  Element    Atom        Fractional coordinates of atoms  x
            x            Number           u          v          w      x
            x----------------------------------------------------------x
            x  P            1         0.116951   0.124905   0.378916   x 
            x  P            2         0.411112   0.096475   0.209641   x 
            x  P            3         0.124529   0.373967   0.123021   x 
            x  P            4         0.371829   0.382798   0.378126   x 
            x  P            5         0.117355   0.125164   0.862657   x 
            x  P            6         0.373620   0.124017   0.621151   x 
            x  P            7         0.123570   0.373840   0.621972   x 
            x  P            8         0.377273   0.378098   0.869101   x 
            x  P            9         0.121364   0.622986   0.371544   x 
            x  P           10         0.373479   0.626723   0.122163   x 
            x  P           11         0.121860   0.871801   0.124694   x 
            x  P           12         0.373142   0.863067   0.384461   x 
            x  P           13         0.123050   0.624176   0.874556   x 
            x  P           14         0.372864   0.619034   0.625239   x 
            x  P           15         0.120688   0.871173   0.622318   x 
            x  P           16         0.372472   0.865930   0.860791   x 
            x  P           17         0.630054   0.128104   0.379129   x 
            x  P           18         0.874205   0.123784   0.122199   x 
            x  P           19         0.627618   0.379365   0.119698   x 
            x  P           20         0.874650   0.374053   0.372738   x 
            x  P           21         0.624408   0.125533   0.870806   x 
            x  P           22         0.871207   0.120904   0.624937   x 
            x  P           23         0.625653   0.375010   0.622627   x 
            x  P           24         0.874092   0.374160   0.872524   x 
            x  P           25         0.623665   0.625325   0.372369   x 
            x  P           26         0.872848   0.622775   0.122100   x 
            x  P           27         0.621612   0.875299   0.120960   x 
            x  P           28         0.870957   0.873923   0.370357   x 
            x  P           29         0.625220   0.625063   0.872233   x 
            x  P           30         0.873574   0.623828   0.622569   x 
            x  P           31         0.624195   0.874245   0.621358   x 
            x  P           32         0.874941   0.874056   0.875420   x 
            x  P           33         0.321892   0.082751   0.055904   x 
            x  In           1         0.002326   0.001278  -0.002617   x 
            x  In           2         0.235159  -0.017003   0.271253   x 
            x  In           3        -0.001690   0.248412   0.246969   x 
            x  In           4         0.238661   0.260658  -0.019541   x 
            x  In           5        -0.006627  -0.004051   0.499978   x 
            x  In           6         0.246416  -0.001711   0.744100   x 
            x  In           7        -0.005939   0.250021   0.742419   x 
            x  In           8         0.249446   0.248873   0.496365   x 
            x  In           9        -0.001478   0.498786  -0.001536   x 
            x  In          10         0.248948   0.501592   0.246264   x 
            x  In          11        -0.004520   0.747375   0.246708   x 
            x  In          12         0.249261   0.751719  -0.003478   x 
            x  In          13        -0.001165   0.498571   0.497824   x 
            x  In          14         0.245830   0.498831   0.748904   x 
            x  In          15        -0.002804   0.748063   0.749489   x 
            x  In          16         0.245139   0.740090   0.503930   x 
            x  In          17         0.501184  -0.010688  -0.017998   x 
            x  In          18         0.745811   0.001857   0.247156   x 
            x  In          19         0.513058   0.271119   0.263426   x 
            x  In          20         0.750236   0.248230  -0.002741   x 
            x  In          21         0.499329   0.000479   0.495477   x 
            x  In          22         0.748218  -0.003969   0.749814   x 
            x  In          23         0.499380   0.249276   0.744864   x 
            x  In          24         0.753943   0.249689   0.501821   x 
            x  In          25         0.498426   0.503162  -0.002604   x 
            x  In          26         0.750471   0.501113   0.249700   x 
            x  In          27         0.497749   0.751115   0.248192   x 
            x  In          28         0.748786   0.749663  -0.000587   x 
            x  In          29         0.501067   0.502207   0.500367   x 
            x  In          30         0.749283   0.499243   0.748578   x 
            x  In          31         0.501163   0.744350   0.741775   x 
            x  In          32         0.749001   0.749350   0.497467   x 
            xxxxxxxxxxxxxxxxxxxxxxxxxxxxxxxxxxxxxxxxxxxxxxxxxxxxxxxxxxxx


                         No user defined ionic velocities

                           -------------------------------
                                   Details of Species
                           -------------------------------

                               Mass of species in AMU
                                    P   30.9737600
                                    In  114.8180000

                          Electric Quadrupole Moment (Barn)
                                    P    1.0000000 No Isotope Defined
                                    In    0.7700000 Isotope115

                          Files used for pseudopotentials:
                                    P 3|1.8|4|4|5|30:31:32
                                    In 3|2.5|2.5|1.5|7|8|9|50:51:42U2.2U2.2

                           -------------------------------
                              k-Points For BZ Sampling
                           -------------------------------
                       MP grid size for SCF calculation is  4  4  4
                            with an offset of   0.125  0.125  0.125
                       Number of kpoints used =            36

                           -------------------------------
                               Symmetry and Constraints
                           -------------------------------

                      Maximum deviation from symmetry =  0.00000         ANG

                      Number of symmetry operations   =           1
                      Number of ionic constraints     =           3
                      Point group of crystal =     1: C1, 1, 1
                      Space group of crystal =     1: P1, P 1

             Set iprint > 1 for details on symmetry rotations/translations

                         Centre of mass is constrained
             Set iprint > 1 for details of linear ionic constraints

                         Number of cell constraints= 0
                         Cell constraints are:  1 2 3 4 5 6

                         External pressure/stress (GPa)
                          0.00000   0.00000   0.00000
                                    0.00000   0.00000
                                              0.00000
 
+---------------- MEMORY AND SCRATCH DISK ESTIMATES PER PROCESS --------------+
|                                                     Memory          Disk    |
| Baseline code, static data and system overhead      368.0 MB         0.0 MB |
| BLAS internal memory storage                          0.0 MB         0.0 MB |
| Model and support data                             4327.0 MB         0.0 MB |
| Electronic energy minimisation requirements        1337.1 MB         0.0 MB |
| Force calculation requirements                      127.4 MB         0.0 MB |
|                                               ----------------------------- |
| Approx. total storage required per process         6032.2 MB         0.0 MB |
|                                                                             |
| Requirements will fluctuate during execution and may exceed these estimates |
+-----------------------------------------------------------------------------+
Calculating approximate eigenstates for fixed initial Hamiltonian
Cut-off for approx. calculation is   89.988 eV
Improving approx. states at cut-off of  450.000 eV
Resetting cut-off to  900.000 eV
Calculating total energy with cut-off of  900.000 eV.
------------------------------------------------------------------------ <-- SCF
SCF loop      Energy           Fermi           Energy gain       Timer   <-- SCF
                               energy          per atom          (sec)   <-- SCF
------------------------------------------------------------------------ <-- SCF
Initial  -6.32540430E+004  0.00000000E+000                       439.28  <-- SCF
      1  -6.30179178E+004  2.86630534E+000  -3.63269456E+000     896.67  <-- SCF
      2  -6.30181838E+004  2.86598241E+000   4.09250015E-003    1218.50  <-- SCF
      3  -6.30840547E+004  3.19343887E+000   1.01339846E+000    1568.92  <-- SCF
      4  -6.30956370E+004  3.27958732E+000   1.78188773E-001    2065.66  <-- SCF
      5  -6.31018202E+004  3.44716868E+000   9.51256867E-002    2421.35  <-- SCF
      6  -6.30902143E+004  3.65482730E+000  -1.78551946E-001    2770.63  <-- SCF
      7  -6.30888883E+004  3.70840333E+000  -2.04001535E-002    3130.21  <-- SCF
      8  -6.30890010E+004  3.75067767E+000   1.73440469E-003    3500.19  <-- SCF
      9  -6.30898438E+004  3.77896581E+000   1.29661959E-002    3867.83  <-- SCF
     10  -6.30901196E+004  3.74189392E+000   4.24252774E-003    4230.12  <-- SCF
     11  -6.30901244E+004  3.73270621E+000   7.31671730E-005    4593.74  <-- SCF
     12  -6.30901265E+004  3.72605285E+000   3.24726358E-005    4946.62  <-- SCF
     13  -6.30901275E+004  3.72555124E+000   1.55139687E-005    5298.72  <-- SCF
     14  -6.30901277E+004  3.72481323E+000   3.37135068E-006    5658.97  <-- SCF
     15  -6.30901278E+004  3.72408433E+000   8.99108683E-007    6007.83  <-- SCF
     16  -6.30901278E+004  3.72411740E+000   2.62987694E-007    6318.51  <-- SCF
     17  -6.30901278E+004  3.72399921E+000   7.62672252E-008    6609.43  <-- SCF
     18  -6.30901278E+004  3.72407466E+000   2.35384045E-008    6856.70  <-- SCF
     19  -6.30901278E+004  3.72415612E+000   9.49604227E-009    7105.06  <-- SCF
     20  -6.30901278E+004  3.72417570E+000   3.28185627E-009    7360.06  <-- SCF
     21  -6.30901278E+004  3.72417853E+000   6.42131284E-010    7597.43  <-- SCF
------------------------------------------------------------------------ <-- SCF
 
Integrated Spin Density     =    0.990795     hbar/2
Integrated |Spin Density|   =     1.15499     hbar/2
 
Final energy, E             =  -63090.11001391     eV
Final free energy (E-TS)    =  -63090.12777512     eV
(energies not corrected for finite basis set)
 
NB est. 0K energy (E-0.5TS)      =  -63090.11889451     eV
 

 ************************** Forces **************************
 *                                                          *
 *               Cartesian components (eV/A)                *
 * -------------------------------------------------------- *
 *                         x            y            z      *
 *                                                          *
 * P               1      0.05375      0.02159     -0.06354 *
 * P               2      0.15689     -0.02630     -0.09687 *
 * P               3     -0.03805      0.02840     -0.01259 *
 * P               4      0.00992     -0.01716     -0.00829 *
 * P               5     -0.04521     -0.00402      0.04160 *
 * P               6     -0.00601     -0.01734      0.01565 *
 * P               7     -0.03126     -0.01919     -0.01712 *
 * P               8     -0.03841      0.07821     -0.01624 *
 * P               9     -0.02002      0.01116      0.00535 *
 * P              10     -0.00166     -0.00804     -0.00647 *
 * P              11     -0.03406      0.01850      0.01999 *
 * P              12     -0.09470     -0.07831      0.05450 *
 * P              13     -0.02774      0.00997     -0.01059 *
 * P              14     -0.00758      0.01477      0.00358 *
 * P              15      0.01256      0.01675     -0.01475 *
 * P              16      0.03047     -0.01264      0.03223 *
 * P              17      0.02807     -0.00420     -0.01626 *
 * P              18     -0.00640     -0.02663     -0.00788 *
 * P              19     -0.03159     -0.03527      0.04498 *
 * P              20      0.00958     -0.01758      0.00937 *
 * P              21      0.01072     -0.00101      0.04448 *
 * P              22      0.02633      0.01950     -0.01868 *
 * P              23      0.01905     -0.01250      0.00102 *
 * P              24     -0.00781     -0.01135     -0.01141 *
 * P              25      0.01582      0.01483     -0.00795 *
 * P              26     -0.01965      0.02627      0.01318 *
 * P              27     -0.00923      0.06042      0.06485 *
 * P              28      0.01029      0.00136     -0.01148 *
 * P              29      0.00771      0.03399      0.01217 *
 * P              30     -0.00536     -0.00891     -0.00320 *
 * P              31     -0.01426      0.00027      0.00970 *
 * P              32     -0.02695     -0.00489      0.01981 *
 * P              33     -0.16167      0.02266      0.02733 *
 * In              1     -0.03036     -0.01017     -0.00028 *
 * In              2      0.10578     -0.09421     -0.06804 *
 * In              3     -0.01758      0.03234     -0.02275 *
 * In              4      0.15244      0.01009     -0.01251 *
 * In              5     -0.02397     -0.01051      0.02394 *
 * In              6      0.04527      0.01112     -0.00717 *
 * In              7      0.01382     -0.00526      0.01539 *
 * In              8      0.02000      0.06118      0.08467 *
 * In              9     -0.00576     -0.01289      0.00880 *
 * In             10     -0.01407      0.02221      0.02832 *
 * In             11      0.02197     -0.00181      0.00229 *
 * In             12      0.01101     -0.01726      0.01656 *
 * In             13     -0.00549      0.02883     -0.01126 *
 * In             14      0.10566     -0.00669     -0.00523 *
 * In             15     -0.01979     -0.00991      0.00014 *
 * In             16      0.10548      0.02428     -0.03551 *
 * In             17      0.03315     -0.07236     -0.08293 *
 * In             18      0.00123      0.01101      0.01050 *
 * In             19     -0.04145      0.01213     -0.02619 *
 * In             20     -0.02945      0.04015      0.01871 *
 * In             21     -0.00519     -0.03419      0.05027 *
 * In             22      0.01614      0.01125     -0.01584 *
 * In             23     -0.05542      0.01697      0.01424 *
 * In             24     -0.02422      0.00392     -0.00212 *
 * In             25      0.01969     -0.02198     -0.03368 *
 * In             26     -0.01400     -0.02566     -0.04517 *
 * In             27     -0.04345     -0.02566      0.01825 *
 * In             28      0.00705     -0.02581     -0.05166 *
 * In             29     -0.06719      0.00701      0.01437 *
 * In             30      0.00828      0.02540      0.00858 *
 * In             31     -0.05216     -0.00889      0.00291 *
 * In             32      0.01909     -0.00790      0.00592 *
 *                                                          *
 ************************************************************

 Pseudo atomic calculation performed for P 3s2 3p3

 Converged in 23 iterations to a total energy of -208.0292 eV

 Pseudo atomic calculation performed for In 4d10 5s2 5p1

 Converged in 42 iterations to a total energy of -1747.4501 eV
Charge spilling parameter for spin component 1 = 0.17%
Charge spilling parameter for spin component 2 = 0.18%

                   Orbital Populations                  
  ---------------------------------------------------------------
     Ion    Atom   Orbital              Up        Down      Spin
  ---------------------------------------------------------------
      P     1      S                    0.868     0.866     0.002
      P     1      Px                   0.666     0.652     0.014
      P     1      Py                   0.652     0.647     0.004
      P     1      Pz                   0.664     0.658     0.006
      P     2      S                    0.891     0.875     0.017
      P     2      Px                   0.742     0.417     0.325
      P     2      Py                   0.749     0.652     0.097
      P     2      Pz                   0.592     0.511     0.081
      P     3      S                    0.868     0.867     0.001
      P     3      Px                   0.660     0.658     0.001
      P     3      Py                   0.660     0.657     0.003
      P     3      Pz                   0.651     0.650     0.001
      P     4      S                    0.867     0.865     0.002
      P     4      Px                   0.649     0.646     0.003
      P     4      Py                   0.666     0.658     0.008
      P     4      Pz                   0.663     0.658     0.005
      P     5      S                    0.867     0.865     0.001
      P     5      Px                   0.662     0.659     0.003
      P     5      Py                   0.649     0.648     0.001
      P     5      Pz                   0.661     0.652     0.009
      P     6      S                    0.867     0.867    -0.000
      P     6      Px                   0.657     0.657    -0.000
      P     6      Py                   0.658     0.658    -0.000
      P     6      Pz                   0.656     0.656     0.000
      P     7      S                    0.867     0.867     0.000
      P     7      Px                   0.656     0.656     0.000
      P     7      Py                   0.658     0.657     0.000
      P     7      Pz                   0.657     0.656     0.000
      P     8      S                    0.866     0.866     0.000
      P     8      Px                   0.649     0.649     0.000
      P     8      Py                   0.662     0.661     0.001
      P     8      Pz                   0.662     0.661     0.001
      P     9      S                    0.866     0.866     0.000
      P     9      Px                   0.658     0.658     0.000
      P     9      Py                   0.659     0.659     0.000
      P     9      Pz                   0.654     0.654     0.000
      P    10      S                    0.867     0.867    -0.000
      P    10      Px                   0.658     0.658    -0.000
      P    10      Py                   0.657     0.657    -0.000
      P    10      Pz                   0.658     0.658    -0.000
      P    11      S                    0.872     0.869     0.002
      P    11      Px                   0.653     0.652     0.001
      P    11      Py                   0.653     0.652     0.002
      P    11      Pz                   0.643     0.643     0.000
      P    12      S                    0.868     0.868     0.001
      P    12      Px                   0.645     0.642     0.004
      P    12      Py                   0.662     0.653     0.009
      P    12      Pz                   0.656     0.653     0.003
      P    13      S                    0.867     0.867    -0.000
      P    13      Px                   0.658     0.658     0.000
      P    13      Py                   0.655     0.655     0.000
      P    13      Pz                   0.657     0.657    -0.000
      P    14      S                    0.863     0.862     0.001
      P    14      Px                   0.651     0.650     0.001
      P    14      Py                   0.666     0.662     0.003
      P    14      Pz                   0.665     0.662     0.003
      P    15      S                    0.867     0.867    -0.000
      P    15      Px                   0.657     0.657    -0.000
      P    15      Py                   0.655     0.655     0.000
      P    15      Pz                   0.658     0.658    -0.000
      P    16      S                    0.870     0.865     0.004
      P    16      Px                   0.654     0.645     0.009
      P    16      Py                   0.667     0.644     0.024
      P    16      Pz                   0.660     0.648     0.013
      P    17      S                    0.867     0.866     0.001
      P    17      Px                   0.659     0.659     0.000
      P    17      Py                   0.646     0.646     0.000
      P    17      Pz                   0.660     0.654     0.006
      P    18      S                    0.867     0.867    -0.000
      P    18      Px                   0.655     0.655    -0.000
      P    18      Py                   0.659     0.659    -0.000
      P    18      Pz                   0.658     0.658    -0.000
      P    19      S                    0.868     0.868     0.000
      P    19      Px                   0.660     0.660     0.000
      P    19      Py                   0.662     0.661     0.002
      P    19      Pz                   0.648     0.648     0.000
      P    20      S                    0.867     0.867     0.000
      P    20      Px                   0.658     0.658     0.000
      P    20      Py                   0.658     0.657     0.001
      P    20      Pz                   0.655     0.655     0.000
      P    21      S                    0.868     0.867     0.001
      P    21      Px                   0.662     0.653     0.009
      P    21      Py                   0.654     0.652     0.003
      P    21      Pz                   0.661     0.657     0.004
      P    22      S                    0.864     0.863     0.001
      P    22      Px                   0.665     0.661     0.004
      P    22      Py                   0.653     0.652     0.001
      P    22      Pz                   0.664     0.659     0.004
      P    23      S                    0.866     0.866     0.000
      P    23      Px                   0.656     0.656     0.000
      P    23      Py                   0.657     0.656     0.000
      P    23      Pz                   0.658     0.658     0.000
      P    24      S                    0.867     0.867    -0.000
      P    24      Px                   0.658     0.658     0.000
      P    24      Py                   0.658     0.658     0.000
      P    24      Pz                   0.655     0.655    -0.000
      P    25      S                    0.867     0.867     0.000
      P    25      Px                   0.658     0.657     0.000
      P    25      Py                   0.656     0.656     0.000
      P    25      Pz                   0.656     0.656     0.000
      P    26      S                    0.865     0.865    -0.000
      P    26      Px                   0.659     0.659     0.000
      P    26      Py                   0.659     0.658     0.001
      P    26      Pz                   0.657     0.657     0.000
      P    27      S                    0.870     0.868     0.002
      P    27      Px                   0.654     0.654    -0.000
      P    27      Py                   0.654     0.654     0.000
      P    27      Pz                   0.649     0.650    -0.001
      P    28      S                    0.867     0.867    -0.000
      P    28      Px                   0.657     0.657    -0.000
      P    28      Py                   0.657     0.656     0.000
      P    28      Pz                   0.656     0.656     0.000
      P    29      S                    0.866     0.866     0.000
      P    29      Px                   0.658     0.658     0.000
      P    29      Py                   0.658     0.658     0.000
      P    29      Pz                   0.655     0.655     0.000
      P    30      S                    0.867     0.868    -0.000
      P    30      Px                   0.657     0.657     0.000
      P    30      Py                   0.657     0.657     0.000
      P    30      Pz                   0.656     0.656     0.000
      P    31      S                    0.867     0.867    -0.000
      P    31      Px                   0.658     0.658    -0.000
      P    31      Py                   0.655     0.655    -0.000
      P    31      Pz                   0.656     0.656    -0.000
      P    32      S                    0.867     0.867    -0.000
      P    32      Px                   0.655     0.655    -0.000
      P    32      Py                   0.657     0.657     0.000
      P    32      Pz                   0.657     0.657     0.000
      P    33      S                    0.886     0.880     0.006
      P    33      Px                   0.704     0.507     0.197
      P    33      Py                   0.716     0.705     0.011
      P    33      Pz                   0.557     0.518     0.039
     In     1      Dzz                  1.000     1.000     0.000
     In     1      Dzy                  0.998     0.998     0.000
     In     1      Dzx                  0.999     0.999     0.000
     In     1      Dxx-yy               1.000     1.000     0.000
     In     1      Dxy                  0.999     0.999    -0.000
     In     1      S                    0.706     0.706    -0.001
     In     1      Px                   0.234     0.234    -0.000
     In     1      Py                   0.239     0.239    -0.000
     In     1      Pz                   0.241     0.241    -0.000
     In     1      S                   -0.260    -0.253    -0.007
     In     2      Dzz                  0.999     0.999     0.000
     In     2      Dzy                  0.999     0.999     0.000
     In     2      Dzx                  0.999     0.998     0.000
     In     2      Dxx-yy               0.999     0.999     0.000
     In     2      Dxy                  0.999     0.998     0.001
     In     2      S                    0.690     0.693    -0.003
     In     2      Px                   0.239     0.237     0.002
     In     2      Py                   0.243     0.243     0.001
     In     2      Pz                   0.220     0.228    -0.008
     In     2      S                   -0.258    -0.258    -0.001
     In     3      Dzz                  1.000     1.000     0.000
     In     3      Dzy                  0.998     0.998     0.000
     In     3      Dzx                  0.998     0.998     0.000
     In     3      Dxx-yy               1.000     1.000     0.000
     In     3      Dxy                  0.999     0.999     0.000
     In     3      S                    0.712     0.712    -0.000
     In     3      Px                   0.239     0.240    -0.000
     In     3      Py                   0.240     0.240    -0.000
     In     3      Pz                   0.241     0.240     0.001
     In     3      S                   -0.266    -0.271     0.006
     In     4      Dzz                  0.999     0.999     0.000
     In     4      Dzy                  0.998     0.998     0.000
     In     4      Dzx                  0.998     0.998     0.000
     In     4      Dxx-yy               0.999     0.999     0.000
     In     4      Dxy                  0.998     0.998     0.000
     In     4      S                    0.715     0.718    -0.003
     In     4      Px                   0.247     0.251    -0.005
     In     4      Py                   0.249     0.250    -0.001
     In     4      Pz                   0.240     0.234     0.006
     In     4      S                   -0.270    -0.270    -0.000
     In     5      Dzz                  1.000     1.000     0.000
     In     5      Dzy                  0.998     0.998     0.000
     In     5      Dzx                  0.998     0.998    -0.000
     In     5      Dxx-yy               1.000     1.000     0.000
     In     5      Dxy                  0.998     0.998     0.000
     In     5      S                    0.710     0.707     0.002
     In     5      Px                   0.239     0.239    -0.000
     In     5      Py                   0.246     0.243     0.003
     In     5      Pz                   0.241     0.240     0.001
     In     5      S                   -0.267    -0.266    -0.001
     In     6      Dzz                  1.000     1.000     0.000
     In     6      Dzy                  0.999     0.999     0.000
     In     6      Dzx                  0.999     0.999     0.000
     In     6      Dxx-yy               1.000     1.000     0.000
     In     6      Dxy                  0.998     0.998     0.000
     In     6      S                    0.706     0.707    -0.001
     In     6      Px                   0.241     0.241     0.000
     In     6      Py                   0.242     0.242    -0.001
     In     6      Pz                   0.232     0.232    -0.001
     In     6      S                   -0.256    -0.259     0.003
     In     7      Dzz                  0.999     0.999     0.000
     In     7      Dzy                  0.998     0.998     0.000
     In     7      Dzx                  0.998     0.998    -0.000
     In     7      Dxx-yy               1.000     1.000    -0.000
     In     7      Dxy                  0.998     0.998     0.000
     In     7      S                    0.711     0.710     0.001
     In     7      Px                   0.242     0.240     0.001
     In     7      Py                   0.251     0.249     0.002
     In     7      Pz                   0.240     0.240    -0.000
     In     7      S                   -0.268    -0.268     0.000
     In     8      Dzz                  1.000     1.000     0.000
     In     8      Dzy                  0.999     0.999     0.000
     In     8      Dzx                  0.999     0.999     0.000
     In     8      Dxx-yy               1.000     1.000     0.000
     In     8      Dxy                  0.998     0.998     0.000
     In     8      S                    0.710     0.711    -0.001
     In     8      Px                   0.240     0.241    -0.001
     In     8      Py                   0.240     0.240    -0.001
     In     8      Pz                   0.235     0.235    -0.001
     In     8      S                   -0.271    -0.266    -0.004
     In     9      Dzz                  1.000     1.000     0.000
     In     9      Dzy                  0.998     0.998    -0.000
     In     9      Dzx                  0.998     0.998     0.000
     In     9      Dxx-yy               1.000     1.000     0.000
     In     9      Dxy                  0.998     0.998     0.000
     In     9      S                    0.707     0.707     0.000
     In     9      Px                   0.240     0.240     0.000
     In     9      Py                   0.240     0.240    -0.000
     In     9      Pz                   0.243     0.242     0.001
     In     9      S                   -0.264    -0.263    -0.001
     In    10      Dzz                  1.000     1.000     0.000
     In    10      Dzy                  0.998     0.998    -0.000
     In    10      Dzx                  0.998     0.998    -0.000
     In    10      Dxx-yy               1.000     1.000    -0.000
     In    10      Dxy                  0.998     0.998    -0.000
     In    10      S                    0.712     0.712    -0.000
     In    10      Px                   0.241     0.240     0.001
     In    10      Py                   0.239     0.239    -0.000
     In    10      Pz                   0.242     0.241     0.001
     In    10      S                   -0.269    -0.271     0.003
     In    11      Dzz                  1.000     1.000    -0.000
     In    11      Dzy                  0.998     0.998    -0.000
     In    11      Dzx                  0.998     0.998    -0.000
     In    11      Dxx-yy               1.000     1.000    -0.000
     In    11      Dxy                  0.998     0.998    -0.000
     In    11      S                    0.717     0.715     0.001
     In    11      Px                   0.243     0.242     0.001
     In    11      Py                   0.242     0.242     0.001
     In    11      Pz                   0.248     0.247     0.002
     In    11      S                   -0.264    -0.265     0.000
     In    12      Dzz                  1.000     1.000     0.000
     In    12      Dzy                  0.999     0.999     0.000
     In    12      Dzx                  0.998     0.998     0.000
     In    12      Dxx-yy               1.000     1.000    -0.000
     In    12      Dxy                  0.999     0.999     0.000
     In    12      S                    0.706     0.707    -0.001
     In    12      Px                   0.239     0.239     0.001
     In    12      Py                   0.233     0.233    -0.000
     In    12      Pz                   0.243     0.242     0.000
     In    12      S                   -0.255    -0.258     0.003
     In    13      Dzz                  1.000     1.000    -0.000
     In    13      Dzy                  0.998     0.998     0.000
     In    13      Dzx                  0.998     0.998     0.000
     In    13      Dxx-yy               1.000     1.000     0.000
     In    13      Dxy                  0.998     0.998    -0.000
     In    13      S                    0.706     0.706     0.000
     In    13      Px                   0.241     0.241     0.000
     In    13      Py                   0.241     0.241    -0.000
     In    13      Pz                   0.243     0.243    -0.000
     In    13      S                   -0.264    -0.266     0.001
     In    14      Dzz                  1.000     1.000     0.000
     In    14      Dzy                  0.998     0.998     0.000
     In    14      Dzx                  0.998     0.998     0.000
     In    14      Dxx-yy               1.000     1.000    -0.000
     In    14      Dxy                  0.998     0.998     0.000
     In    14      S                    0.708     0.708     0.000
     In    14      Px                   0.248     0.248    -0.000
     In    14      Py                   0.238     0.238    -0.000
     In    14      Pz                   0.240     0.240    -0.000
     In    14      S                   -0.264    -0.266     0.002
     In    15      Dzz                  1.000     1.000     0.000
     In    15      Dzy                  0.998     0.998    -0.000
     In    15      Dzx                  0.998     0.998    -0.000
     In    15      Dxx-yy               1.000     1.000     0.000
     In    15      Dxy                  0.999     0.999     0.000
     In    15      S                    0.706     0.706    -0.000
     In    15      Px                   0.240     0.240    -0.000
     In    15      Py                   0.242     0.242    -0.000
     In    15      Pz                   0.242     0.242    -0.000
     In    15      S                   -0.265    -0.265    -0.000
     In    16      Dzz                  0.999     0.999     0.000
     In    16      Dzy                  0.998     0.998     0.000
     In    16      Dzx                  0.998     0.998     0.000
     In    16      Dxx-yy               1.000     0.999     0.000
     In    16      Dxy                  0.998     0.998     0.000
     In    16      S                    0.713     0.714    -0.001
     In    16      Px                   0.252     0.252    -0.001
     In    16      Py                   0.239     0.240    -0.000
     In    16      Pz                   0.240     0.241    -0.000
     In    16      S                   -0.270    -0.270    -0.001
     In    17      Dzz                  1.000     0.999     0.000
     In    17      Dzy                  0.999     0.999     0.000
     In    17      Dzx                  0.998     0.998     0.000
     In    17      Dxx-yy               0.999     0.999     0.000
     In    17      Dxy                  0.999     0.998     0.001
     In    17      S                    0.700     0.694     0.007
     In    17      Px                   0.253     0.238     0.015
     In    17      Py                   0.246     0.238     0.008
     In    17      Pz                   0.220     0.234    -0.014
     In    17      S                   -0.262    -0.260    -0.002
     In    18      Dzz                  1.000     1.000     0.000
     In    18      Dzy                  0.999     0.999     0.000
     In    18      Dzx                  0.999     0.999    -0.000
     In    18      Dxx-yy               1.000     1.000     0.000
     In    18      Dxy                  0.999     0.999    -0.000
     In    18      S                    0.707     0.707     0.000
     In    18      Px                   0.235     0.236    -0.001
     In    18      Py                   0.239     0.239    -0.000
     In    18      Pz                   0.240     0.240    -0.000
     In    18      S                   -0.261    -0.257    -0.005
     In    19      Dzz                  0.999     0.999     0.000
     In    19      Dzy                  0.998     0.998     0.000
     In    19      Dzx                  0.998     0.998     0.000
     In    19      Dxx-yy               0.999     0.999     0.000
     In    19      Dxy                  0.998     0.998     0.000
     In    19      S                    0.711     0.721    -0.009
     In    19      Px                   0.246     0.254    -0.008
     In    19      Py                   0.243     0.251    -0.008
     In    19      Pz                   0.242     0.243    -0.000
     In    19      S                   -0.266    -0.268     0.003
     In    20      Dzz                  1.000     1.000     0.000
     In    20      Dzy                  0.998     0.998     0.000
     In    20      Dzx                  0.999     0.999    -0.000
     In    20      Dxx-yy               1.000     1.000    -0.000
     In    20      Dxy                  0.998     0.998     0.000
     In    20      S                    0.713     0.714    -0.001
     In    20      Px                   0.240     0.240    -0.000
     In    20      Py                   0.240     0.240    -0.000
     In    20      Pz                   0.240     0.240     0.000
     In    20      S                   -0.264    -0.268     0.004
     In    21      Dzz                  1.000     1.000     0.000
     In    21      Dzy                  0.999     0.999     0.000
     In    21      Dzx                  0.999     0.999     0.000
     In    21      Dxx-yy               1.000     1.000     0.000
     In    21      Dxy                  0.998     0.998     0.000
     In    21      S                    0.706     0.705     0.000
     In    21      Px                   0.240     0.240     0.000
     In    21      Py                   0.242     0.242    -0.000
     In    21      Pz                   0.229     0.230    -0.001
     In    21      S                   -0.250    -0.262     0.012
     In    22      Dzz                  1.000     1.000     0.000
     In    22      Dzy                  0.998     0.998     0.000
     In    22      Dzx                  0.998     0.998    -0.000
     In    22      Dxx-yy               1.000     1.000     0.000
     In    22      Dxy                  0.998     0.998     0.000
     In    22      S                    0.709     0.708     0.001
     In    22      Px                   0.240     0.240    -0.000
     In    22      Py                   0.244     0.242     0.003
     In    22      Pz                   0.241     0.240     0.000
     In    22      S                   -0.267    -0.265    -0.001
     In    23      Dzz                  1.000     1.000     0.000
     In    23      Dzy                  0.998     0.998     0.000
     In    23      Dzx                  0.999     0.999     0.000
     In    23      Dxx-yy               1.000     1.000     0.000
     In    23      Dxy                  0.998     0.998    -0.000
     In    23      S                    0.711     0.711    -0.000
     In    23      Px                   0.240     0.240    -0.000
     In    23      Py                   0.240     0.240    -0.000
     In    23      Pz                   0.238     0.238    -0.000
     In    23      S                   -0.273    -0.272    -0.001
     In    24      Dzz                  0.999     0.999     0.000
     In    24      Dzy                  0.998     0.998     0.000
     In    24      Dzx                  0.998     0.998    -0.000
     In    24      Dxx-yy               1.000     1.000    -0.000
     In    24      Dxy                  0.998     0.998     0.000
     In    24      S                    0.713     0.710     0.002
     In    24      Px                   0.241     0.238     0.003
     In    24      Py                   0.252     0.249     0.003
     In    24      Pz                   0.241     0.241     0.000
     In    24      S                   -0.268    -0.265    -0.003
     In    25      Dzz                  1.000     1.000    -0.000
     In    25      Dzy                  0.998     0.998    -0.000
     In    25      Dzx                  0.998     0.998    -0.000
     In    25      Dxx-yy               1.000     1.000    -0.000
     In    25      Dxy                  0.998     0.998     0.000
     In    25      S                    0.713     0.713     0.000
     In    25      Px                   0.241     0.241     0.000
     In    25      Py                   0.239     0.239     0.000
     In    25      Pz                   0.241     0.240     0.000
     In    25      S                   -0.268    -0.268     0.001
     In    26      Dzz                  1.000     1.000     0.000
     In    26      Dzy                  0.998     0.998    -0.000
     In    26      Dzx                  0.998     0.998     0.000
     In    26      Dxx-yy               1.000     1.000     0.000
     In    26      Dxy                  0.998     0.998    -0.000
     In    26      S                    0.706     0.706     0.000
     In    26      Px                   0.240     0.240     0.000
     In    26      Py                   0.239     0.239     0.000
     In    26      Pz                   0.246     0.245     0.001
     In    26      S                   -0.263    -0.262    -0.001
     In    27      Dzz                  1.000     1.000     0.000
     In    27      Dzy                  0.998     0.998    -0.000
     In    27      Dzx                  0.998     0.998     0.000
     In    27      Dxx-yy               1.000     1.000    -0.000
     In    27      Dxy                  0.999     0.999     0.000
     In    27      S                    0.708     0.707     0.000
     In    27      Px                   0.240     0.240     0.001
     In    27      Py                   0.234     0.235    -0.000
     In    27      Pz                   0.243     0.242     0.001
     In    27      S                   -0.258    -0.262     0.004
     In    28      Dzz                  1.000     1.000     0.000
     In    28      Dzy                  0.998     0.998    -0.000
     In    28      Dzx                  0.998     0.998    -0.000
     In    28      Dxx-yy               1.000     1.000    -0.000
     In    28      Dxy                  0.998     0.998    -0.000
     In    28      S                    0.714     0.711     0.003
     In    28      Px                   0.242     0.241     0.002
     In    28      Py                   0.242     0.241     0.001
     In    28      Pz                   0.243     0.242     0.002
     In    28      S                   -0.266    -0.266     0.000
     In    29      Dzz                  1.000     1.000    -0.000
     In    29      Dzy                  0.998     0.998    -0.000
     In    29      Dzx                  0.998     0.998     0.000
     In    29      Dxx-yy               1.000     1.000    -0.000
     In    29      Dxy                  0.998     0.998     0.000
     In    29      S                    0.710     0.708     0.002
     In    29      Px                   0.250     0.248     0.002
     In    29      Py                   0.237     0.237     0.000
     In    29      Pz                   0.241     0.240     0.001
     In    29      S                   -0.265    -0.266     0.000
     In    30      Dzz                  1.000     1.000     0.000
     In    30      Dzy                  0.998     0.998     0.000
     In    30      Dzx                  0.998     0.998     0.000
     In    30      Dxx-yy               1.000     1.000    -0.000
     In    30      Dxy                  0.998     0.998     0.000
     In    30      S                    0.707     0.707    -0.000
     In    30      Px                   0.241     0.241     0.000
     In    30      Py                   0.241     0.241    -0.000
     In    30      Pz                   0.243     0.243    -0.000
     In    30      S                   -0.264    -0.265     0.001
     In    31      Dzz                  0.999     0.999     0.000
     In    31      Dzy                  0.998     0.998     0.000
     In    31      Dzx                  0.998     0.998     0.000
     In    31      Dxx-yy               0.999     0.999     0.000
     In    31      Dxy                  0.998     0.998     0.000
     In    31      S                    0.714     0.714    -0.000
     In    31      Px                   0.253     0.249     0.003
     In    31      Py                   0.241     0.242    -0.001
     In    31      Pz                   0.240     0.239     0.000
     In    31      S                   -0.272    -0.271    -0.002
     In    32      Dzz                  1.000     1.000     0.000
     In    32      Dzy                  0.998     0.998     0.000
     In    32      Dzx                  0.998     0.998     0.000
     In    32      Dxx-yy               1.000     1.000     0.000
     In    32      Dxy                  0.998     0.998     0.000
     In    32      S                    0.705     0.705    -0.000
     In    32      Px                   0.240     0.240    -0.000
     In    32      Py                   0.242     0.242    -0.000
     In    32      Pz                   0.242     0.242     0.000
     In    32      S                   -0.266    -0.264    -0.002
  ---------------------------------------------------------------
                           Total:     290.995   290.004     0.991
  ---------------------------------------------------------------

     Atomic Populations (Mulliken)
     -----------------------------
Species          Ion Spin      s       p       d       f      Total   Charge(e)   Spin(hbar/2)
==============================================================================================
  P               1   up:     0.868   1.982   0.000   0.000   2.850    -0.673        0.026
                  1   dn:     0.866   1.958   0.000   0.000   2.824
  P               2   up:     0.891   2.083   0.000   0.000   2.974    -0.429        0.519
                  2   dn:     0.875   1.581   0.000   0.000   2.455
  P               3   up:     0.868   1.971   0.000   0.000   2.839    -0.673        0.006
                  3   dn:     0.867   1.966   0.000   0.000   2.834
  P               4   up:     0.867   1.978   0.000   0.000   2.845    -0.673        0.018
                  4   dn:     0.865   1.963   0.000   0.000   2.828
  P               5   up:     0.867   1.972   0.000   0.000   2.838    -0.663        0.014
                  5   dn:     0.865   1.959   0.000   0.000   2.825
  P               6   up:     0.867   1.970   0.000   0.000   2.838    -0.676       -0.000
                  6   dn:     0.867   1.971   0.000   0.000   2.838
  P               7   up:     0.867   1.971   0.000   0.000   2.837    -0.674        0.001
                  7   dn:     0.867   1.970   0.000   0.000   2.837
  P               8   up:     0.866   1.973   0.000   0.000   2.839    -0.676        0.002
                  8   dn:     0.866   1.971   0.000   0.000   2.837
  P               9   up:     0.866   1.971   0.000   0.000   2.838    -0.675        0.000
                  9   dn:     0.866   1.971   0.000   0.000   2.837
  P              10   up:     0.867   1.972   0.000   0.000   2.839    -0.678       -0.000
                 10   dn:     0.867   1.973   0.000   0.000   2.839
  P              11   up:     0.872   1.950   0.000   0.000   2.821    -0.638        0.005
                 11   dn:     0.869   1.947   0.000   0.000   2.816
  P              12   up:     0.868   1.963   0.000   0.000   2.832    -0.647        0.016
                 12   dn:     0.868   1.948   0.000   0.000   2.815
  P              13   up:     0.867   1.970   0.000   0.000   2.837    -0.674        0.000
                 13   dn:     0.867   1.970   0.000   0.000   2.837
  P              14   up:     0.863   1.981   0.000   0.000   2.844    -0.680        0.008
                 14   dn:     0.862   1.974   0.000   0.000   2.836
  P              15   up:     0.867   1.970   0.000   0.000   2.837    -0.674       -0.000
                 15   dn:     0.867   1.970   0.000   0.000   2.837
  P              16   up:     0.870   1.982   0.000   0.000   2.851    -0.653        0.050
                 16   dn:     0.865   1.936   0.000   0.000   2.802
  P              17   up:     0.867   1.966   0.000   0.000   2.833    -0.658        0.008
                 17   dn:     0.866   1.959   0.000   0.000   2.825
  P              18   up:     0.867   1.972   0.000   0.000   2.839    -0.678       -0.000
                 18   dn:     0.867   1.972   0.000   0.000   2.839
  P              19   up:     0.868   1.970   0.000   0.000   2.838    -0.674        0.003
                 19   dn:     0.868   1.968   0.000   0.000   2.835
  P              20   up:     0.867   1.971   0.000   0.000   2.838    -0.675        0.001
                 20   dn:     0.867   1.970   0.000   0.000   2.837
  P              21   up:     0.868   1.978   0.000   0.000   2.846    -0.675        0.018
                 21   dn:     0.867   1.961   0.000   0.000   2.828
  P              22   up:     0.864   1.982   0.000   0.000   2.846    -0.681        0.011
                 22   dn:     0.863   1.972   0.000   0.000   2.835
  P              23   up:     0.866   1.972   0.000   0.000   2.838    -0.675        0.001
                 23   dn:     0.866   1.971   0.000   0.000   2.837
  P              24   up:     0.867   1.971   0.000   0.000   2.837    -0.675        0.000
                 24   dn:     0.867   1.971   0.000   0.000   2.837
  P              25   up:     0.867   1.971   0.000   0.000   2.837    -0.674        0.001
                 25   dn:     0.867   1.970   0.000   0.000   2.837
  P              26   up:     0.865   1.975   0.000   0.000   2.839    -0.678        0.001
                 26   dn:     0.865   1.973   0.000   0.000   2.838
  P              27   up:     0.870   1.957   0.000   0.000   2.827    -0.653        0.001
                 27   dn:     0.868   1.958   0.000   0.000   2.826
  P              28   up:     0.867   1.970   0.000   0.000   2.837    -0.674        0.000
                 28   dn:     0.867   1.970   0.000   0.000   2.837
  P              29   up:     0.866   1.971   0.000   0.000   2.838    -0.675        0.001
                 29   dn:     0.866   1.971   0.000   0.000   2.837
  P              30   up:     0.867   1.970   0.000   0.000   2.837    -0.674        0.000
                 30   dn:     0.868   1.970   0.000   0.000   2.837
  P              31   up:     0.867   1.969   0.000   0.000   2.836    -0.673       -0.001
                 31   dn:     0.867   1.970   0.000   0.000   2.837
  P              32   up:     0.867   1.970   0.000   0.000   2.837    -0.674        0.001
                 32   dn:     0.867   1.969   0.000   0.000   2.836
  P              33   up:     0.886   1.977   0.000   0.000   2.863    -0.473        0.254
                 33   dn:     0.880   1.730   0.000   0.000   2.610
  In              1   up:     0.445   0.713   4.995   0.000   6.154     0.684       -0.009
                  1   dn:     0.453   0.714   4.995   0.000   6.162
  In              2   up:     0.431   0.702   4.995   0.000   6.128     0.736       -0.008
                  2   dn:     0.435   0.707   4.994   0.000   6.136
  In              3   up:     0.446   0.720   4.995   0.000   6.161     0.683        0.006
                  3   dn:     0.441   0.720   4.995   0.000   6.156
  In              4   up:     0.446   0.736   4.993   0.000   6.175     0.648       -0.002
                  4   dn:     0.448   0.736   4.993   0.000   6.177
  In              5   up:     0.442   0.726   4.994   0.000   6.163     0.680        0.006
                  5   dn:     0.441   0.722   4.994   0.000   6.157
  In              6   up:     0.450   0.715   4.995   0.000   6.160     0.682        0.002
                  6   dn:     0.448   0.716   4.995   0.000   6.158
  In              7   up:     0.443   0.732   4.994   0.000   6.169     0.666        0.004
                  7   dn:     0.442   0.729   4.994   0.000   6.165
  In              8   up:     0.440   0.715   4.995   0.000   6.149     0.695       -0.007
                  8   dn:     0.445   0.717   4.995   0.000   6.156
  In              9   up:     0.443   0.722   4.995   0.000   6.160     0.680        0.000
                  9   dn:     0.443   0.722   4.995   0.000   6.160
  In             10   up:     0.443   0.721   4.995   0.000   6.159     0.686        0.004
                 10   dn:     0.441   0.720   4.995   0.000   6.155
  In             11   up:     0.452   0.733   4.994   0.000   6.180     0.645        0.005
                 11   dn:     0.451   0.730   4.994   0.000   6.175
  In             12   up:     0.451   0.715   4.995   0.000   6.161     0.681        0.002
                 12   dn:     0.449   0.714   4.995   0.000   6.158
  In             13   up:     0.442   0.725   4.994   0.000   6.161     0.679        0.002
                 13   dn:     0.440   0.725   4.994   0.000   6.160
  In             14   up:     0.445   0.725   4.994   0.000   6.164     0.673        0.002
                 14   dn:     0.442   0.726   4.994   0.000   6.162
  In             15   up:     0.440   0.724   4.995   0.000   6.159     0.682       -0.000
                 15   dn:     0.441   0.724   4.995   0.000   6.159
  In             16   up:     0.443   0.731   4.994   0.000   6.168     0.660       -0.004
                 16   dn:     0.445   0.733   4.994   0.000   6.172
  In             17   up:     0.439   0.719   4.995   0.000   6.152     0.710        0.015
                 17   dn:     0.434   0.710   4.994   0.000   6.137
  In             18   up:     0.446   0.715   4.995   0.000   6.155     0.683       -0.006
                 18   dn:     0.450   0.716   4.995   0.000   6.161
  In             19   up:     0.445   0.732   4.993   0.000   6.170     0.637       -0.023
                 19   dn:     0.452   0.748   4.993   0.000   6.193
  In             20   up:     0.449   0.720   4.995   0.000   6.163     0.677        0.003
                 20   dn:     0.445   0.720   4.995   0.000   6.160
  In             21   up:     0.456   0.711   4.995   0.000   6.162     0.687        0.011
                 21   dn:     0.444   0.713   4.995   0.000   6.151
  In             22   up:     0.442   0.725   4.994   0.000   6.162     0.680        0.003
                 22   dn:     0.442   0.722   4.994   0.000   6.159
  In             23   up:     0.438   0.717   4.995   0.000   6.150     0.699       -0.002
                 23   dn:     0.439   0.718   4.995   0.000   6.152
  In             24   up:     0.445   0.734   4.994   0.000   6.173     0.660        0.005
                 24   dn:     0.445   0.728   4.994   0.000   6.168
  In             25   up:     0.445   0.721   4.995   0.000   6.161     0.680        0.002
                 25   dn:     0.444   0.720   4.995   0.000   6.159
  In             26   up:     0.444   0.725   4.994   0.000   6.163     0.675        0.000
                 26   dn:     0.444   0.724   4.994   0.000   6.163
  In             27   up:     0.449   0.717   4.995   0.000   6.161     0.683        0.005
                 27   dn:     0.445   0.716   4.995   0.000   6.156
  In             28   up:     0.448   0.728   4.994   0.000   6.170     0.666        0.007
                 28   dn:     0.446   0.724   4.995   0.000   6.164
  In             29   up:     0.445   0.727   4.994   0.000   6.166     0.672        0.005
                 29   dn:     0.443   0.725   4.994   0.000   6.161
  In             30   up:     0.442   0.724   4.995   0.000   6.161     0.678        0.001
                 30   dn:     0.441   0.724   4.994   0.000   6.160
  In             31   up:     0.441   0.733   4.994   0.000   6.168     0.664        0.001
                 31   dn:     0.443   0.730   4.994   0.000   6.167
  In             32   up:     0.439   0.725   4.995   0.000   6.159     0.681       -0.002
                 32   dn:     0.441   0.725   4.995   0.000   6.161
==============================================================================================

                 Bond                   Population        Spin       Length (A)
================================================================================
              P 2  -- P 33                   0.47        -0.10          2.10399
              P 2  -- In 19                  0.75        -0.01          2.46953
              P 33 -- In 4                   0.73         0.01          2.48313
              P 17 -- In 24                  0.68         0.00          2.50864
              P 5  -- In 7                   0.68         0.00          2.51040
              P 8  -- In 4                   0.64         0.00          2.51479
              P 22 -- In 24                  0.67        -0.00          2.51722
              P 19 -- In 19                  0.67        -0.00          2.51736
              P 16 -- In 31                  0.65         0.00          2.51760
              P 22 -- In 7                   0.67        -0.00          2.51921
              P 4  -- In 19                  0.63         0.00          2.51942
              P 14 -- In 29                  0.67        -0.00          2.52229
              P 14 -- In 16                  0.66         0.00          2.52247
              P 1  -- In 2                   0.67        -0.00          2.52298
              P 14 -- In 31                  0.66        -0.00          2.52416
              P 12 -- In 16                  0.63         0.00          2.52515
              P 14 -- In 14                  0.67        -0.00          2.52787
              P 4  -- In 29                  0.64        -0.00          2.52853
              P 26 -- In 26                  0.68         0.00          2.53282
              P 26 -- In 11                  0.65        -0.00          2.53368
              P 21 -- In 17                  0.67        -0.01          2.53406
              P 22 -- In 5                   0.68        -0.00          2.53539
              P 3  -- In 4                   0.66        -0.01          2.53638
              P 12 -- In 2                   0.63        -0.01          2.53774
              P 8  -- In 14                  0.63        -0.00          2.53944
              P 22 -- In 22                  0.67        -0.00          2.53979
              P 33 -- In 17                  0.63         0.05          2.54047
              P 11 -- In 11                  0.61        -0.00          2.54055
              P 9  -- In 13                  0.67         0.00          2.54324
              P 10 -- In 25                  0.66        -0.00          2.54342
              P 26 -- In 9                   0.67         0.00          2.54362
              P 18 -- In 20                  0.66         0.00          2.54395
              P 16 -- In 17                  0.61        -0.02          2.54440
              P 18 -- In 3                   0.66         0.00          2.54493
              P 31 -- In 31                  0.66         0.00          2.54517
              P 29 -- In 30                  0.67        -0.00          2.54525
              P 31 -- In 32                  0.67        -0.00          2.54556
              P 7  -- In 13                  0.67         0.00          2.54571
              P 26 -- In 28                  0.66        -0.00          2.54609
              P 28 -- In 32                  0.67         0.00          2.54623
              P 25 -- In 26                  0.67        -0.00          2.54644
              P 1  -- In 5                   0.63        -0.00          2.54646
              P 9  -- In 16                  0.66         0.00          2.54652
              P 10 -- In 10                  0.66        -0.00          2.54673
              P 25 -- In 29                  0.66        -0.00          2.54687
              P 20 -- In 13                  0.66        -0.00          2.54690
              P 13 -- In 14                  0.67        -0.00          2.54694
              P 15 -- In 15                  0.66         0.00          2.54705
              P 6  -- In 8                   0.66         0.00          2.54709
              P 23 -- In 30                  0.66         0.00          2.54714
              P 13 -- In 9                   0.67        -0.00          2.54718
              P 24 -- In 30                  0.67        -0.00          2.54724
              P 4  -- In 10                  0.66        -0.00          2.54762
              P 29 -- In 25                  0.66        -0.00          2.54770
              P 7  -- In 7                   0.65        -0.00          2.54794
              P 12 -- In 27                  0.68         0.00          2.54844
              P 29 -- In 31                  0.66         0.00          2.54869
              P 23 -- In 29                  0.66         0.00          2.54895
              P 16 -- In 12                  0.68         0.00          2.54895
              P 28 -- In 5                   0.67        -0.00          2.54975
              P 32 -- In 15                  0.67        -0.00          2.54980
              P 11 -- In 2                   0.66         0.00          2.54983
              P 7  -- In 14                  0.67         0.00          2.54987
              P 15 -- In 16                  0.66        -0.00          2.55000
              P 23 -- In 23                  0.67         0.00          2.55025
              P 20 -- In 24                  0.65         0.00          2.55033
              P 20 -- In 26                  0.66        -0.00          2.55045
              P 9  -- In 10                  0.66        -0.00          2.55061
              P 32 -- In 22                  0.67         0.00          2.55073
              P 31 -- In 22                  0.67         0.00          2.55076
              P 1  -- In 8                   0.66         0.00          2.55083
              P 24 -- In 7                   0.66         0.00          2.55119
              P 5  -- In 1                   0.68         0.00          2.55120
              P 27 -- In 28                  0.63        -0.00          2.55122
              P 21 -- In 22                  0.63        -0.00          2.55143
              P 1  -- In 3                   0.65        -0.00          2.55146
              P 25 -- In 32                  0.66         0.00          2.55148
              P 15 -- In 5                   0.67         0.00          2.55160
              P 17 -- In 18                  0.68         0.00          2.55187
              P 24 -- In 20                  0.66         0.00          2.55193
              P 23 -- In 24                  0.65        -0.00          2.55194
              P 32 -- In 28                  0.66         0.00          2.55208
              P 8  -- In 25                  0.65        -0.00          2.55251
              P 15 -- In 6                   0.66         0.00          2.55301
              P 10 -- In 27                  0.65         0.00          2.55308
              P 21 -- In 23                  0.67         0.00          2.55325
              P 28 -- In 11                  0.65         0.00          2.55335
              P 6  -- In 23                  0.66        -0.00          2.55337
              P 5  -- In 6                   0.66        -0.00          2.55337
              P 27 -- In 17                  0.66         0.00          2.55340
              P 19 -- In 26                  0.63         0.00          2.55352
              P 30 -- In 15                  0.66        -0.00          2.55379
              P 13 -- In 15                  0.66        -0.00          2.55389
              P 10 -- In 12                  0.65         0.00          2.55418
              P 30 -- In 30                  0.66        -0.00          2.55441
              P 6  -- In 21                  0.65         0.00          2.55468
              P 24 -- In 9                   0.66        -0.00          2.55515
              P 21 -- In 20                  0.65        -0.00          2.55521
              P 4  -- In 8                   0.68         0.00          2.55565
              P 20 -- In 3                   0.66        -0.00          2.55569
              P 9  -- In 11                  0.65        -0.00          2.55592
              P 17 -- In 21                  0.66        -0.00          2.55621
              P 30 -- In 32                  0.66         0.00          2.55648
              P 8  -- In 23                  0.68         0.00          2.55692
              P 30 -- In 13                  0.66        -0.00          2.55694
              P 5  -- In 4                   0.55        -0.01          2.55719
              P 27 -- In 27                  0.66        -0.00          2.55723
              P 3  -- In 10                  0.65         0.00          2.55737
              P 18 -- In 18                  0.65        -0.00          2.55760
              P 29 -- In 28                  0.65        -0.00          2.55768
              P 3  -- In 9                   0.64         0.00          2.55778
              P 19 -- In 25                  0.65         0.00          2.55784
              P 18 -- In 1                   0.64        -0.00          2.55859
              P 16 -- In 6                   0.65         0.00          2.55923
              P 3  -- In 3                   0.67         0.00          2.56014
              P 13 -- In 12                  0.65         0.00          2.56050
              P 11 -- In 12                  0.66        -0.01          2.56069
              P 25 -- In 27                  0.65         0.00          2.56121
              P 6  -- In 6                   0.65         0.00          2.56140
              P 12 -- In 21                  0.64        -0.00          2.56206
              P 28 -- In 18                  0.64        -0.00          2.56418
              P 19 -- In 20                  0.66        -0.00          2.56462
              P 7  -- In 8                   0.65        -0.00          2.56503
              P 11 -- In 1                   0.65         0.01          2.56564
              P 32 -- In 1                   0.64        -0.00          2.56635
              P 27 -- In 18                  0.65         0.00          2.56853
              P 31 -- In 21                  0.64         0.00          2.56866
              P 17 -- In 19                  0.54         0.00          2.57288
              P 2  -- In 2                   0.55         0.02          2.57571
              P 33 -- In 2                  -0.01        -0.03          2.98208
================================================================================

 Hirshfeld supercell size:           2           2           2
Standard grid dimensions: 240 240 240
Fine grid dimensions:     240 240 240


     Hirshfeld Analysis
     ------------------
Species   Ion     Hirshfeld Charge (e)  Spin (hbar/2)
===================================================
  P        1                -0.23        0.02
  P        2                -0.15        0.39
  P        3                -0.23        0.00
  P        4                -0.24        0.02
  P        5                -0.24        0.01
  P        6                -0.23        0.00
  P        7                -0.24        0.00
  P        8                -0.24        0.00
  P        9                -0.24        0.00
  P       10                -0.24       -0.00
  P       11                -0.23        0.01
  P       12                -0.23        0.01
  P       13                -0.24        0.00
  P       14                -0.24        0.01
  P       15                -0.24        0.00
  P       16                -0.23        0.04
  P       17                -0.24        0.01
  P       18                -0.24        0.00
  P       19                -0.23        0.00
  P       20                -0.24        0.00
  P       21                -0.23        0.02
  P       22                -0.24        0.01
  P       23                -0.24        0.00
  P       24                -0.24        0.00
  P       25                -0.24        0.00
  P       26                -0.24        0.00
  P       27                -0.23        0.01
  P       28                -0.24        0.00
  P       29                -0.24        0.00
  P       30                -0.24        0.00
  P       31                -0.24       -0.00
  P       32                -0.24        0.00
  P       33                -0.18        0.22
  In       1                 0.25        0.00
  In       2                 0.26        0.04
  In       3                 0.25        0.00
  In       4                 0.22        0.02
  In       5                 0.24        0.01
  In       6                 0.25        0.00
  In       7                 0.23        0.00
  In       8                 0.25        0.00
  In       9                 0.24        0.00
  In      10                 0.24        0.00
  In      11                 0.23        0.00
  In      12                 0.25        0.00
  In      13                 0.23        0.00
  In      14                 0.23        0.00
  In      15                 0.24        0.00
  In      16                 0.23        0.00
  In      17                 0.25        0.05
  In      18                 0.25        0.00
  In      19                 0.22        0.02
  In      20                 0.25        0.00
  In      21                 0.25        0.00
  In      22                 0.24        0.00
  In      23                 0.25        0.00
  In      24                 0.23        0.01
  In      25                 0.24        0.00
  In      26                 0.24        0.00
  In      27                 0.25        0.00
  In      28                 0.24        0.00
  In      29                 0.23        0.00
  In      30                 0.24        0.00
  In      31                 0.23        0.01
  In      32                 0.24        0.00
===================================================

 
 A BibTeX formatted list of references used in this run has been written to 
 P_Interstitial_Migration_Dumbbell_Dumbbell+_Singlepoints_5.bib
 
Initialisation time =     30.40 s
Calculation time    =   7832.08 s
Finalisation time   =    167.73 s
Total time          =   8030.22 s
Peak Memory Use     = 9617308 kB
 
Overall parallel efficiency rating: Poor (35%)
 
Data was distributed by:-
G-vector (3-way); efficiency rating: Poor (37%)
k-point (36-way); efficiency rating: Very good (84%)
