 +-------------------------------------------------+
 |                                                 |
 |      CCC   AA    SSS  TTTTT  EEEEE  PPPP        |
 |     C     A  A  S       T    E      P   P       |
 |     C     AAAA   SS     T    EEE    PPPP        |
 |     C     A  A     S    T    E      P           |
 |      CCC  A  A  SSS     T    EEEEE  P           |
 |                                                 |
 +-------------------------------------------------+
 |                                                 |
 | Welcome to Academic Release CASTEP version 24.1 |
 | Ab Initio Total Energy Program                  |
 |                                                 |
 | Authors:                                        |
 | M. Segall, M. Probert, C. Pickard, P. Hasnip,   |
 | S. Clark, K. Refson, J. R. Yates,               |
 | A. Bartok-Partay, M. Payne                      |
 |                                                 |
 | Contributors:                                   |
 | P. Lindan, P. Haynes, J. White, V. Milman,      |
 | N. Govind, M. Gibson, P. Tulip, V. Cocula,      |
 | B. Montanari, D. Quigley, M. Glover,            |
 | L. Bernasconi, A. Perlov, M. Plummer,           |
 | E. McNellis, J. Meyer, J. Gale, D. Jochym       |
 | J. Aarons, B. Walker, R. Gillen, D. Jones       |
 | T. Green, I. J. Bush, C. J. Armstrong,          |
 | E. J. Higgins, E. L. Brown, M. S. McFly,        |
 | J. Wilkins, B-C. Shih, P. J. P. Byrne,          |
 | R. J. Maurer, J. C. Womack, J. Dziedzic,        |
 | L. LeBlanc, T. K. Stenczel, J. Kermode,         |
 | S. Sturniolo, B. Shi, B. Durham, M. Evans,      |
 | M. J. Smith, A. Tamerus, Z. Hawkhead,           |
 | V. Ravindran, T. Hollins, S. A. Joyce,          |
 | R. T. Strong, A. M. Reilly, S. J. Donaldson     |
 |                                                 |
 | Copyright (c) 2000 - 2023                       |
 |                                                 |
 |     Distributed under license from Cambridge    |
 |     Enterprise for academic use only.           |
 |                                                 |
 | Please cite                                     |
 |                                                 |
 |     "First principles methods using CASTEP"     |
 |                                                 |
 |         Zeitschrift fuer Kristallographie       |
 |           220(5-6) pp. 567-570 (2005)           |
 |                                                 |
 | S. J. Clark, M. D. Segall, C. J. Pickard,       |
 | P. J. Hasnip, M. J. Probert, K. Refson,         |
 | M. C. Payne                                     |
 |                                                 |
 |       in all publications arising from          |
 |              your use of CASTEP                 |
 |                                                 |
 +-------------------------------------------------+
 |                                                 |
 |              http://www.castep.org              |
 |                                                 |
 +-------------------------------------------------+



 Compiled for  GNU 11.2.0 on 04-04-2024 18:39:17
 from code version 6355fd106 Castep241_branch Thu Mar 7 17:56:19 2024 +0000
 Compiler: GNU Fortran 11.2.0; Optimisation: FAST
 Comms   : MPI VERSION : CRAY MPICH version 8.1.23.14 (ANL base 3.4a2)
 MATHLIBS: default (LAPACK version 3.10.1)
 FFT Lib : fftw3 version commercial-fftw-3.3.10-sse2-avx-avx2-avx2_128
 Fundamental constants values: CODATA 2018

 Run started: Tue, 29 Jul 2025 23:11:33 +0100

 Atomic calculation performed for P: 1s2 2s2 2p6 3s2 3p3

 Converged in 47 iterations to an ae energy of -9309.074 eV

   ============================================================                
   | Pseudopotential Report - Date of generation 29-07-2025   |                
   ------------------------------------------------------------                
   | Element: P Ionic charge:  5.00 Level of theory: RSCAN    |                
   | Atomic Solver: Koelling-Harmon                           |                
   |                                                          |                
   |               Reference Electronic Structure             |                
   |         Orbital         Occupation         Energy        |                
   |            3s              2.000           -0.535        |                
   |            3p              3.000           -0.209        |                
   |                                                          |                
   |                 Pseudopotential Definition               |                
   |        Beta     l      e      Rc     scheme   norm       |                
   |          1      0   -0.535   1.807     qc      0         |                
   |          2      0    0.250   1.807     qc      0         |                
   |          3      1   -0.209   1.807     qc      0         |                
   |          4      1    0.250   1.807     qc      0         |                
   |          5      2    0.000   1.807     qc      0         |                
   |          6      2    0.250   1.807     qc      0         |                
   |         loc     3    0.000   1.807     pn      0         |                
   |                                                          |                
   | Augmentation charge Rinner = 1.263                       |                
   | Partial core correction Rc = 1.263                       |                
   ------------------------------------------------------------                
   | "3|1.8|4|4|5|30:31:32"                                   |                
   ------------------------------------------------------------                
   |      Author: Chris J. Pickard, Cambridge University      |                
   ============================================================                
 Warning: otfg_output_psp cannot write out meta-GGA pseudopotentials presently.

 Atomic calculation performed for In:
 1s2 2s2 2p6 3s2 3p6 3d10 4s2 4p6 4d10 5s2 5p1

 Converged in 84 iterations to an ae energy of -160093.328 eV

   ============================================================                
   | Pseudopotential Report - Date of generation 29-07-2025   |                
   ------------------------------------------------------------                
   | Element: In Ionic charge: 13.00 Level of theory: RSCAN   |                
   | Atomic Solver: Koelling-Harmon                           |                
   |                                                          |                
   |               Reference Electronic Structure             |                
   |         Orbital         Occupation         Energy        |                
   |            4d             10.000           -0.711        |                
   |            5s              2.000           -0.313        |                
   |            5p              1.000           -0.095        |                
   |                                                          |                
   |                 Pseudopotential Definition               |                
   |        Beta     l      e      Rc     scheme   norm       |                
   |          1      0   -0.313   2.501     qc      0         |                
   |          2      0    0.250   2.501     qc      0         |                
   |          3      1   -0.095   2.501     qc      0         |                
   |          4      1    0.250   2.501     qc      0         |                
   |          5      2   -0.711   2.207     qc      0         |                
   |          6      2    0.250   2.207     qc      0         |                
   |         loc     3    0.000   2.501     pn      0         |                
   |                                                          |                
   | Augmentation charge Rinner = 1.504                       |                
   | Partial core correction Rc = 1.504                       |                
   ------------------------------------------------------------                
   | "3|2.5|2.5|1.5|7|8|9|50:51:42U2.2U2.2"                   |                
   ------------------------------------------------------------                
   |      Author: Chris J. Pickard, Cambridge University      |                
   ============================================================                
 Warning: otfg_output_psp cannot write out meta-GGA pseudopotentials presently.

 Pseudo atomic calculation performed for P 3s2 3p3

 Converged in 23 iterations to a total energy of -208.0292 eV

 Pseudo atomic calculation performed for In 4d10 5s2 5p1

 Converged in 42 iterations to a total energy of -1747.4501 eV
 Calculation parallelised over 108 processes.
 Data is distributed by G-vector(3-way) and k-point(36-way)
 Each process may use up to 16 threads.

 ************************************ Title ************************************
 

 ***************************** General Parameters ******************************
  
 output verbosity                               : normal  (1)
 write checkpoint data to                       : P_Interstitial_Migration_Dumbbell#_Dumbbell+_Singlepoints_5.check
 type of calculation                            : single point energy
 stress calculation                             : off
 density difference calculation                 : off
 electron localisation func (ELF) calculation   : off
 Hirshfeld analysis                             : on
 polarisation (Berry phase) analysis            : off
 molecular orbital projected DOS                : off
 deltaSCF calculation                           : off
 unlimited duration calculation
 timing information                             : on
 memory usage estimate                          : on
 write extra output files                       : on
 write final potential to formatted file        : off
 write final density to formatted file          : off
 write BibTeX reference list                    : on
 write OTFG pseudopotential files               : on
 write electrostatic potential file             : on
 write bands file                               : on
 checkpoint writing                             : off
  
 output         length unit                     : A
 output           mass unit                     : amu
 output           time unit                     : ps
 output         charge unit                     : e
 output           spin unit                     : hbar/2
 output         energy unit                     : eV
 output          force unit                     : eV/A
 output       velocity unit                     : A/ps
 output       pressure unit                     : GPa
 output     inv_length unit                     : 1/A
 output      frequency unit                     : cm-1
 output force constant unit                     : eV/A**2
 output         volume unit                     : A**3
 output   IR intensity unit                     : (D/A)**2/amu
 output         dipole unit                     : D
 output         efield unit                     : eV/A/e
 output        entropy unit                     : J/mol/K
 output    efield chi2 unit                     : pm/V
  
 wavefunctions paging                           : none
 random number generator seed                   :  231133848
 data distribution                              : optimal for this architecture
 optimization strategy                          : balance speed and memory

 *********************** Exchange-Correlation Parameters ***********************
  
 using functional                               : RSCAN
 relativistic treatment                         : Koelling-Harmon
 DFT+D: Semi-empirical dispersion correction    : off

 ************************* Pseudopotential Parameters **************************
  
 pseudopotential representation                 : reciprocal space
 <beta|phi> representation                      : reciprocal space
 spin-orbit coupling                            : off

 **************************** Basis Set Parameters *****************************
  
 plane wave basis set cut-off                   :   900.0000   eV
 size of standard grid                          :     2.0000
 size of   fine   gmax                          :    30.7390   1/A
 finite basis set correction                    : none

 **************************** Electronic Parameters ****************************
  
 number of  electrons                           :  581.0    
 net charge of system                           :  0.000    
 net spin   of system                           :  1.000    
 number of  up  spins                           :  291.0    
 number of down spins                           :  290.0    
 treating system as spin-polarized
 number of bands                                :        349

 ********************* Electronic Minimization Parameters **********************
  
 Method: Treating system as metallic with density mixing treatment of electrons,
         and number of  SD  steps               :          1
         and number of  CG  steps               :          4
  
 total energy / atom convergence tol.           : 0.1000E-07   eV
 eigen-energy convergence tolerance             : 0.2234E-08   eV
 max force / atom convergence tol.              : ignored
 convergence tolerance window                   :          3   cycles
 max. number of SCF cycles                      :        100
 number of fixed-spin iterations                :         10
 smearing scheme                                : Gaussian
 smearing width                                 : 0.2000       eV
 Fermi energy convergence tolerance             : 0.2721E-13   eV
 periodic dipole correction                     : NONE

 ************************** Density Mixing Parameters **************************
  
 density-mixing scheme                          : Pulay
 max. length of mixing history                  :         20
 charge density mixing amplitude                : 0.5000    
   spin density mixing amplitude                :  2.000    
 cut-off energy for mixing                      :  900.0       eV

 *********************** Population Analysis Parameters ************************
  
 Population analysis with cutoff                :  3.000       A
 Population analysis output                     : summary and pdos components

 *******************************************************************************
  

                           -------------------------------
                                      Unit Cell
                           -------------------------------
        Real Lattice(A)                      Reciprocal Lattice(1/A)
    11.8016820    -0.0000080    -0.0000080        0.532397442   0.000000361   0.000000361
    -0.0000080    11.8016820    -0.0000080        0.000000361   0.532397442   0.000000361
    -0.0000080    -0.0000080    11.8016820        0.000000361   0.000000361   0.532397442

                       Lattice parameters(A)       Cell Angles
                    a =     11.801682          alpha =   90.000078
                    b =     11.801682          beta  =   90.000078
                    c =     11.801682          gamma =   90.000078

                       Current cell volume =          1643.734705       A**3
                                   density =             2.857097   AMU/A**3
                                           =             4.744322     g/cm^3

                           -------------------------------
                                     Cell Contents
                           -------------------------------
                         Total number of ions in cell =   65
                      Total number of species in cell =    2
                        Max number of any one species =   33

            xxxxxxxxxxxxxxxxxxxxxxxxxxxxxxxxxxxxxxxxxxxxxxxxxxxxxxxxxxxx
            x  Element    Atom        Fractional coordinates of atoms  x
            x            Number           u          v          w      x
            x----------------------------------------------------------x
            x  P            1         0.123256   0.119951   0.372073   x 
            x  P            2         0.337052   0.086394   0.086295   x 
            x  P            3         0.123256   0.372171   0.119853   x 
            x  P            4         0.376241   0.386894   0.386796   x 
            x  P            5         0.116703   0.117338   0.863132   x 
            x  P            6         0.373158   0.121086   0.620556   x 
            x  P            7         0.122323   0.370959   0.620923   x 
            x  P            8         0.373302   0.369775   0.870360   x 
            x  P            9         0.122323   0.621021   0.370860   x 
            x  P           10         0.373158   0.620655   0.120988   x 
            x  P           11         0.116703   0.863230   0.117239   x 
            x  P           12         0.373302   0.870458   0.369677   x 
            x  P           13         0.122524   0.619921   0.869547   x 
            x  P           14         0.372415   0.623249   0.623151   x 
            x  P           15         0.122524   0.869646   0.619822   x 
            x  P           16         0.374489   0.870626   0.870527   x 
            x  P           17         0.635728   0.117245   0.377111   x 
            x  P           18         0.876234   0.120075   0.119976   x 
            x  P           19         0.635728   0.377210   0.117146   x 
            x  P           20         0.876207   0.370271   0.370172   x 
            x  P           21         0.625554   0.121889   0.869622   x 
            x  P           22         0.872909   0.118894   0.622174   x 
            x  P           23         0.625480   0.370714   0.622537   x 
            x  P           24         0.874617   0.372395   0.869344   x 
            x  P           25         0.625480   0.622635   0.370616   x 
            x  P           26         0.872909   0.622272   0.118796   x 
            x  P           27         0.625554   0.869721   0.121791   x 
            x  P           28         0.874617   0.869442   0.372297   x 
            x  P           29         0.620313   0.619752   0.871110   x 
            x  P           30         0.872181   0.620737   0.620639   x 
            x  P           31         0.620313   0.871209   0.619653   x 
            x  P           32         0.871261   0.868961   0.868862   x 
            x  P           33         0.339427   0.214567   0.214468   x 
            x  In           1        -0.003403  -0.006816  -0.006914   x 
            x  In           2         0.236128  -0.016697   0.248126   x 
            x  In           3         0.001922   0.244813   0.244715   x 
            x  In           4         0.236128   0.248224  -0.016796   x 
            x  In           5        -0.002094  -0.003194   0.496284   x 
            x  In           6         0.248642  -0.007056   0.743989   x 
            x  In           7        -0.004299   0.246378   0.742989   x 
            x  In           8         0.249803   0.247872   0.495932   x 
            x  In           9        -0.002094   0.496383  -0.003293   x 
            x  In          10         0.249803   0.496031   0.247773   x 
            x  In          11        -0.004299   0.743088   0.246280   x 
            x  In          12         0.248642   0.744088  -0.007154   x 
            x  In          13        -0.001571   0.496345   0.496246   x 
            x  In          14         0.248159   0.495635   0.745253   x 
            x  In          15        -0.002013   0.745047   0.744948   x 
            x  In          16         0.248159   0.745351   0.495537   x 
            x  In          17         0.505343  -0.006403  -0.006502   x 
            x  In          18         0.753826  -0.006921   0.244065   x 
            x  In          19         0.531492   0.265196   0.265098   x 
            x  In          20         0.753826   0.244163  -0.007020   x 
            x  In          21         0.496702  -0.001880   0.493823   x 
            x  In          22         0.746913  -0.006189   0.744383   x 
            x  In          23         0.498441   0.245382   0.745450   x 
            x  In          24         0.754338   0.248243   0.499950   x 
            x  In          25         0.496702   0.493921  -0.001978   x 
            x  In          26         0.754338   0.500049   0.248144   x 
            x  In          27         0.498441   0.745549   0.245284   x 
            x  In          28         0.746913   0.744482  -0.006287   x 
            x  In          29         0.504657   0.504203   0.504104   x 
            x  In          30         0.747736   0.497068   0.747133   x 
            x  In          31         0.496539   0.746473   0.746374   x 
            x  In          32         0.747736   0.747231   0.496969   x 
            xxxxxxxxxxxxxxxxxxxxxxxxxxxxxxxxxxxxxxxxxxxxxxxxxxxxxxxxxxxx


                         No user defined ionic velocities

                           -------------------------------
                                   Details of Species
                           -------------------------------

                               Mass of species in AMU
                                    P   30.9737600
                                    In  114.8180000

                          Electric Quadrupole Moment (Barn)
                                    P    1.0000000 No Isotope Defined
                                    In    0.7700000 Isotope115

                          Files used for pseudopotentials:
                                    P 3|1.8|4|4|5|30:31:32
                                    In 3|2.5|2.5|1.5|7|8|9|50:51:42U2.2U2.2

                           -------------------------------
                              k-Points For BZ Sampling
                           -------------------------------
                       MP grid size for SCF calculation is  4  4  4
                            with an offset of   0.125  0.125  0.125
                       Number of kpoints used =            36

                           -------------------------------
                               Symmetry and Constraints
                           -------------------------------

                      Maximum deviation from symmetry =  0.00000         ANG

                      Number of symmetry operations   =           1
                      Number of ionic constraints     =           3
                      Point group of crystal =     1: C1, 1, 1
                      Space group of crystal =     8: Cm, C -2y

             Set iprint > 1 for details on symmetry rotations/translations

                         Centre of mass is constrained
             Set iprint > 1 for details of linear ionic constraints

                         Number of cell constraints= 0
                         Cell constraints are:  1 2 3 4 5 6

                         External pressure/stress (GPa)
                          0.00000   0.00000   0.00000
                                    0.00000   0.00000
                                              0.00000
 
+---------------- MEMORY AND SCRATCH DISK ESTIMATES PER PROCESS --------------+
|                                                     Memory          Disk    |
| Baseline code, static data and system overhead      368.0 MB         0.0 MB |
| BLAS internal memory storage                          0.0 MB         0.0 MB |
| Model and support data                             4327.0 MB         0.0 MB |
| Electronic energy minimisation requirements        1337.1 MB         0.0 MB |
| Force calculation requirements                      127.4 MB         0.0 MB |
|                                               ----------------------------- |
| Approx. total storage required per process         6032.2 MB         0.0 MB |
|                                                                             |
| Requirements will fluctuate during execution and may exceed these estimates |
+-----------------------------------------------------------------------------+
Calculating approximate eigenstates for fixed initial Hamiltonian
Cut-off for approx. calculation is   89.988 eV
Improving approx. states at cut-off of  450.000 eV
Resetting cut-off to  900.000 eV
Calculating total energy with cut-off of  900.000 eV.
------------------------------------------------------------------------ <-- SCF
SCF loop      Energy           Fermi           Energy gain       Timer   <-- SCF
                               energy          per atom          (sec)   <-- SCF
------------------------------------------------------------------------ <-- SCF
Initial  -6.32549079E+004  0.00000000E+000                       447.12  <-- SCF
      1  -6.30178475E+004  2.84301838E+000  -3.64708387E+000     914.84  <-- SCF
      2  -6.30181202E+004  2.84264682E+000   4.19645028E-003    1234.90  <-- SCF
      3  -6.30840899E+004  3.14704682E+000   1.01491797E+000    1587.86  <-- SCF
      4  -6.30956663E+004  3.23002233E+000   1.78098616E-001    2081.23  <-- SCF
      5  -6.31015893E+004  3.40462881E+000   9.11224791E-002    2430.65  <-- SCF
      6  -6.30901899E+004  3.59995021E+000  -1.75375576E-001    2785.31  <-- SCF
      7  -6.30888607E+004  3.65050277E+000  -2.04489586E-002    3137.94  <-- SCF
      8  -6.30889928E+004  3.69171551E+000   2.03292086E-003    3505.75  <-- SCF
      9  -6.30898188E+004  3.71591746E+000   1.27071567E-002    3854.64  <-- SCF
     10  -6.30900973E+004  3.70113919E+000   4.28404447E-003    4218.19  <-- SCF
     11  -6.30901046E+004  3.69365499E+000   1.13569918E-004    4598.06  <-- SCF
     12  -6.30901075E+004  3.68735806E+000   4.36475551E-005    4946.11  <-- SCF
     13  -6.30901087E+004  3.68699136E+000   1.87168969E-005    5311.60  <-- SCF
     14  -6.30901090E+004  3.68614515E+000   4.38419122E-006    5690.63  <-- SCF
     15  -6.30901090E+004  3.68541491E+000   1.06333933E-006    6046.87  <-- SCF
     16  -6.30901091E+004  3.68541974E+000   3.15334054E-007    6355.88  <-- SCF
     17  -6.30901091E+004  3.68527825E+000   8.85261644E-008    6640.17  <-- SCF
     18  -6.30901091E+004  3.68534454E+000   3.07425349E-008    6888.56  <-- SCF
     19  -6.30901091E+004  3.68540581E+000   1.01208495E-008    7133.83  <-- SCF
     20  -6.30901091E+004  3.68541863E+000   2.88435549E-009    7377.74  <-- SCF
     21  -6.30901091E+004  3.68542257E+000   7.89290336E-010    7623.95  <-- SCF
------------------------------------------------------------------------ <-- SCF
 
Integrated Spin Density     =    0.999464     hbar/2
Integrated |Spin Density|   =     1.20593     hbar/2
 
Final energy, E             =  -63090.10745318     eV
Final free energy (E-TS)    =  -63090.10907680     eV
(energies not corrected for finite basis set)
 
NB est. 0K energy (E-0.5TS)      =  -63090.10826499     eV
 

 ************************** Forces **************************
 *                                                          *
 *               Cartesian components (eV/A)                *
 * -------------------------------------------------------- *
 *                         x            y            z      *
 *                                                          *
 * P               1      0.00817     -0.01052      0.07516 *
 * P               2      0.06041     -0.07731     -0.07710 *
 * P               3      0.00823      0.07511     -0.01037 *
 * P               4      0.26957     -0.15039     -0.15009 *
 * P               5     -0.05639      0.02365     -0.09125 *
 * P               6     -0.03583     -0.02158      0.02091 *
 * P               7      0.01302     -0.03119     -0.00390 *
 * P               8      0.00953      0.00256      0.02570 *
 * P               9      0.01303     -0.00429     -0.03079 *
 * P              10     -0.03584      0.02053     -0.02120 *
 * P              11     -0.05639     -0.09136      0.02318 *
 * P              12      0.00954      0.02537      0.00273 *
 * P              13      0.00375     -0.01601      0.02388 *
 * P              14      0.00861      0.12238      0.12219 *
 * P              15      0.00375      0.02370     -0.01575 *
 * P              16     -0.01105      0.02576      0.02610 *
 * P              17     -0.09804      0.05790     -0.06224 *
 * P              18      0.00702     -0.01195     -0.01168 *
 * P              19     -0.09798     -0.06213      0.05747 *
 * P              20      0.03536      0.01731      0.01761 *
 * P              21     -0.00790     -0.01359      0.04608 *
 * P              22      0.00555      0.03335     -0.00261 *
 * P              23      0.00327      0.02587      0.03265 *
 * P              24      0.01800     -0.01520      0.02615 *
 * P              25      0.00328      0.03268      0.02610 *
 * P              26      0.00566     -0.00261      0.03316 *
 * P              27     -0.00790      0.04599     -0.01347 *
 * P              28      0.01796      0.02618     -0.01525 *
 * P              29      0.01374      0.01439     -0.01437 *
 * P              30     -0.00214      0.00395      0.00434 *
 * P              31      0.01372     -0.01472      0.01456 *
 * P              32     -0.00129      0.00057      0.00052 *
 * P              33      0.02253     -0.25899     -0.25938 *
 * In              1      0.04890      0.03027      0.03015 *
 * In              2     -0.12142     -0.12098      0.01531 *
 * In              3     -0.07507      0.01938      0.01927 *
 * In              4     -0.12143      0.01543     -0.12111 *
 * In              5     -0.01817     -0.03645      0.01576 *
 * In              6      0.02473      0.07526      0.03467 *
 * In              7     -0.00604     -0.01288     -0.02396 *
 * In              8      0.10239      0.09323     -0.08411 *
 * In              9     -0.01817      0.01587     -0.03657 *
 * In             10      0.10239     -0.08400      0.09311 *
 * In             11     -0.00605     -0.02384     -0.01299 *
 * In             12      0.02473      0.03479      0.07514 *
 * In             13      0.02673      0.01157      0.01145 *
 * In             14     -0.00689      0.00516     -0.04326 *
 * In             15     -0.00284     -0.02029     -0.02040 *
 * In             16     -0.00689     -0.04315      0.00505 *
 * In             17      0.01133     -0.08903     -0.08914 *
 * In             18     -0.02263      0.05864      0.08321 *
 * In             19     -0.16464      0.22984      0.22973 *
 * In             20     -0.02263      0.08332      0.05852 *
 * In             21      0.07198      0.01728      0.00743 *
 * In             22     -0.01007      0.02700     -0.02486 *
 * In             23      0.01898     -0.00035     -0.04449 *
 * In             24     -0.01031     -0.07679     -0.01922 *
 * In             25      0.07198      0.00753      0.01717 *
 * In             26     -0.01031     -0.01910     -0.07691 *
 * In             27      0.01898     -0.04438     -0.00046 *
 * In             28     -0.01007     -0.02475      0.02688 *
 * In             29     -0.10072      0.06869      0.06858 *
 * In             30      0.02680     -0.01485      0.02525 *
 * In             31      0.01467     -0.00315     -0.00326 *
 * In             32      0.02680      0.02535     -0.01497 *
 *                                                          *
 ************************************************************

 Pseudo atomic calculation performed for P 3s2 3p3

 Converged in 23 iterations to a total energy of -208.0292 eV

 Pseudo atomic calculation performed for In 4d10 5s2 5p1

 Converged in 42 iterations to a total energy of -1747.4501 eV
Charge spilling parameter for spin component 1 = 0.18%
Charge spilling parameter for spin component 2 = 0.18%

                   Orbital Populations                  
  ---------------------------------------------------------------
     Ion    Atom   Orbital              Up        Down      Spin
  ---------------------------------------------------------------
      P     1      S                    0.872     0.868     0.005
      P     1      Px                   0.656     0.644     0.012
      P     1      Py                   0.648     0.647     0.001
      P     1      Pz                   0.651     0.650     0.001
      P     2      S                    0.865     0.862     0.003
      P     2      Px                   0.695     0.694     0.001
      P     2      Py                   0.631     0.566     0.065
      P     2      Pz                   0.631     0.566     0.065
      P     3      S                    0.872     0.868     0.005
      P     3      Px                   0.656     0.644     0.012
      P     3      Py                   0.651     0.650     0.001
      P     3      Pz                   0.648     0.647     0.001
      P     4      S                    0.872     0.871     0.001
      P     4      Px                   0.642     0.642    -0.000
      P     4      Py                   0.662     0.652     0.010
      P     4      Pz                   0.662     0.652     0.010
      P     5      S                    0.869     0.865     0.004
      P     5      Px                   0.663     0.651     0.012
      P     5      Py                   0.655     0.647     0.008
      P     5      Pz                   0.663     0.652     0.011
      P     6      S                    0.867     0.867    -0.000
      P     6      Px                   0.658     0.658     0.000
      P     6      Py                   0.657     0.657    -0.000
      P     6      Pz                   0.656     0.656    -0.000
      P     7      S                    0.867     0.867     0.001
      P     7      Px                   0.656     0.655     0.002
      P     7      Py                   0.658     0.657     0.001
      P     7      Pz                   0.657     0.656     0.001
      P     8      S                    0.868     0.868    -0.000
      P     8      Px                   0.653     0.653     0.000
      P     8      Py                   0.658     0.657     0.001
      P     8      Pz                   0.658     0.658    -0.000
      P     9      S                    0.867     0.867     0.001
      P     9      Px                   0.656     0.655     0.002
      P     9      Py                   0.657     0.656     0.001
      P     9      Pz                   0.658     0.657     0.001
      P    10      S                    0.867     0.867    -0.000
      P    10      Px                   0.658     0.658     0.000
      P    10      Py                   0.656     0.656    -0.000
      P    10      Pz                   0.657     0.657    -0.000
      P    11      S                    0.869     0.865     0.004
      P    11      Px                   0.663     0.651     0.012
      P    11      Py                   0.663     0.652     0.011
      P    11      Pz                   0.655     0.647     0.008
      P    12      S                    0.868     0.868    -0.000
      P    12      Px                   0.654     0.653     0.000
      P    12      Py                   0.658     0.658    -0.000
      P    12      Pz                   0.658     0.657     0.001
      P    13      S                    0.867     0.867    -0.000
      P    13      Px                   0.656     0.656    -0.000
      P    13      Py                   0.657     0.657    -0.000
      P    13      Pz                   0.657     0.658    -0.000
      P    14      S                    0.865     0.865    -0.000
      P    14      Px                   0.653     0.654    -0.000
      P    14      Py                   0.660     0.660    -0.001
      P    14      Pz                   0.660     0.660    -0.001
      P    15      S                    0.867     0.867    -0.000
      P    15      Px                   0.656     0.656    -0.000
      P    15      Py                   0.657     0.658    -0.000
      P    15      Pz                   0.657     0.657    -0.000
      P    16      S                    0.866     0.867    -0.000
      P    16      Px                   0.653     0.653    -0.000
      P    16      Py                   0.657     0.658    -0.000
      P    16      Pz                   0.657     0.658    -0.000
      P    17      S                    0.868     0.866     0.002
      P    17      Px                   0.668     0.660     0.009
      P    17      Py                   0.645     0.641     0.003
      P    17      Pz                   0.664     0.661     0.003
      P    18      S                    0.866     0.867    -0.000
      P    18      Px                   0.658     0.659    -0.000
      P    18      Py                   0.657     0.657    -0.000
      P    18      Pz                   0.657     0.657    -0.000
      P    19      S                    0.868     0.866     0.002
      P    19      Px                   0.668     0.660     0.009
      P    19      Py                   0.664     0.661     0.003
      P    19      Pz                   0.645     0.641     0.003
      P    20      S                    0.867     0.867    -0.000
      P    20      Px                   0.658     0.658    -0.000
      P    20      Py                   0.656     0.656    -0.000
      P    20      Pz                   0.656     0.656    -0.000
      P    21      S                    0.868     0.867     0.001
      P    21      Px                   0.659     0.657     0.002
      P    21      Py                   0.656     0.655     0.001
      P    21      Pz                   0.657     0.656     0.001
      P    22      S                    0.864     0.864     0.000
      P    22      Px                   0.661     0.659     0.002
      P    22      Py                   0.655     0.654     0.001
      P    22      Pz                   0.662     0.660     0.002
      P    23      S                    0.866     0.866     0.000
      P    23      Px                   0.658     0.658     0.000
      P    23      Py                   0.654     0.654     0.000
      P    23      Pz                   0.659     0.659     0.000
      P    24      S                    0.866     0.866     0.000
      P    24      Px                   0.659     0.658     0.000
      P    24      Py                   0.656     0.656     0.001
      P    24      Pz                   0.658     0.657     0.001
      P    25      S                    0.866     0.866     0.000
      P    25      Px                   0.658     0.658     0.000
      P    25      Py                   0.659     0.659     0.000
      P    25      Pz                   0.654     0.654     0.000
      P    26      S                    0.864     0.864     0.000
      P    26      Px                   0.661     0.659     0.002
      P    26      Py                   0.662     0.660     0.002
      P    26      Pz                   0.655     0.654     0.001
      P    27      S                    0.868     0.867     0.001
      P    27      Px                   0.659     0.657     0.002
      P    27      Py                   0.657     0.656     0.001
      P    27      Pz                   0.656     0.655     0.001
      P    28      S                    0.866     0.866     0.000
      P    28      Px                   0.659     0.658     0.000
      P    28      Py                   0.658     0.657     0.001
      P    28      Pz                   0.656     0.656     0.001
      P    29      S                    0.867     0.867     0.000
      P    29      Px                   0.657     0.657     0.000
      P    29      Py                   0.656     0.656     0.000
      P    29      Pz                   0.657     0.657     0.000
      P    30      S                    0.867     0.867    -0.000
      P    30      Px                   0.656     0.656    -0.000
      P    30      Py                   0.657     0.657     0.000
      P    30      Pz                   0.657     0.657     0.000
      P    31      S                    0.867     0.867     0.000
      P    31      Px                   0.657     0.657     0.000
      P    31      Py                   0.657     0.657     0.000
      P    31      Pz                   0.656     0.656     0.000
      P    32      S                    0.866     0.866    -0.000
      P    32      Px                   0.656     0.656    -0.000
      P    32      Py                   0.658     0.658    -0.000
      P    32      Pz                   0.658     0.658    -0.000
      P    33      S                    0.925     0.910     0.015
      P    33      Px                   0.713     0.698     0.015
      P    33      Py                   0.690     0.367     0.324
      P    33      Pz                   0.690     0.367     0.323
     In     1      Dzz                  1.000     1.000     0.000
     In     1      Dzy                  0.998     0.998    -0.000
     In     1      Dzx                  0.998     0.998     0.000
     In     1      Dxx-yy               1.000     1.000     0.000
     In     1      Dxy                  0.998     0.998     0.000
     In     1      S                    0.707     0.708    -0.001
     In     1      Px                   0.235     0.236    -0.001
     In     1      Py                   0.242     0.241     0.000
     In     1      Pz                   0.242     0.241     0.000
     In     1      S                   -0.258    -0.258    -0.001
     In     2      Dzz                  1.000     0.999     0.000
     In     2      Dzy                  0.998     0.998     0.000
     In     2      Dzx                  0.999     0.998     0.001
     In     2      Dxx-yy               1.000     1.000     0.000
     In     2      Dxy                  0.999     0.999     0.000
     In     2      S                    0.696     0.699    -0.003
     In     2      Px                   0.234     0.237    -0.003
     In     2      Py                   0.221     0.233    -0.012
     In     2      Pz                   0.254     0.245     0.008
     In     2      S                   -0.263    -0.260    -0.003
     In     3      Dzz                  1.000     1.000    -0.000
     In     3      Dzy                  0.998     0.998    -0.000
     In     3      Dzx                  0.998     0.998     0.000
     In     3      Dxx-yy               1.000     1.000    -0.000
     In     3      Dxy                  0.998     0.998     0.000
     In     3      S                    0.705     0.706    -0.001
     In     3      Px                   0.234     0.234    -0.000
     In     3      Py                   0.242     0.240     0.003
     In     3      Pz                   0.242     0.240     0.003
     In     3      S                   -0.252    -0.261     0.009
     In     4      Dzz                  1.000     0.999     0.000
     In     4      Dzy                  0.998     0.998     0.000
     In     4      Dzx                  0.999     0.999     0.000
     In     4      Dxx-yy               1.000     0.999     0.000
     In     4      Dxy                  0.999     0.998     0.001
     In     4      S                    0.696     0.699    -0.003
     In     4      Px                   0.234     0.237    -0.003
     In     4      Py                   0.254     0.245     0.008
     In     4      Pz                   0.221     0.233    -0.012
     In     4      S                   -0.263    -0.260    -0.003
     In     5      Dzz                  1.000     1.000    -0.000
     In     5      Dzy                  0.998     0.998     0.000
     In     5      Dzx                  0.998     0.998    -0.000
     In     5      Dxx-yy               1.000     1.000     0.000
     In     5      Dxy                  0.998     0.998    -0.000
     In     5      S                    0.717     0.715     0.002
     In     5      Px                   0.240     0.240     0.000
     In     5      Py                   0.247     0.243     0.004
     In     5      Pz                   0.244     0.241     0.003
     In     5      S                   -0.268    -0.269     0.001
     In     6      Dzz                  1.000     1.000    -0.000
     In     6      Dzy                  0.999     0.999    -0.000
     In     6      Dzx                  0.998     0.998    -0.000
     In     6      Dxx-yy               1.000     1.000     0.000
     In     6      Dxy                  0.998     0.998    -0.000
     In     6      S                    0.706     0.707    -0.001
     In     6      Px                   0.242     0.242    -0.000
     In     6      Py                   0.240     0.240     0.000
     In     6      Pz                   0.238     0.238    -0.000
     In     6      S                   -0.261    -0.260    -0.001
     In     7      Dzz                  0.999     0.999     0.000
     In     7      Dzy                  0.998     0.998     0.000
     In     7      Dzx                  0.998     0.998     0.000
     In     7      Dxx-yy               1.000     0.999     0.000
     In     7      Dxy                  0.998     0.998     0.000
     In     7      S                    0.713     0.713     0.000
     In     7      Px                   0.241     0.241    -0.000
     In     7      Py                   0.253     0.250     0.003
     In     7      Pz                   0.240     0.240     0.000
     In     7      S                   -0.266    -0.266    -0.000
     In     8      Dzz                  1.000     1.000     0.000
     In     8      Dzy                  0.999     0.999     0.000
     In     8      Dzx                  0.999     0.999     0.000
     In     8      Dxx-yy               1.000     1.000     0.000
     In     8      Dxy                  0.999     0.998     0.000
     In     8      S                    0.701     0.702    -0.000
     In     8      Px                   0.239     0.240    -0.001
     In     8      Py                   0.244     0.242     0.002
     In     8      Pz                   0.228     0.230    -0.002
     In     8      S                   -0.252    -0.255     0.003
     In     9      Dzz                  1.000     1.000    -0.000
     In     9      Dzy                  0.998     0.998     0.000
     In     9      Dzx                  0.998     0.998    -0.000
     In     9      Dxx-yy               1.000     1.000     0.000
     In     9      Dxy                  0.998     0.998    -0.000
     In     9      S                    0.717     0.715     0.002
     In     9      Px                   0.240     0.240     0.000
     In     9      Py                   0.244     0.241     0.003
     In     9      Pz                   0.247     0.243     0.004
     In     9      S                   -0.268    -0.269     0.001
     In    10      Dzz                  1.000     1.000     0.000
     In    10      Dzy                  0.999     0.999     0.000
     In    10      Dzx                  0.999     0.998     0.000
     In    10      Dxx-yy               1.000     1.000     0.000
     In    10      Dxy                  0.999     0.999     0.000
     In    10      S                    0.701     0.702    -0.000
     In    10      Px                   0.239     0.240    -0.001
     In    10      Py                   0.228     0.230    -0.002
     In    10      Pz                   0.244     0.242     0.002
     In    10      S                   -0.252    -0.255     0.003
     In    11      Dzz                  1.000     0.999     0.000
     In    11      Dzy                  0.998     0.998     0.000
     In    11      Dzx                  0.998     0.998     0.000
     In    11      Dxx-yy               0.999     0.999     0.000
     In    11      Dxy                  0.998     0.998     0.000
     In    11      S                    0.713     0.713     0.000
     In    11      Px                   0.241     0.241    -0.000
     In    11      Py                   0.240     0.240     0.000
     In    11      Pz                   0.253     0.250     0.003
     In    11      S                   -0.266    -0.266    -0.000
     In    12      Dzz                  1.000     1.000    -0.000
     In    12      Dzy                  0.999     0.999     0.000
     In    12      Dzx                  0.998     0.998    -0.000
     In    12      Dxx-yy               1.000     1.000     0.000
     In    12      Dxy                  0.998     0.998    -0.000
     In    12      S                    0.706     0.707    -0.001
     In    12      Px                   0.242     0.242    -0.000
     In    12      Py                   0.238     0.238    -0.000
     In    12      Pz                   0.240     0.240     0.000
     In    12      S                   -0.261    -0.260    -0.001
     In    13      Dzz                  1.000     1.000    -0.000
     In    13      Dzy                  0.998     0.998     0.000
     In    13      Dzx                  0.998     0.998    -0.000
     In    13      Dxx-yy               1.000     1.000    -0.000
     In    13      Dxy                  0.998     0.998     0.000
     In    13      S                    0.705     0.705    -0.000
     In    13      Px                   0.241     0.241    -0.000
     In    13      Py                   0.242     0.241     0.000
     In    13      Pz                   0.242     0.241     0.000
     In    13      S                   -0.265    -0.265    -0.001
     In    14      Dzz                  1.000     1.000    -0.000
     In    14      Dzy                  0.998     0.998     0.000
     In    14      Dzx                  0.998     0.998     0.000
     In    14      Dxx-yy               1.000     1.000    -0.000
     In    14      Dxy                  0.998     0.998    -0.000
     In    14      S                    0.707     0.707     0.000
     In    14      Px                   0.242     0.242    -0.000
     In    14      Py                   0.240     0.240    -0.000
     In    14      Pz                   0.239     0.238     0.000
     In    14      S                   -0.266    -0.266     0.000
     In    15      Dzz                  1.000     1.000    -0.000
     In    15      Dzy                  0.998     0.998    -0.000
     In    15      Dzx                  0.998     0.998     0.000
     In    15      Dxx-yy               1.000     1.000     0.000
     In    15      Dxy                  0.998     0.998    -0.000
     In    15      S                    0.707     0.707    -0.000
     In    15      Px                   0.242     0.242     0.000
     In    15      Py                   0.240     0.240    -0.000
     In    15      Pz                   0.240     0.240    -0.000
     In    15      S                   -0.266    -0.267     0.001
     In    16      Dzz                  1.000     1.000    -0.000
     In    16      Dzy                  0.998     0.998     0.000
     In    16      Dzx                  0.998     0.998    -0.000
     In    16      Dxx-yy               1.000     1.000     0.000
     In    16      Dxy                  0.998     0.998     0.000
     In    16      S                    0.707     0.707     0.000
     In    16      Px                   0.242     0.242    -0.000
     In    16      Py                   0.239     0.238     0.000
     In    16      Pz                   0.240     0.240    -0.000
     In    16      S                   -0.266    -0.266     0.000
     In    17      Dzz                  0.999     0.999     0.000
     In    17      Dzy                  0.999     0.999     0.000
     In    17      Dzx                  0.998     0.998     0.000
     In    17      Dxx-yy               0.999     0.999     0.000
     In    17      Dxy                  0.998     0.998     0.000
     In    17      S                    0.722     0.727    -0.005
     In    17      Px                   0.244     0.247    -0.003
     In    17      Py                   0.242     0.240     0.001
     In    17      Pz                   0.242     0.240     0.001
     In    17      S                   -0.274    -0.278     0.004
     In    18      Dzz                  1.000     1.000    -0.000
     In    18      Dzy                  0.998     0.998     0.000
     In    18      Dzx                  0.998     0.998    -0.000
     In    18      Dxx-yy               1.000     1.000    -0.000
     In    18      Dxy                  0.998     0.998    -0.000
     In    18      S                    0.712     0.712    -0.000
     In    18      Px                   0.238     0.238    -0.000
     In    18      Py                   0.241     0.241     0.001
     In    18      Pz                   0.243     0.242     0.001
     In    18      S                   -0.270    -0.270     0.000
     In    19      Dzz                  0.999     0.999     0.000
     In    19      Dzy                  0.998     0.998     0.000
     In    19      Dzx                  0.999     0.998     0.001
     In    19      Dxx-yy               0.999     0.999     0.000
     In    19      Dxy                  0.999     0.998     0.001
     In    19      S                    0.696     0.709    -0.013
     In    19      Px                   0.243     0.256    -0.013
     In    19      Py                   0.245     0.249    -0.004
     In    19      Pz                   0.245     0.249    -0.004
     In    19      S                   -0.246    -0.245    -0.001
     In    20      Dzz                  1.000     1.000    -0.000
     In    20      Dzy                  0.998     0.998     0.000
     In    20      Dzx                  0.998     0.998     0.000
     In    20      Dxx-yy               1.000     1.000    -0.000
     In    20      Dxy                  0.998     0.998    -0.000
     In    20      S                    0.712     0.712    -0.000
     In    20      Px                   0.238     0.238    -0.000
     In    20      Py                   0.243     0.242     0.001
     In    20      Pz                   0.241     0.241     0.001
     In    20      S                   -0.270    -0.270     0.000
     In    21      Dzz                  1.000     1.000     0.000
     In    21      Dzy                  0.999     0.999     0.000
     In    21      Dzx                  0.998     0.998     0.000
     In    21      Dxx-yy               1.000     1.000     0.000
     In    21      Dxy                  0.999     0.998     0.000
     In    21      S                    0.712     0.713    -0.000
     In    21      Px                   0.240     0.240    -0.000
     In    21      Py                   0.239     0.238     0.000
     In    21      Pz                   0.239     0.238     0.000
     In    21      S                   -0.267    -0.272     0.005
     In    22      Dzz                  1.000     1.000     0.000
     In    22      Dzy                  0.998     0.998     0.000
     In    22      Dzx                  0.998     0.998     0.000
     In    22      Dxx-yy               1.000     1.000     0.000
     In    22      Dxy                  0.998     0.998     0.000
     In    22      S                    0.709     0.708     0.000
     In    22      Px                   0.240     0.240    -0.000
     In    22      Py                   0.243     0.242     0.001
     In    22      Pz                   0.240     0.240     0.000
     In    22      S                   -0.265    -0.265    -0.001
     In    23      Dzz                  1.000     1.000     0.000
     In    23      Dzy                  0.999     0.999     0.000
     In    23      Dzx                  0.998     0.998     0.000
     In    23      Dxx-yy               1.000     1.000    -0.000
     In    23      Dxy                  0.998     0.998    -0.000
     In    23      S                    0.710     0.711    -0.000
     In    23      Px                   0.240     0.240    -0.000
     In    23      Py                   0.240     0.240     0.000
     In    23      Pz                   0.239     0.239    -0.000
     In    23      S                   -0.266    -0.267     0.001
     In    24      Dzz                  1.000     1.000    -0.000
     In    24      Dzy                  0.998     0.998     0.000
     In    24      Dzx                  0.998     0.998    -0.000
     In    24      Dxx-yy               1.000     1.000     0.000
     In    24      Dxy                  0.998     0.998     0.000
     In    24      S                    0.707     0.707     0.001
     In    24      Px                   0.237     0.238    -0.000
     In    24      Py                   0.248     0.247     0.001
     In    24      Pz                   0.240     0.240     0.000
     In    24      S                   -0.265    -0.265    -0.000
     In    25      Dzz                  1.000     1.000     0.000
     In    25      Dzy                  0.999     0.999     0.000
     In    25      Dzx                  0.999     0.998     0.000
     In    25      Dxx-yy               1.000     1.000     0.000
     In    25      Dxy                  0.998     0.998     0.000
     In    25      S                    0.712     0.713    -0.000
     In    25      Px                   0.240     0.240    -0.000
     In    25      Py                   0.239     0.238     0.000
     In    25      Pz                   0.239     0.238     0.000
     In    25      S                   -0.267    -0.272     0.005
     In    26      Dzz                  1.000     1.000     0.000
     In    26      Dzy                  0.998     0.998     0.000
     In    26      Dzx                  0.998     0.998    -0.000
     In    26      Dxx-yy               1.000     1.000    -0.000
     In    26      Dxy                  0.998     0.998     0.000
     In    26      S                    0.707     0.707     0.001
     In    26      Px                   0.237     0.238    -0.000
     In    26      Py                   0.240     0.240     0.000
     In    26      Pz                   0.248     0.247     0.001
     In    26      S                   -0.265    -0.265    -0.000
     In    27      Dzz                  1.000     1.000    -0.000
     In    27      Dzy                  0.999     0.999    -0.000
     In    27      Dzx                  0.998     0.998    -0.000
     In    27      Dxx-yy               1.000     1.000    -0.000
     In    27      Dxy                  0.998     0.998    -0.000
     In    27      S                    0.710     0.711    -0.000
     In    27      Px                   0.240     0.240    -0.000
     In    27      Py                   0.239     0.239    -0.000
     In    27      Pz                   0.240     0.240     0.000
     In    27      S                   -0.266    -0.267     0.001
     In    28      Dzz                  1.000     1.000     0.000
     In    28      Dzy                  0.998     0.998     0.000
     In    28      Dzx                  0.998     0.998    -0.000
     In    28      Dxx-yy               1.000     1.000     0.000
     In    28      Dxy                  0.998     0.998     0.000
     In    28      S                    0.709     0.708     0.000
     In    28      Px                   0.240     0.240    -0.000
     In    28      Py                   0.240     0.240     0.000
     In    28      Pz                   0.243     0.242     0.001
     In    28      S                   -0.265    -0.265    -0.001
     In    29      Dzz                  0.999     0.999     0.000
     In    29      Dzy                  0.998     0.998    -0.000
     In    29      Dzx                  0.998     0.998     0.000
     In    29      Dxx-yy               0.999     0.999    -0.000
     In    29      Dxy                  0.998     0.998     0.000
     In    29      S                    0.712     0.713    -0.002
     In    29      Px                   0.254     0.256    -0.002
     In    29      Py                   0.240     0.240     0.000
     In    29      Pz                   0.240     0.240     0.000
     In    29      S                   -0.268    -0.270     0.001
     In    30      Dzz                  1.000     1.000    -0.000
     In    30      Dzy                  0.998     0.998    -0.000
     In    30      Dzx                  0.998     0.998    -0.000
     In    30      Dxx-yy               1.000     1.000    -0.000
     In    30      Dxy                  0.998     0.998     0.000
     In    30      S                    0.707     0.707     0.000
     In    30      Px                   0.241     0.241    -0.000
     In    30      Py                   0.243     0.242     0.000
     In    30      Pz                   0.241     0.241    -0.000
     In    30      S                   -0.265    -0.266     0.000
     In    31      Dzz                  1.000     1.000    -0.000
     In    31      Dzy                  0.998     0.998     0.000
     In    31      Dzx                  0.998     0.998     0.000
     In    31      Dxx-yy               1.000     1.000    -0.000
     In    31      Dxy                  0.998     0.998     0.000
     In    31      S                    0.708     0.709    -0.000
     In    31      Px                   0.246     0.247    -0.001
     In    31      Py                   0.242     0.242    -0.000
     In    31      Pz                   0.242     0.242    -0.000
     In    31      S                   -0.265    -0.265     0.000
     In    32      Dzz                  1.000     1.000    -0.000
     In    32      Dzy                  0.998     0.998     0.000
     In    32      Dzx                  0.998     0.998     0.000
     In    32      Dxx-yy               1.000     1.000    -0.000
     In    32      Dxy                  0.998     0.998    -0.000
     In    32      S                    0.707     0.707     0.000
     In    32      Px                   0.241     0.241    -0.000
     In    32      Py                   0.241     0.241    -0.000
     In    32      Pz                   0.243     0.242     0.000
     In    32      S                   -0.265    -0.266     0.000
  ---------------------------------------------------------------
                           Total:     290.999   290.000     0.999
  ---------------------------------------------------------------

     Atomic Populations (Mulliken)
     -----------------------------
Species          Ion Spin      s       p       d       f      Total   Charge(e)   Spin(hbar/2)
==============================================================================================
  P               1   up:     0.872   1.955   0.000   0.000   2.827    -0.636        0.019
                  1   dn:     0.868   1.941   0.000   0.000   2.809
  P               2   up:     0.865   1.958   0.000   0.000   2.822    -0.511        0.134
                  2   dn:     0.862   1.827   0.000   0.000   2.689
  P               3   up:     0.872   1.955   0.000   0.000   2.827    -0.636        0.019
                  3   dn:     0.868   1.941   0.000   0.000   2.809
  P               4   up:     0.872   1.966   0.000   0.000   2.838    -0.656        0.020
                  4   dn:     0.871   1.947   0.000   0.000   2.818
  P               5   up:     0.869   1.981   0.000   0.000   2.849    -0.664        0.034
                  5   dn:     0.865   1.950   0.000   0.000   2.815
  P               6   up:     0.867   1.971   0.000   0.000   2.838    -0.676       -0.000
                  6   dn:     0.867   1.971   0.000   0.000   2.838
  P               7   up:     0.867   1.972   0.000   0.000   2.839    -0.674        0.005
                  7   dn:     0.867   1.968   0.000   0.000   2.835
  P               8   up:     0.868   1.969   0.000   0.000   2.837    -0.674        0.000
                  8   dn:     0.868   1.969   0.000   0.000   2.837
  P               9   up:     0.867   1.972   0.000   0.000   2.839    -0.674        0.005
                  9   dn:     0.867   1.968   0.000   0.000   2.835
  P              10   up:     0.867   1.971   0.000   0.000   2.838    -0.676       -0.000
                 10   dn:     0.867   1.971   0.000   0.000   2.838
  P              11   up:     0.869   1.981   0.000   0.000   2.849    -0.664        0.034
                 11   dn:     0.865   1.950   0.000   0.000   2.815
  P              12   up:     0.868   1.969   0.000   0.000   2.837    -0.674        0.000
                 12   dn:     0.868   1.969   0.000   0.000   2.837
  P              13   up:     0.867   1.970   0.000   0.000   2.837    -0.674       -0.000
                 13   dn:     0.867   1.971   0.000   0.000   2.837
  P              14   up:     0.865   1.972   0.000   0.000   2.837    -0.676       -0.002
                 14   dn:     0.865   1.974   0.000   0.000   2.839
  P              15   up:     0.867   1.970   0.000   0.000   2.837    -0.674       -0.000
                 15   dn:     0.867   1.971   0.000   0.000   2.837
  P              16   up:     0.866   1.968   0.000   0.000   2.834    -0.669       -0.002
                 16   dn:     0.867   1.969   0.000   0.000   2.836
  P              17   up:     0.868   1.977   0.000   0.000   2.845    -0.673        0.017
                 17   dn:     0.866   1.962   0.000   0.000   2.828
  P              18   up:     0.866   1.972   0.000   0.000   2.838    -0.678       -0.001
                 18   dn:     0.867   1.973   0.000   0.000   2.839
  P              19   up:     0.868   1.977   0.000   0.000   2.845    -0.673        0.017
                 19   dn:     0.866   1.962   0.000   0.000   2.828
  P              20   up:     0.867   1.970   0.000   0.000   2.837    -0.674       -0.001
                 20   dn:     0.867   1.970   0.000   0.000   2.837
  P              21   up:     0.868   1.972   0.000   0.000   2.840    -0.676        0.005
                 21   dn:     0.867   1.969   0.000   0.000   2.836
  P              22   up:     0.864   1.978   0.000   0.000   2.842    -0.679        0.006
                 22   dn:     0.864   1.973   0.000   0.000   2.837
  P              23   up:     0.866   1.972   0.000   0.000   2.838    -0.675        0.001
                 23   dn:     0.866   1.971   0.000   0.000   2.837
  P              24   up:     0.866   1.973   0.000   0.000   2.839    -0.675        0.002
                 24   dn:     0.866   1.971   0.000   0.000   2.837
  P              25   up:     0.866   1.972   0.000   0.000   2.838    -0.675        0.001
                 25   dn:     0.866   1.971   0.000   0.000   2.837
  P              26   up:     0.864   1.978   0.000   0.000   2.842    -0.679        0.006
                 26   dn:     0.864   1.973   0.000   0.000   2.837
  P              27   up:     0.868   1.972   0.000   0.000   2.840    -0.676        0.005
                 27   dn:     0.867   1.969   0.000   0.000   2.836
  P              28   up:     0.866   1.973   0.000   0.000   2.839    -0.675        0.002
                 28   dn:     0.866   1.971   0.000   0.000   2.837
  P              29   up:     0.867   1.970   0.000   0.000   2.837    -0.674        0.000
                 29   dn:     0.867   1.970   0.000   0.000   2.837
  P              30   up:     0.867   1.970   0.000   0.000   2.838    -0.675       -0.000
                 30   dn:     0.867   1.970   0.000   0.000   2.838
  P              31   up:     0.867   1.970   0.000   0.000   2.837    -0.674        0.000
                 31   dn:     0.867   1.970   0.000   0.000   2.837
  P              32   up:     0.866   1.971   0.000   0.000   2.838    -0.676       -0.000
                 32   dn:     0.866   1.972   0.000   0.000   2.838
  P              33   up:     0.925   2.094   0.000   0.000   3.019    -0.360        0.678
                 33   dn:     0.910   1.431   0.000   0.000   2.341
  In              1   up:     0.448   0.719   4.995   0.000   6.162     0.674       -0.001
                  1   dn:     0.450   0.719   4.995   0.000   6.164
  In              2   up:     0.433   0.708   4.995   0.000   6.136     0.716       -0.011
                  2   dn:     0.439   0.715   4.994   0.000   6.148
  In              3   up:     0.453   0.719   4.995   0.000   6.166     0.680        0.012
                  3   dn:     0.445   0.714   4.995   0.000   6.154
  In              4   up:     0.433   0.708   4.995   0.000   6.136     0.716       -0.011
                  4   dn:     0.439   0.715   4.994   0.000   6.147
  In              5   up:     0.449   0.731   4.994   0.000   6.175     0.661        0.010
                  5   dn:     0.446   0.724   4.994   0.000   6.165
  In              6   up:     0.446   0.719   4.995   0.000   6.160     0.679       -0.002
                  6   dn:     0.447   0.720   4.995   0.000   6.162
  In              7   up:     0.447   0.734   4.994   0.000   6.175     0.654        0.003
                  7   dn:     0.447   0.731   4.994   0.000   6.172
  In              8   up:     0.449   0.710   4.995   0.000   6.154     0.694        0.001
                  8   dn:     0.447   0.711   4.995   0.000   6.153
  In              9   up:     0.449   0.731   4.994   0.000   6.175     0.661        0.010
                  9   dn:     0.446   0.724   4.994   0.000   6.165
  In             10   up:     0.449   0.710   4.995   0.000   6.154     0.693        0.001
                 10   dn:     0.447   0.711   4.995   0.000   6.153
  In             11   up:     0.447   0.734   4.994   0.000   6.175     0.654        0.003
                 11   dn:     0.447   0.731   4.994   0.000   6.172
  In             12   up:     0.446   0.719   4.995   0.000   6.160     0.679       -0.002
                 12   dn:     0.447   0.720   4.995   0.000   6.162
  In             13   up:     0.440   0.724   4.995   0.000   6.158     0.682       -0.001
                 13   dn:     0.441   0.724   4.995   0.000   6.159
  In             14   up:     0.442   0.720   4.995   0.000   6.157     0.687        0.000
                 14   dn:     0.441   0.721   4.995   0.000   6.156
  In             15   up:     0.441   0.723   4.995   0.000   6.159     0.683        0.000
                 15   dn:     0.441   0.723   4.995   0.000   6.158
  In             16   up:     0.442   0.720   4.995   0.000   6.157     0.687        0.000
                 16   dn:     0.441   0.721   4.995   0.000   6.156
  In             17   up:     0.448   0.728   4.994   0.000   6.170     0.660       -0.001
                 17   dn:     0.449   0.728   4.994   0.000   6.171
  In             18   up:     0.442   0.723   4.995   0.000   6.159     0.683        0.001
                 18   dn:     0.442   0.721   4.995   0.000   6.158
  In             19   up:     0.450   0.733   4.993   0.000   6.176     0.615       -0.034
                 19   dn:     0.464   0.753   4.992   0.000   6.210
  In             20   up:     0.442   0.723   4.995   0.000   6.159     0.683        0.001
                 20   dn:     0.442   0.721   4.995   0.000   6.158
  In             21   up:     0.446   0.718   4.995   0.000   6.158     0.689        0.005
                 21   dn:     0.441   0.717   4.995   0.000   6.153
  In             22   up:     0.443   0.723   4.994   0.000   6.160     0.680        0.000
                 22   dn:     0.444   0.722   4.994   0.000   6.160
  In             23   up:     0.444   0.719   4.995   0.000   6.158     0.684        0.000
                 23   dn:     0.444   0.719   4.995   0.000   6.158
  In             24   up:     0.442   0.726   4.994   0.000   6.163     0.677        0.002
                 24   dn:     0.442   0.724   4.994   0.000   6.160
  In             25   up:     0.446   0.718   4.995   0.000   6.158     0.689        0.005
                 25   dn:     0.441   0.717   4.995   0.000   6.153
  In             26   up:     0.442   0.726   4.994   0.000   6.163     0.677        0.002
                 26   dn:     0.442   0.724   4.994   0.000   6.160
  In             27   up:     0.444   0.719   4.995   0.000   6.158     0.684        0.000
                 27   dn:     0.444   0.719   4.995   0.000   6.158
  In             28   up:     0.443   0.723   4.994   0.000   6.160     0.680        0.000
                 28   dn:     0.444   0.722   4.994   0.000   6.160
  In             29   up:     0.443   0.735   4.994   0.000   6.172     0.655       -0.002
                 29   dn:     0.444   0.737   4.994   0.000   6.174
  In             30   up:     0.442   0.725   4.994   0.000   6.161     0.680        0.001
                 30   dn:     0.441   0.724   4.994   0.000   6.160
  In             31   up:     0.443   0.730   4.994   0.000   6.167     0.665       -0.001
                 31   dn:     0.444   0.730   4.994   0.000   6.168
  In             32   up:     0.442   0.725   4.994   0.000   6.161     0.680        0.001
                 32   dn:     0.441   0.724   4.994   0.000   6.160
==============================================================================================

                 Bond                   Population        Spin       Length (A)
================================================================================
              P 2  -- P 33                   0.38        -0.10          2.13940
              P 33 -- In 19                  0.91        -0.02          2.41908
              P 4  -- In 29                  0.72         0.00          2.47591
              P 17 -- In 19                  0.66        -0.00          2.51190
              P 19 -- In 19                  0.66        -0.00          2.51190
              P 2  -- In 17                  0.67        -0.00          2.51861
              P 16 -- In 31                  0.67         0.00          2.52358
              P 5  -- In 7                   0.65        -0.00          2.52366
              P 11 -- In 11                  0.65        -0.00          2.52366
              P 26 -- In 26                  0.68        -0.00          2.52370
              P 22 -- In 24                  0.68        -0.00          2.52370
              P 14 -- In 31                  0.66         0.00          2.52497
              P 11 -- In 2                   0.66        -0.02          2.52597
              P 5  -- In 4                   0.66        -0.02          2.52597
              P 14 -- In 29                  0.63         0.00          2.52656
              P 26 -- In 11                  0.65        -0.00          2.52916
              P 22 -- In 7                   0.65        -0.00          2.52916
              P 21 -- In 17                  0.65        -0.00          2.53819
              P 27 -- In 17                  0.65        -0.00          2.53819
              P 3  -- In 9                   0.64        -0.00          2.53958
              P 1  -- In 5                   0.64        -0.00          2.53958
              P 19 -- In 26                  0.63        -0.00          2.53992
              P 17 -- In 24                  0.63        -0.00          2.53992
              P 28 -- In 18                  0.67         0.00          2.53997
              P 24 -- In 20                  0.67         0.00          2.53997
              P 8  -- In 4                   0.68         0.00          2.54011
              P 12 -- In 2                   0.68         0.00          2.54011
              P 26 -- In 9                   0.66        -0.00          2.54156
              P 22 -- In 5                   0.66        -0.00          2.54156
              P 23 -- In 30                  0.66        -0.00          2.54314
              P 25 -- In 32                  0.66        -0.00          2.54314
              P 23 -- In 29                  0.65        -0.00          2.54336
              P 25 -- In 29                  0.65        -0.00          2.54336
              P 6  -- In 21                  0.66         0.00          2.54340
              P 10 -- In 25                  0.66         0.00          2.54340
              P 9  -- In 11                  0.65        -0.00          2.54362
              P 7  -- In 7                   0.65        -0.00          2.54363
              P 26 -- In 28                  0.67         0.00          2.54369
              P 22 -- In 22                  0.67         0.00          2.54369
              P 24 -- In 7                   0.65        -0.00          2.54510
              P 28 -- In 11                  0.65        -0.00          2.54510
              P 18 -- In 20                  0.66         0.00          2.54516
              P 18 -- In 18                  0.66         0.00          2.54516
              P 15 -- In 6                   0.66         0.00          2.54560
              P 13 -- In 12                  0.66         0.00          2.54560
              P 3  -- In 3                   0.67        -0.00          2.54579
              P 1  -- In 3                   0.67        -0.00          2.54579
              P 32 -- In 22                  0.67         0.00          2.54613
              P 32 -- In 28                  0.67         0.00          2.54613
              P 32 -- In 1                   0.66         0.00          2.54687
              P 28 -- In 32                  0.67         0.00          2.54702
              P 24 -- In 30                  0.67         0.00          2.54702
              P 20 -- In 26                  0.67         0.00          2.54723
              P 20 -- In 24                  0.67         0.00          2.54723
              P 7  -- In 13                  0.68        -0.00          2.54806
              P 9  -- In 13                  0.68        -0.00          2.54806
              P 31 -- In 22                  0.67        -0.00          2.54808
              P 29 -- In 28                  0.67        -0.00          2.54808
              P 21 -- In 20                  0.65         0.00          2.54822
              P 27 -- In 18                  0.65         0.00          2.54822
              P 23 -- In 24                  0.67         0.00          2.54848
              P 25 -- In 26                  0.67         0.00          2.54848
              P 14 -- In 16                  0.68         0.00          2.54856
              P 14 -- In 14                  0.68         0.00          2.54856
              P 31 -- In 32                  0.67         0.00          2.54923
              P 29 -- In 30                  0.67         0.00          2.54923
              P 13 -- In 14                  0.67         0.00          2.54982
              P 15 -- In 16                  0.67         0.00          2.54982
              P 18 -- In 1                   0.65         0.00          2.55009
              P 15 -- In 15                  0.67        -0.00          2.55012
              P 13 -- In 15                  0.67        -0.00          2.55012
              P 20 -- In 13                  0.66         0.00          2.55111
              P 5  -- In 1                   0.67        -0.00          2.55112
              P 11 -- In 1                   0.67        -0.00          2.55112
              P 30 -- In 15                  0.65         0.00          2.55126
              P 8  -- In 23                  0.66         0.00          2.55135
              P 12 -- In 27                  0.66         0.00          2.55135
              P 10 -- In 27                  0.66         0.00          2.55156
              P 6  -- In 23                  0.66         0.00          2.55156
              P 32 -- In 15                  0.66        -0.00          2.55225
              P 3  -- In 4                   0.64         0.00          2.55243
              P 1  -- In 2                   0.64         0.00          2.55243
              P 30 -- In 32                  0.66         0.00          2.55258
              P 30 -- In 30                  0.66         0.00          2.55259
              P 28 -- In 5                   0.65        -0.00          2.55294
              P 24 -- In 9                   0.65        -0.00          2.55294
              P 16 -- In 12                  0.67         0.00          2.55340
              P 16 -- In 6                   0.67         0.00          2.55340
              P 27 -- In 28                  0.64        -0.00          2.55356
              P 21 -- In 22                  0.64        -0.00          2.55356
              P 10 -- In 10                  0.65         0.00          2.55370
              P 6  -- In 8                   0.65         0.00          2.55370
              P 21 -- In 23                  0.67         0.00          2.55383
              P 27 -- In 27                  0.67         0.00          2.55383
              P 7  -- In 14                  0.66         0.00          2.55410
              P 9  -- In 16                  0.66         0.00          2.55410
              P 30 -- In 13                  0.66         0.00          2.55543
              P 18 -- In 3                   0.65         0.00          2.55628
              P 31 -- In 31                  0.65         0.00          2.55683
              P 29 -- In 31                  0.65         0.00          2.55683
              P 12 -- In 21                  0.66         0.00          2.55684
              P 8  -- In 25                  0.66         0.00          2.55684
              P 25 -- In 27                  0.67         0.00          2.55731
              P 23 -- In 23                  0.67         0.00          2.55731
              P 15 -- In 5                   0.65        -0.00          2.55748
              P 13 -- In 9                   0.65        -0.00          2.55748
              P 2  -- In 4                   0.55         0.02          2.55862
              P 2  -- In 2                   0.55         0.02          2.55862
              P 9  -- In 10                  0.64        -0.01          2.55921
              P 7  -- In 8                   0.64        -0.01          2.55921
              P 17 -- In 18                  0.64        -0.00          2.56034
              P 19 -- In 20                  0.64        -0.00          2.56034
              P 11 -- In 12                  0.65         0.00          2.56062
              P 5  -- In 6                   0.65         0.00          2.56062
              P 17 -- In 21                  0.67         0.00          2.56236
              P 19 -- In 25                  0.67         0.00          2.56236
              P 12 -- In 16                  0.64         0.00          2.56271
              P 8  -- In 14                  0.64         0.00          2.56271
              P 10 -- In 12                  0.64         0.00          2.56291
              P 6  -- In 6                   0.64         0.00          2.56291
              P 29 -- In 25                  0.64        -0.00          2.56451
              P 31 -- In 21                  0.64        -0.00          2.56451
              P 4  -- In 8                   0.66         0.00          2.56465
              P 4  -- In 10                  0.66         0.00          2.56465
              P 20 -- In 3                   0.66         0.00          2.56625
              P 16 -- In 17                  0.59         0.00          2.56849
              P 3  -- In 10                  0.63         0.00          2.57804
              P 1  -- In 8                   0.63         0.00          2.57804
              P 4  -- In 19                  0.33         0.01          2.73544
              P 4  -- P 33                  -0.26        -0.02          2.90879
================================================================================

 Hirshfeld supercell size:           2           2           2
Standard grid dimensions: 240 240 240
Fine grid dimensions:     240 240 240


     Hirshfeld Analysis
     ------------------
Species   Ion     Hirshfeld Charge (e)  Spin (hbar/2)
===================================================
  P        1                -0.23        0.02
  P        2                -0.18        0.14
  P        3                -0.23        0.02
  P        4                -0.25        0.02
  P        5                -0.24        0.02
  P        6                -0.24        0.00
  P        7                -0.24        0.00
  P        8                -0.23        0.00
  P        9                -0.24        0.00
  P       10                -0.24        0.00
  P       11                -0.24        0.02
  P       12                -0.23        0.00
  P       13                -0.24        0.00
  P       14                -0.24       -0.00
  P       15                -0.24        0.00
  P       16                -0.24       -0.00
  P       17                -0.24        0.01
  P       18                -0.24        0.00
  P       19                -0.24        0.01
  P       20                -0.24        0.00
  P       21                -0.23        0.00
  P       22                -0.24        0.01
  P       23                -0.24        0.00
  P       24                -0.24        0.00
  P       25                -0.24        0.00
  P       26                -0.24        0.01
  P       27                -0.23        0.00
  P       28                -0.24        0.00
  P       29                -0.24        0.00
  P       30                -0.24        0.00
  P       31                -0.24        0.00
  P       32                -0.24        0.00
  P       33                -0.13        0.50
  In       1                 0.24        0.00
  In       2                 0.25        0.03
  In       3                 0.25        0.00
  In       4                 0.25        0.03
  In       5                 0.23        0.01
  In       6                 0.24        0.00
  In       7                 0.23        0.01
  In       8                 0.25        0.01
  In       9                 0.23        0.01
  In      10                 0.25        0.01
  In      11                 0.23        0.01
  In      12                 0.24        0.00
  In      13                 0.24        0.00
  In      14                 0.24        0.00
  In      15                 0.24        0.00
  In      16                 0.24        0.00
  In      17                 0.24        0.01
  In      18                 0.24        0.00
  In      19                 0.21        0.03
  In      20                 0.24        0.00
  In      21                 0.25        0.00
  In      22                 0.24        0.00
  In      23                 0.24        0.00
  In      24                 0.23        0.00
  In      25                 0.25        0.00
  In      26                 0.23        0.00
  In      27                 0.24        0.00
  In      28                 0.24        0.00
  In      29                 0.22        0.00
  In      30                 0.24        0.00
  In      31                 0.23       -0.00
  In      32                 0.24        0.00
===================================================

 
 A BibTeX formatted list of references used in this run has been written to 
 P_Interstitial_Migration_Dumbbell#_Dumbbell+_Singlepoints_5.bib
 
Initialisation time =     35.28 s
Calculation time    =   7853.49 s
Finalisation time   =    166.46 s
Total time          =   8055.23 s
Peak Memory Use     = 9721820 kB
 
Overall parallel efficiency rating: Terrible (34%)
 
Data was distributed by:-
G-vector (3-way); efficiency rating: Poor (37%)
k-point (36-way); efficiency rating: Very good (82%)
