 +-------------------------------------------------+
 |                                                 |
 |      CCC   AA    SSS  TTTTT  EEEEE  PPPP        |
 |     C     A  A  S       T    E      P   P       |
 |     C     AAAA   SS     T    EEE    PPPP        |
 |     C     A  A     S    T    E      P           |
 |      CCC  A  A  SSS     T    EEEEE  P           |
 |                                                 |
 +-------------------------------------------------+
 |                                                 |
 | Welcome to Academic Release CASTEP version 24.1 |
 | Ab Initio Total Energy Program                  |
 |                                                 |
 | Authors:                                        |
 | M. Segall, M. Probert, C. Pickard, P. Hasnip,   |
 | S. Clark, K. Refson, J. R. Yates,               |
 | A. Bartok-Partay, M. Payne                      |
 |                                                 |
 | Contributors:                                   |
 | P. Lindan, P. Haynes, J. White, V. Milman,      |
 | N. Govind, M. Gibson, P. Tulip, V. Cocula,      |
 | B. Montanari, D. Quigley, M. Glover,            |
 | L. Bernasconi, A. Perlov, M. Plummer,           |
 | E. McNellis, J. Meyer, J. Gale, D. Jochym       |
 | J. Aarons, B. Walker, R. Gillen, D. Jones       |
 | T. Green, I. J. Bush, C. J. Armstrong,          |
 | E. J. Higgins, E. L. Brown, M. S. McFly,        |
 | J. Wilkins, B-C. Shih, P. J. P. Byrne,          |
 | R. J. Maurer, J. C. Womack, J. Dziedzic,        |
 | L. LeBlanc, T. K. Stenczel, J. Kermode,         |
 | S. Sturniolo, B. Shi, B. Durham, M. Evans,      |
 | M. J. Smith, A. Tamerus, Z. Hawkhead,           |
 | V. Ravindran, T. Hollins, S. A. Joyce,          |
 | R. T. Strong, A. M. Reilly, S. J. Donaldson     |
 |                                                 |
 | Copyright (c) 2000 - 2023                       |
 |                                                 |
 |     Distributed under license from Cambridge    |
 |     Enterprise for academic use only.           |
 |                                                 |
 | Please cite                                     |
 |                                                 |
 |     "First principles methods using CASTEP"     |
 |                                                 |
 |         Zeitschrift fuer Kristallographie       |
 |           220(5-6) pp. 567-570 (2005)           |
 |                                                 |
 | S. J. Clark, M. D. Segall, C. J. Pickard,       |
 | P. J. Hasnip, M. J. Probert, K. Refson,         |
 | M. C. Payne                                     |
 |                                                 |
 |       in all publications arising from          |
 |              your use of CASTEP                 |
 |                                                 |
 +-------------------------------------------------+
 |                                                 |
 |              http://www.castep.org              |
 |                                                 |
 +-------------------------------------------------+



 Compiled for  GNU 11.2.0 on 04-04-2024 18:39:17
 from code version 6355fd106 Castep241_branch Thu Mar 7 17:56:19 2024 +0000
 Compiler: GNU Fortran 11.2.0; Optimisation: FAST
 Comms   : MPI VERSION : CRAY MPICH version 8.1.23.14 (ANL base 3.4a2)
 MATHLIBS: default (LAPACK version 3.10.1)
 FFT Lib : fftw3 version commercial-fftw-3.3.10-sse2-avx-avx2-avx2_128
 Fundamental constants values: CODATA 2018

 Run started: Sun, 19 Jan 2025 02:59:44 +0000

 Atomic calculation performed for P: 1s2 2s2 2p6 3s2 3p3

 Converged in 47 iterations to an ae energy of -9309.074 eV

   ============================================================                
   | Pseudopotential Report - Date of generation 19-01-2025   |                
   ------------------------------------------------------------                
   | Element: P Ionic charge:  5.00 Level of theory: RSCAN    |                
   | Atomic Solver: Koelling-Harmon                           |                
   |                                                          |                
   |               Reference Electronic Structure             |                
   |         Orbital         Occupation         Energy        |                
   |            3s              2.000           -0.535        |                
   |            3p              3.000           -0.209        |                
   |                                                          |                
   |                 Pseudopotential Definition               |                
   |        Beta     l      e      Rc     scheme   norm       |                
   |          1      0   -0.535   1.807     qc      0         |                
   |          2      0    0.250   1.807     qc      0         |                
   |          3      1   -0.209   1.807     qc      0         |                
   |          4      1    0.250   1.807     qc      0         |                
   |          5      2    0.000   1.807     qc      0         |                
   |          6      2    0.250   1.807     qc      0         |                
   |         loc     3    0.000   1.807     pn      0         |                
   |                                                          |                
   | Augmentation charge Rinner = 1.263                       |                
   | Partial core correction Rc = 1.263                       |                
   ------------------------------------------------------------                
   | "3|1.8|4|4|5|30:31:32"                                   |                
   ------------------------------------------------------------                
   |      Author: Chris J. Pickard, Cambridge University      |                
   ============================================================                
 Warning: otfg_output_psp cannot write out meta-GGA pseudopotentials presently.

 Atomic calculation performed for In:
 1s2 2s2 2p6 3s2 3p6 3d10 4s2 4p6 4d10 5s2 5p1

 Converged in 84 iterations to an ae energy of -160093.328 eV

   ============================================================                
   | Pseudopotential Report - Date of generation 19-01-2025   |                
   ------------------------------------------------------------                
   | Element: In Ionic charge: 13.00 Level of theory: RSCAN   |                
   | Atomic Solver: Koelling-Harmon                           |                
   |                                                          |                
   |               Reference Electronic Structure             |                
   |         Orbital         Occupation         Energy        |                
   |            4d             10.000           -0.711        |                
   |            5s              2.000           -0.313        |                
   |            5p              1.000           -0.095        |                
   |                                                          |                
   |                 Pseudopotential Definition               |                
   |        Beta     l      e      Rc     scheme   norm       |                
   |          1      0   -0.313   2.501     qc      0         |                
   |          2      0    0.250   2.501     qc      0         |                
   |          3      1   -0.095   2.501     qc      0         |                
   |          4      1    0.250   2.501     qc      0         |                
   |          5      2   -0.711   2.207     qc      0         |                
   |          6      2    0.250   2.207     qc      0         |                
   |         loc     3    0.000   2.501     pn      0         |                
   |                                                          |                
   | Augmentation charge Rinner = 1.504                       |                
   | Partial core correction Rc = 1.504                       |                
   ------------------------------------------------------------                
   | "3|2.5|2.5|1.5|7|8|9|50:51:42U2.2U2.2"                   |                
   ------------------------------------------------------------                
   |      Author: Chris J. Pickard, Cambridge University      |                
   ============================================================                
 Warning: otfg_output_psp cannot write out meta-GGA pseudopotentials presently.

 Pseudo atomic calculation performed for P 3s2 3p3

 Converged in 23 iterations to a total energy of -208.0292 eV

 Pseudo atomic calculation performed for In 4d10 5s2 5p1

 Converged in 42 iterations to a total energy of -1747.4501 eV
 Calculation parallelised over 84 processes.
 Data is distributed by k-point(84-way)
 Each process may use up to 16 threads.

 ************************************ Title ************************************
 

 ***************************** General Parameters ******************************
  
 output verbosity                               : normal  (1)
 write checkpoint data to                       : StackingFaultStructs_001_110_8.check
 type of calculation                            : geometry optimization
 stress calculation                             : off
 density difference calculation                 : off
 electron localisation func (ELF) calculation   : off
 Hirshfeld analysis                             : on
 polarisation (Berry phase) analysis            : off
 molecular orbital projected DOS                : off
 deltaSCF calculation                           : off
 unlimited duration calculation
 timing information                             : on
 memory usage estimate                          : on
 write extra output files                       : on
 write final potential to formatted file        : off
 write final density to formatted file          : off
 write BibTeX reference list                    : on
 write OTFG pseudopotential files               : on
 write electrostatic potential file             : on
 write bands file                               : on
 checkpoint writing                             : off
  
 output         length unit                     : A
 output           mass unit                     : amu
 output           time unit                     : ps
 output         charge unit                     : e
 output           spin unit                     : hbar/2
 output         energy unit                     : eV
 output          force unit                     : eV/A
 output       velocity unit                     : A/ps
 output       pressure unit                     : GPa
 output     inv_length unit                     : 1/A
 output      frequency unit                     : cm-1
 output force constant unit                     : eV/A**2
 output         volume unit                     : A**3
 output   IR intensity unit                     : (D/A)**2/amu
 output         dipole unit                     : D
 output         efield unit                     : eV/A/e
 output        entropy unit                     : J/mol/K
 output    efield chi2 unit                     : pm/V
  
 wavefunctions paging                           : none
 random number generator seed                   :   25944949
 data distribution                              : optimal for this architecture
 optimization strategy                          : balance speed and memory

 *********************** Exchange-Correlation Parameters ***********************
  
 using functional                               : RSCAN
 relativistic treatment                         : Koelling-Harmon
 DFT+D: Semi-empirical dispersion correction    : off

 ************************* Pseudopotential Parameters **************************
  
 pseudopotential representation                 : reciprocal space
 <beta|phi> representation                      : reciprocal space
 spin-orbit coupling                            : off

 **************************** Basis Set Parameters *****************************
  
 plane wave basis set cut-off                   :   900.0000   eV
 size of standard grid                          :     2.0000
 size of   fine   gmax                          :    30.7390   1/A
 finite basis set correction                    : none

 **************************** Electronic Parameters ****************************
  
 number of  electrons                           :  216.0    
 net charge of system                           :  0.000    
 treating system as non-spin-polarized
 number of bands                                :        130

 ********************* Electronic Minimization Parameters **********************
  
 Method: Treating system as metallic with density mixing treatment of electrons,
         and number of  SD  steps               :          1
         and number of  CG  steps               :          4
  
 total energy / atom convergence tol.           : 0.1000E-07   eV
 eigen-energy convergence tolerance             : 0.2222E-08   eV
 max force / atom convergence tol.              : ignored
 convergence tolerance window                   :          3   cycles
 max. number of SCF cycles                      :         50
 number of fixed-spin iterations                :         10
 smearing scheme                                : Gaussian
 smearing width                                 : 0.2000       eV
 Fermi energy convergence tolerance             : 0.2721E-13   eV
 periodic dipole correction                     : NONE

 ************************** Density Mixing Parameters **************************
  
 density-mixing scheme                          : Pulay
 max. length of mixing history                  :         15
 charge density mixing amplitude                : 0.5000    
 cut-off energy for mixing                      :  900.0       eV

 *********************** Population Analysis Parameters ************************
  
 Population analysis with cutoff                :  3.000       A
 Population analysis output                     : summary and pdos components

 ********************** Geometry Optimization Parameters ***********************
  
 optimization method                            : LBFGS
 max. no. of LBFGS updates                      : unbounded
 preconditioned LBFGS is activated
 preconditioner type                            : EXP
     stabilization constant                     :     0.1000
     parameter A                                :     3.0000
     nearest neighbor distance                  : automatic
     cut-off distance                           : automatic
     parameter mu                               : automatic
 variable cell method                           : fixed basis quality
 max. number of steps                           :         30
 estimated bulk modulus                         :  500.0       GPa
 estimated <frequency>                          :  1668.       cm-1
 geom line minimiser                            : on
 with line minimiser tolerance                  :     0.4000
 total energy convergence tolerance             : 0.2000E-04   eV/atom
        max ionic |force| tolerance             : 0.1000E-02   eV/A
 max ionic |displacement| tolerance             : 0.1000E-02   A
   max |stress component| tolerance             : 0.1000       GPa
 convergence tolerance window                   :          2   steps
 backup results every                           :          5   steps
 write geom trajectory file                     : on

 *******************************************************************************
  

                           -------------------------------
                                      Unit Cell
                           -------------------------------
        Real Lattice(A)                      Reciprocal Lattice(1/A)
     4.1728310     0.0000000     0.0000000        1.505736826   0.000000000   0.000000000
     0.0000000     4.1728310     0.0000000        0.000000000   1.505736826  -0.177452803
     0.0000000     4.1728310    35.4076420        0.000000000   0.000000000   0.177452803

                       Lattice parameters(A)       Cell Angles
                    a =      4.172831          alpha =   83.278630
                    b =      4.172831          beta  =   90.000000
                    c =     35.652681          gamma =   90.000000

                       Current cell volume =           616.536223       A**3
                                   density =             2.837629   AMU/A**3
                                           =             4.711994     g/cm^3

                           -------------------------------
                                     Cell Contents
                           -------------------------------
                         Total number of ions in cell =   24
                      Total number of species in cell =    2
                        Max number of any one species =   12

            xxxxxxxxxxxxxxxxxxxxxxxxxxxxxxxxxxxxxxxxxxxxxxxxxxxxxxxxxxxx
            x  Element    Atom        Fractional coordinates of atoms  x
            x            Number           u          v          w      x
            x----------------------------------------------------------x
            x  P            1         0.500000  -0.375000   0.375000   x 
            x  P            2         0.000000   0.041667   0.458333   x 
            x  P            3         0.000000   0.208333   0.291667   x 
            x  P            4         0.500000  -0.541667   0.541667   x 
            x  P            5         0.000000  -0.125000   0.625000   x 
            x  P            6         0.500000  -0.208333   0.208333   x 
            x  P            7         0.500000  -0.708333   0.708333   x 
            x  P            8         0.000000  -0.291667   0.791667   x 
            x  P            9         0.000000   0.375000   0.125000   x 
            x  P           10         0.500000  -0.875000   0.875000   x 
            x  P           11         0.000000  -0.458333   0.958333   x 
            x  P           12         0.500000  -0.041667   0.041667   x 
            x  In           1         0.500000   0.083333   0.416667   x 
            x  In           2         0.500000  -0.250000   0.750000   x 
            x  In           3         0.000000  -0.666667   0.666667   x 
            x  In           4         0.500000  -0.083333   0.583333   x 
            x  In           5         0.000000  -0.500000   0.500000   x 
            x  In           6         0.000000  -0.833333   0.833333   x 
            x  In           7         0.000000  -0.333333   0.333333   x 
            x  In           8         0.500000  -0.416667   0.916667   x 
            x  In           9         0.000000  -0.166667   0.166667   x 
            x  In          10         0.500000   0.416667   0.083333   x 
            x  In          11         0.000000   0.000000   0.000000   x 
            x  In          12         0.500000   0.250000   0.250000   x 
            xxxxxxxxxxxxxxxxxxxxxxxxxxxxxxxxxxxxxxxxxxxxxxxxxxxxxxxxxxxx


                         No user defined ionic velocities

                           -------------------------------
                                   Details of Species
                           -------------------------------

                               Mass of species in AMU
                                    P   30.9737600
                                    In  114.8180000

                          Electric Quadrupole Moment (Barn)
                                    P    1.0000000 No Isotope Defined
                                    In    0.7700000 Isotope115

                          Files used for pseudopotentials:
                                    P 3|1.8|4|4|5|30:31:32
                                    In 3|2.5|2.5|1.5|7|8|9|50:51:42U2.2U2.2

                           -------------------------------
                              k-Points For BZ Sampling
                           -------------------------------
                       MP grid size for SCF calculation is  8 10  2
                            with an offset of   0.062  0.050  0.250
                       Number of kpoints used =            84

                           -------------------------------
                               Symmetry and Constraints
                           -------------------------------

                      Cell is a supercell containing 12 primitive cells
                      Maximum deviation from symmetry =  0.00000         ANG

                      Number of symmetry operations   =           1
                      Number of ionic constraints     =          48
                      Point group of crystal =     1: C1, 1, 1
                      Space group of crystal =   216: F-43m, F -4 2 3

             Set iprint > 1 for details on symmetry rotations/translations

                         Centre of mass is NOT constrained
             Set iprint > 1 for details of linear ionic constraints

                         Number of cell constraints= 6
                         Cell constraints are:  0 0 0 0 0 0

                         External pressure/stress (GPa)
                          0.00000   0.00000   0.00000
                                    0.00000   0.00000
                                              0.00000
 
+---------------- MEMORY AND SCRATCH DISK ESTIMATES PER PROCESS --------------+
|                                                     Memory          Disk    |
| Baseline code, static data and system overhead      386.0 MB         0.0 MB |
| BLAS internal memory storage                          0.0 MB         0.0 MB |
| Model and support data                             4595.0 MB         0.0 MB |
| Electronic energy minimisation requirements         525.7 MB         0.0 MB |
| Force calculation requirements                      105.7 MB         0.0 MB |
|                                               ----------------------------- |
| Approx. total storage required per process         5506.7 MB         0.0 MB |
|                                                                             |
| Requirements will fluctuate during execution and may exceed these estimates |
+-----------------------------------------------------------------------------+
Calculating approximate eigenstates for fixed initial Hamiltonian
Cut-off for approx. calculation is   89.988 eV
Improving approx. states at cut-off of  450.000 eV
Resetting cut-off to  900.000 eV
Calculating total energy with cut-off of  900.000 eV.
------------------------------------------------------------------------ <-- SCF
SCF loop      Energy           Fermi           Energy gain       Timer   <-- SCF
                               energy          per atom          (sec)   <-- SCF
------------------------------------------------------------------------ <-- SCF
Initial  -2.36430335E+004  0.00000000E+000                        79.17  <-- SCF
      1  -2.35521941E+004  2.57843757E+000  -3.78497369E+000     121.42  <-- SCF
      2  -2.35522704E+004  2.57763540E+000   3.17700472E-003     154.39  <-- SCF
      3  -2.35771884E+004  2.88399434E+000   1.03824973E+000     189.72  <-- SCF
      4  -2.35815943E+004  2.96118900E+000   1.83582581E-001     236.49  <-- SCF
      5  -2.35794354E+004  3.31695206E+000  -8.99564396E-002     272.96  <-- SCF
      6  -2.35792704E+004  3.37164818E+000  -6.87437598E-003     308.22  <-- SCF
      7  -2.35792627E+004  3.41872389E+000  -3.21203914E-004     344.05  <-- SCF
      8  -2.35797491E+004  3.45986401E+000   2.02673926E-002     381.37  <-- SCF
      9  -2.35798050E+004  3.40104183E+000   2.33030174E-003     418.17  <-- SCF
     10  -2.35798050E+004  3.42291461E+000  -4.32327309E-007     455.61  <-- SCF
     11  -2.35798045E+004  3.42594788E+000  -2.15343210E-005     495.40  <-- SCF
     12  -2.35798050E+004  3.42367120E+000   2.18847496E-005     532.02  <-- SCF
     13  -2.35798051E+004  3.42336922E+000   1.71953495E-006     565.56  <-- SCF
     14  -2.35798051E+004  3.42316103E+000   1.98546768E-007     598.28  <-- SCF
     15  -2.35798051E+004  3.42320665E+000  -1.05104260E-009     625.21  <-- SCF
     16  -2.35798051E+004  3.42321320E+000  -1.62167855E-009     653.12  <-- SCF
------------------------------------------------------------------------ <-- SCF
 
Final energy, E             =  -23579.80506777     eV
Final free energy (E-TS)    =  -23579.80507407     eV
(energies not corrected for finite basis set)
 
NB est. 0K energy (E-0.5TS)      =  -23579.80507092     eV
 
 
+---------------- MEMORY AND SCRATCH DISK ESTIMATES PER PROCESS --------------+
|                                                     Memory          Disk    |
| Model and support data                             2665.0 MB         0.0 MB |
| Electronic energy minimisation requirements         525.7 MB         0.0 MB |
| Geometry minimisation requirements                  613.3 MB         0.0 MB |
|                                               ----------------------------- |
| Approx. total storage required per process         3804.0 MB         0.0 MB |
|                                                                             |
| Requirements will fluctuate during execution and may exceed these estimates |
+-----------------------------------------------------------------------------+
 

 ******************************** Constrained Forces ********************************
 *                                                                                  *
 *                           Cartesian components (eV/A)                            *
 * -------------------------------------------------------------------------------- *
 *                         x                    y                    z              *
 *                                                                                  *
 * P               1      0.00000(cons'd)      0.00000(cons'd)     -0.00034         *
 * P               2      0.00000(cons'd)     -0.00000(cons'd)      0.00274         *
 * P               3      0.00000(cons'd)      0.00000(cons'd)      0.00126         *
 * P               4     -0.00000(cons'd)     -0.00000(cons'd)     -0.00412         *
 * P               5      0.00000(cons'd)      0.00000(cons'd)      0.00138         *
 * P               6     -0.00000(cons'd)     -0.00000(cons'd)     -0.00424         *
 * P               7      0.00000(cons'd)      0.00000(cons'd)     -0.00025         *
 * P               8      0.00000(cons'd)      0.00000(cons'd)      0.00278         *
 * P               9      0.00000(cons'd)      0.00000(cons'd)      0.00268         *
 * P              10      0.00000(cons'd)      0.00000(cons'd)     -0.00413         *
 * P              11      0.00000(cons'd)      0.00000(cons'd)      0.00134         *
 * P              12      0.00000(cons'd)      0.00000(cons'd)     -0.00032         *
 * In              1      0.00000(cons'd)      0.00000(cons'd)      0.00018         *
 * In              2      0.00000(cons'd)      0.00000(cons'd)      0.00013         *
 * In              3      0.00000(cons'd)      0.00000(cons'd)      0.00004         *
 * In              4      0.00000(cons'd)      0.00000(cons'd)      0.00008         *
 * In              5      0.00000(cons'd)      0.00000(cons'd)      0.00003         *
 * In              6      0.00000(cons'd)      0.00000(cons'd)      0.00001         *
 * In              7      0.00000(cons'd)      0.00000(cons'd)      0.00012         *
 * In              8      0.00000(cons'd)      0.00000(cons'd)      0.00010         *
 * In              9      0.00000(cons'd)      0.00000(cons'd)      0.00009         *
 * In             10      0.00000(cons'd)      0.00000(cons'd)      0.00019         *
 * In             11      0.00000(cons'd)      0.00000(cons'd)      0.00009         *
 * In             12      0.00000(cons'd)      0.00000(cons'd)      0.00017         *
 *                                                                                  *
 ************************************************************************************
 EXP precond LBFGS => estimated nearest neighbor distance :  2.555       A
 EXP precond LBFGS => estimated cutoff distance :  5.111       A

 ************************************** Forces **************************************
 *                                                                                  *
 *                           Cartesian components (eV/A)                            *
 * -------------------------------------------------------------------------------- *
 *                         x                    y                    z              *
 *                                                                                  *
 * P               1      0.00000(cons'd)     -0.00384(cons'd)     -0.00034         *
 * P               2     -0.00000(cons'd)      0.00351(cons'd)      0.00274         *
 * P               3     -0.00000(cons'd)     -0.00360(cons'd)      0.00126         *
 * P               4      0.00000(cons'd)      0.00387(cons'd)     -0.00412         *
 * P               5     -0.00000(cons'd)     -0.00360(cons'd)      0.00138         *
 * P               6      0.00000(cons'd)      0.00387(cons'd)     -0.00424         *
 * P               7      0.00000(cons'd)     -0.00383(cons'd)     -0.00025         *
 * P               8     -0.00000(cons'd)      0.00351(cons'd)      0.00278         *
 * P               9     -0.00000(cons'd)      0.00351(cons'd)      0.00268         *
 * P              10      0.00000(cons'd)      0.00387(cons'd)     -0.00413         *
 * P              11     -0.00000(cons'd)     -0.00360(cons'd)      0.00134         *
 * P              12      0.00000(cons'd)     -0.00384(cons'd)     -0.00032         *
 * In              1      0.00000(cons'd)      0.00022(cons'd)      0.00018         *
 * In              2      0.00000(cons'd)      0.00022(cons'd)      0.00013         *
 * In              3     -0.00000(cons'd)     -0.00001(cons'd)      0.00004         *
 * In              4      0.00000(cons'd)     -0.00019(cons'd)      0.00008         *
 * In              5     -0.00000(cons'd)      0.00003(cons'd)      0.00003         *
 * In              6     -0.00000(cons'd)      0.00003(cons'd)      0.00001         *
 * In              7     -0.00000(cons'd)     -0.00001(cons'd)      0.00012         *
 * In              8      0.00000(cons'd)     -0.00019(cons'd)      0.00010         *
 * In              9     -0.00000(cons'd)      0.00003(cons'd)      0.00009         *
 * In             10      0.00000(cons'd)      0.00022(cons'd)      0.00019         *
 * In             11     -0.00000(cons'd)     -0.00001(cons'd)      0.00009         *
 * In             12      0.00000(cons'd)     -0.00019(cons'd)      0.00017         *
 *                                                                                  *
 ************************************************************************************
 doing test perturbation to get energy scale for EXP preconditioner

                           -------------------------------
                                     Cell Contents
                           -------------------------------

            xxxxxxxxxxxxxxxxxxxxxxxxxxxxxxxxxxxxxxxxxxxxxxxxxxxxxxxxxxxxxxxxx
            x  Element         Atom        Fractional coordinates of atoms  x
            x                 Number           u          v          w      x
            x---------------------------------------------------------------x
            x  P                 1         0.505153   0.628511   0.375275   x
            x  P                 2         0.000000   0.043338   0.458665   x
            x  P                 3         0.000000   0.210121   0.291883   x
            x  P                 4         0.505153   0.461734   0.542053   x
            x  P                 5         0.000000   0.879715   0.625438   x
            x  P                 6         0.505153   0.795298   0.208489   x
            x  P                 7         0.505153   0.294967   0.708819   x
            x  P                 8         0.000000   0.712955   0.792197   x
            x  P                 9         0.000000   0.376910   0.125094   x
            x  P                10         0.505153   0.128216   0.875571   x
            x  P                11         0.000000   0.546212   0.958941   x
            x  P                12         0.505153   0.962089   0.041698   x
            x  In                1         0.505153   0.085033   0.416971   x
            x  In                2         0.505153   0.754644   0.750509   x
            x  In                3         0.000000   0.336658   0.667129   x
            x  In                4         0.505153   0.921407   0.583746   x
            x  In                5         0.000000   0.503427   0.500360   x
            x  In                6         0.000000   0.169902   0.833885   x
            x  In                7         0.000000   0.670207   0.333579   x
            x  In                8         0.505153   0.587896   0.917256   x
            x  In                9         0.000000   0.836995   0.166792   x
            x  In               10         0.505153   0.418608   0.083396   x
            x  In               11         0.000000   0.000000   0.000000   x
            x  In               12         0.505153   0.251817   0.250186   x
            xxxxxxxxxxxxxxxxxxxxxxxxxxxxxxxxxxxxxxxxxxxxxxxxxxxxxxxxxxxxxxxxx


------------------------------------------------------------------------ <-- SCF
SCF loop      Energy           Fermi           Energy gain       Timer   <-- SCF
                               energy          per atom          (sec)   <-- SCF
------------------------------------------------------------------------ <-- SCF
Initial  -2.35786182E+004  0.00000000E+000                       745.17  <-- SCF
      1  -2.35796357E+004  3.42340456E+000   4.23991050E-002     783.54  <-- SCF
      2  -2.35797768E+004  3.42330600E+000   5.87603597E-003     828.31  <-- SCF
      3  -2.35797784E+004  3.42339146E+000   6.73855784E-005     867.11  <-- SCF
      4  -2.35797795E+004  3.42346448E+000   4.77303173E-005     904.91  <-- SCF
      5  -2.35797796E+004  3.42344304E+000   3.90116309E-006     949.69  <-- SCF
      6  -2.35797797E+004  3.42343942E+000   1.22974588E-006     989.26  <-- SCF
      7  -2.35797797E+004  3.42345412E+000  -2.46545153E-008    1021.87  <-- SCF
      8  -2.35797797E+004  3.42346833E+000  -8.86713107E-008    1052.66  <-- SCF
      9  -2.35797796E+004  3.42348324E+000  -1.11813067E-007    1084.42  <-- SCF
     10  -2.35797796E+004  3.42351994E+000  -1.26827998E-007    1116.47  <-- SCF
     11  -2.35797796E+004  3.42353592E+000  -2.09710969E-008    1146.96  <-- SCF
     12  -2.35797796E+004  3.42355166E+000  -1.39507408E-008    1177.46  <-- SCF
     13  -2.35797796E+004  3.42355756E+000  -5.43025786E-009    1206.98  <-- SCF
     14  -2.35797796E+004  3.42356011E+000  -1.08455634E-009    1236.29  <-- SCF
------------------------------------------------------------------------ <-- SCF
 
Final energy, E             =  -23579.77963721     eV
Final free energy (E-TS)    =  -23579.77964357     eV
(energies not corrected for finite basis set)
 
NB est. 0K energy (E-0.5TS)      =  -23579.77964039     eV
 

 ************************************** Forces **************************************
 *                                                                                  *
 *                           Cartesian components (eV/A)                            *
 * -------------------------------------------------------------------------------- *
 *                         x                    y                    z              *
 *                                                                                  *
 * P               1     -0.17475(cons'd)     -0.06849(cons'd)      0.00704         *
 * P               2      0.17768(cons'd)      0.06202(cons'd)      0.01046         *
 * P               3      0.17766(cons'd)      0.06035(cons'd)      0.00745         *
 * P               4     -0.17447(cons'd)      0.04440(cons'd)      0.00803         *
 * P               5      0.17773(cons'd)     -0.04436(cons'd)      0.00926         *
 * P               6     -0.17527(cons'd)     -0.05694(cons'd)      0.00607         *
 * P               7     -0.17390(cons'd)      0.04045(cons'd)      0.00919         *
 * P               8      0.17775(cons'd)     -0.05224(cons'd)      0.01117         *
 * P               9      0.17763(cons'd)      0.06055(cons'd)      0.00972         *
 * P              10     -0.17422(cons'd)      0.05656(cons'd)      0.00985         *
 * P              11      0.17796(cons'd)     -0.16468(cons'd)     -0.11840         *
 * P              12     -0.17629(cons'd)     -0.06755(cons'd)      0.01323         *
 * In              1     -0.15013(cons'd)      0.05107(cons'd)     -0.00872         *
 * In              2     -0.15023(cons'd)     -0.03960(cons'd)     -0.00892         *
 * In              3      0.14730(cons'd)      0.03930(cons'd)     -0.00900         *
 * In              4     -0.15016(cons'd)     -0.03714(cons'd)     -0.00905         *
 * In              5      0.14723(cons'd)     -0.05153(cons'd)     -0.00884         *
 * In              6      0.14739(cons'd)      0.04012(cons'd)     -0.00873         *
 * In              7      0.14719(cons'd)     -0.05201(cons'd)     -0.00868         *
 * In              8     -0.15029(cons'd)     -0.03677(cons'd)     -0.02543         *
 * In              9      0.14715(cons'd)     -0.05122(cons'd)     -0.00855         *
 * In             10     -0.15016(cons'd)      0.05160(cons'd)     -0.00949         *
 * In             11      0.14732(cons'd)      0.16504(cons'd)      0.13086         *
 * In             12     -0.15010(cons'd)      0.05106(cons'd)     -0.00850         *
 *                                                                                  *
 ************************************************************************************
 EXP precond LBFGS => estimated parameter mu :  4.582       eV/A**2
 LBFGS: finished iteration     0 with enthalpy= -2.35798051E+004 eV
  
 +-----------+-----------------+-----------------+------------+-----+ <-- LBFGS
 | Parameter |      value      |    tolerance    |    units   | OK? | <-- LBFGS
 +-----------+-----------------+-----------------+------------+-----+ <-- LBFGS
 |  dE/ion   |   0.000000E+000 |   2.000000E-005 |         eV | No  | <-- LBFGS
 |  |F|max   |   2.698328E-001 |   1.000000E-003 |       eV/A | No  | <-- LBFGS
 |  |dR|max  |   7.578583E-015 |   1.000000E-003 |          A | No  | <-- LBFGS
 +-----------+-----------------+-----------------+------------+-----+ <-- LBFGS
  

================================================================================
 Starting LBFGS iteration          1 ...
================================================================================
  
 +------------+-------------+-------------+-----------------+ <-- min LBFGS
 |    Step    |   lambda    |   F.delta'  |    enthalpy     | <-- min LBFGS
 +------------+-------------+-------------+-----------------+ <-- min LBFGS
 |  previous  |    0.000000 |    0.007520 |   -23579.805074 | <-- min LBFGS
 +------------+-------------+-------------+-----------------+ <-- min LBFGS
  

--------------------------------------------------------------------------------
 LBFGS: starting iteration         1 with trial guess (lambda=  1.000000)
--------------------------------------------------------------------------------

                           -------------------------------
                                     Cell Contents
                           -------------------------------

            xxxxxxxxxxxxxxxxxxxxxxxxxxxxxxxxxxxxxxxxxxxxxxxxxxxxxxxxxxxxxxxxx
            x  Element         Atom        Fractional coordinates of atoms  x
            x                 Number           u          v          w      x
            x---------------------------------------------------------------x
            x  P                 1         0.500000  -0.375002   0.375002   x
            x  P                 2         0.000000   0.041660   0.458340   x
            x  P                 3         0.000000   0.208331   0.291668   x
            x  P                 4         0.500000  -0.541656   0.541656   x
            x  P                 5         0.000000  -0.125003   0.625002   x
            x  P                 6         0.500000  -0.208322   0.208322   x
            x  P                 7         0.500000  -0.708335   0.708335   x
            x  P                 8         0.000000  -0.291674   0.791674   x
            x  P                 9         0.000000   0.374993   0.125007   x
            x  P                10         0.500000  -0.874989   0.874989   x
            x  P                11         0.000000  -0.458336   0.958335   x
            x  P                12         0.500000  -0.041668   0.041668   x
            x  In                1         0.500000   0.083330   0.416670   x
            x  In                2         0.500000  -0.250004   0.750004   x
            x  In                3         0.000000  -0.666668   0.666668   x
            x  In                4         0.500000  -0.083330   0.583330   x
            x  In                5         0.000000  -0.499999   0.499999   x
            x  In                6         0.000000  -0.833332   0.833332   x
            x  In                7         0.000000  -0.333335   0.333335   x
            x  In                8         0.500000  -0.416664   0.916664   x
            x  In                9         0.000000  -0.166665   0.166665   x
            x  In               10         0.500000   0.416663   0.083337   x
            x  In               11         0.000000  -0.000002   0.000002   x
            x  In               12         0.500000   0.250003   0.249997   x
            xxxxxxxxxxxxxxxxxxxxxxxxxxxxxxxxxxxxxxxxxxxxxxxxxxxxxxxxxxxxxxxxx


------------------------------------------------------------------------ <-- SCF
SCF loop      Energy           Fermi           Energy gain       Timer   <-- SCF
                               energy          per atom          (sec)   <-- SCF
------------------------------------------------------------------------ <-- SCF
Initial  -2.35785017E+004  0.00000000E+000                      1285.92  <-- SCF
      1  -2.35796612E+004  3.42331824E+000   4.83134101E-002    1325.21  <-- SCF
      2  -2.35798023E+004  3.42321901E+000   5.87892138E-003    1367.94  <-- SCF
      3  -2.35798038E+004  3.42323764E+000   6.50338260E-005    1405.49  <-- SCF
      4  -2.35798050E+004  3.42328500E+000   4.71911947E-005    1443.83  <-- SCF
      5  -2.35798051E+004  3.42327327E+000   3.78228184E-006    1485.67  <-- SCF
      6  -2.35798051E+004  3.42326287E+000   1.22275659E-006    1526.45  <-- SCF
      7  -2.35798051E+004  3.42326074E+000  -2.42567329E-008    1560.46  <-- SCF
      8  -2.35798051E+004  3.42325498E+000  -8.42844904E-008    1592.53  <-- SCF
      9  -2.35798051E+004  3.42324669E+000  -1.09272339E-007    1623.84  <-- SCF
     10  -2.35798051E+004  3.42323173E+000  -1.34228735E-007    1655.97  <-- SCF
     11  -2.35798051E+004  3.42322913E+000  -2.17820007E-008    1687.11  <-- SCF
     12  -2.35798051E+004  3.42322809E+000  -1.29119436E-008    1718.08  <-- SCF
     13  -2.35798051E+004  3.42322817E+000  -5.86129618E-009    1748.10  <-- SCF
     14  -2.35798051E+004  3.42322815E+000  -1.19605399E-009    1777.85  <-- SCF
------------------------------------------------------------------------ <-- SCF
 
Final energy, E             =  -23579.80507205     eV
Final free energy (E-TS)    =  -23579.80507835     eV
(energies not corrected for finite basis set)
 
NB est. 0K energy (E-0.5TS)      =  -23579.80507520     eV
 

 ******************************** Constrained Forces ********************************
 *                                                                                  *
 *                           Cartesian components (eV/A)                            *
 * -------------------------------------------------------------------------------- *
 *                         x                    y                    z              *
 *                                                                                  *
 * P               1     -0.00000(cons'd)      0.00000(cons'd)      0.00024         *
 * P               2      0.00000(cons'd)     -0.00000(cons'd)      0.00057         *
 * P               3      0.00000(cons'd)      0.00000(cons'd)      0.00004         *
 * P               4      0.00000(cons'd)     -0.00000(cons'd)     -0.00038         *
 * P               5      0.00000(cons'd)      0.00000(cons'd)      0.00009         *
 * P               6     -0.00000(cons'd)      0.00000(cons'd)     -0.00072         *
 * P               7     -0.00000(cons'd)      0.00000(cons'd)     -0.00011         *
 * P               8      0.00000(cons'd)      0.00000(cons'd)      0.00006         *
 * P               9      0.00000(cons'd)     -0.00000(cons'd)      0.00025         *
 * P              10     -0.00000(cons'd)     -0.00000(cons'd)     -0.00070         *
 * P              11      0.00000(cons'd)      0.00000(cons'd)      0.00020         *
 * P              12      0.00000(cons'd)      0.00000(cons'd)      0.00020         *
 * In              1      0.00000(cons'd)      0.00000(cons'd)      0.00033         *
 * In              2      0.00000(cons'd)      0.00000(cons'd)      0.00020         *
 * In              3      0.00000(cons'd)      0.00000(cons'd)      0.00017         *
 * In              4      0.00000(cons'd)      0.00000(cons'd)     -0.00015         *
 * In              5      0.00000(cons'd)      0.00000(cons'd)     -0.00003         *
 * In              6      0.00000(cons'd)      0.00000(cons'd)     -0.00017         *
 * In              7      0.00000(cons'd)      0.00000(cons'd)      0.00011         *
 * In              8      0.00000(cons'd)     -0.00000(cons'd)     -0.00015         *
 * In              9      0.00000(cons'd)      0.00000(cons'd)     -0.00027         *
 * In             10      0.00000(cons'd)      0.00000(cons'd)      0.00027         *
 * In             11      0.00000(cons'd)      0.00000(cons'd)      0.00036         *
 * In             12      0.00000(cons'd)      0.00000(cons'd)     -0.00040         *
 *                                                                                  *
 ************************************************************************************
  
 +------------+-------------+-------------+-----------------+ <-- min LBFGS
 |    Step    |   lambda    |   F.delta'  |    enthalpy     | <-- min LBFGS
 +------------+-------------+-------------+-----------------+ <-- min LBFGS
 |  previous  |    0.000000 |    0.007520 |   -23579.805074 | <-- min LBFGS
 | trial step |    1.000000 |    0.001266 |   -23579.805078 | <-- min LBFGS
 +------------+-------------+-------------+-----------------+ <-- min LBFGS
  
 LBFGS: finished iteration     1 with enthalpy= -2.35798051E+004 eV
  
 +-----------+-----------------+-----------------+------------+-----+ <-- LBFGS
 | Parameter |      value      |    tolerance    |    units   | OK? | <-- LBFGS
 +-----------+-----------------+-----------------+------------+-----+ <-- LBFGS
 |  dE/ion   |   1.783694E-007 |   2.000000E-005 |         eV | Yes | <-- LBFGS
 |  |F|max   |   7.207603E-004 |   1.000000E-003 |       eV/A | Yes | <-- LBFGS
 |  |dR|max  |   4.135904E-004 |   1.000000E-003 |          A | Yes | <-- LBFGS
 +-----------+-----------------+-----------------+------------+-----+ <-- LBFGS
  
 Hirshfeld supercell size:           4           4           1
Standard grid dimensions: 180 180 360
Fine grid dimensions:     180 180 360

 LBFGS: Geometry optimization completed successfully.

================================================================================
 LBFGS: Final Configuration:
================================================================================

                           -------------------------------
                                     Cell Contents
                           -------------------------------

            xxxxxxxxxxxxxxxxxxxxxxxxxxxxxxxxxxxxxxxxxxxxxxxxxxxxxxxxxxxxxxxxx
            x  Element         Atom        Fractional coordinates of atoms  x
            x                 Number           u          v          w      x
            x---------------------------------------------------------------x
            x  P                 1         0.500000  -0.375002   0.375002   x
            x  P                 2         0.000000   0.041660   0.458340   x
            x  P                 3         0.000000   0.208331   0.291668   x
            x  P                 4         0.500000  -0.541656   0.541656   x
            x  P                 5         0.000000  -0.125003   0.625002   x
            x  P                 6         0.500000  -0.208322   0.208322   x
            x  P                 7         0.500000  -0.708335   0.708335   x
            x  P                 8         0.000000  -0.291674   0.791674   x
            x  P                 9         0.000000   0.374993   0.125007   x
            x  P                10         0.500000  -0.874989   0.874989   x
            x  P                11         0.000000  -0.458336   0.958335   x
            x  P                12         0.500000  -0.041668   0.041668   x
            x  In                1         0.500000   0.083330   0.416670   x
            x  In                2         0.500000  -0.250004   0.750004   x
            x  In                3         0.000000  -0.666668   0.666668   x
            x  In                4         0.500000  -0.083330   0.583330   x
            x  In                5         0.000000  -0.499999   0.499999   x
            x  In                6         0.000000  -0.833332   0.833332   x
            x  In                7         0.000000  -0.333335   0.333335   x
            x  In                8         0.500000  -0.416664   0.916664   x
            x  In                9         0.000000  -0.166665   0.166665   x
            x  In               10         0.500000   0.416663   0.083337   x
            x  In               11         0.000000  -0.000002   0.000002   x
            x  In               12         0.500000   0.250003   0.249997   x
            xxxxxxxxxxxxxxxxxxxxxxxxxxxxxxxxxxxxxxxxxxxxxxxxxxxxxxxxxxxxxxxxx


 LBFGS: Final Enthalpy     = -2.35798051E+004 eV
 LBFGS: Final <frequency>  unchanged from initial value

 ******************* Unconstrained Forces *******************
 *                                                          *
 *               Cartesian components (eV/A)                *
 * -------------------------------------------------------- *
 *                         x            y            z      *
 *                                                          *
 * P               1      0.00001     -0.00384      0.00024 *
 * P               2     -0.00001      0.00355      0.00057 *
 * P               3     -0.00001     -0.00361      0.00004 *
 * P               4      0.00000      0.00384     -0.00038 *
 * P               5     -0.00001     -0.00362      0.00009 *
 * P               6      0.00001      0.00385     -0.00072 *
 * P               7      0.00000     -0.00384     -0.00011 *
 * P               8     -0.00001      0.00355      0.00006 *
 * P               9     -0.00001      0.00355      0.00025 *
 * P              10      0.00000      0.00384     -0.00070 *
 * P              11     -0.00000     -0.00360      0.00020 *
 * P              12      0.00001     -0.00384      0.00020 *
 * In              1      0.00001      0.00022      0.00033 *
 * In              2      0.00001      0.00023      0.00020 *
 * In              3     -0.00001     -0.00002      0.00017 *
 * In              4      0.00001     -0.00019     -0.00015 *
 * In              5     -0.00001      0.00003     -0.00003 *
 * In              6     -0.00001      0.00003     -0.00017 *
 * In              7     -0.00001     -0.00001      0.00011 *
 * In              8      0.00000     -0.00019     -0.00015 *
 * In              9     -0.00001      0.00003     -0.00027 *
 * In             10      0.00001      0.00023      0.00027 *
 * In             11     -0.00000     -0.00001      0.00036 *
 * In             12      0.00001     -0.00019     -0.00040 *
 *                                                          *
 ************************************************************

 ******************************** Constrained Forces ********************************
 *                                                                                  *
 *                           Cartesian components (eV/A)                            *
 * -------------------------------------------------------------------------------- *
 *                         x                    y                    z              *
 *                                                                                  *
 * P               1      0.00000(cons'd)      0.00000(cons'd)      0.00024         *
 * P               2      0.00000(cons'd)      0.00000(cons'd)      0.00057         *
 * P               3      0.00000(cons'd)      0.00000(cons'd)      0.00004         *
 * P               4     -0.00000(cons'd)      0.00000(cons'd)     -0.00038         *
 * P               5      0.00000(cons'd)      0.00000(cons'd)      0.00009         *
 * P               6     -0.00000(cons'd)      0.00000(cons'd)     -0.00072         *
 * P               7     -0.00000(cons'd)      0.00000(cons'd)     -0.00011         *
 * P               8      0.00000(cons'd)     -0.00000(cons'd)      0.00006         *
 * P               9      0.00000(cons'd)      0.00000(cons'd)      0.00025         *
 * P              10     -0.00000(cons'd)     -0.00000(cons'd)     -0.00070         *
 * P              11      0.00000(cons'd)      0.00000(cons'd)      0.00020         *
 * P              12      0.00000(cons'd)      0.00000(cons'd)      0.00020         *
 * In              1      0.00000(cons'd)      0.00000(cons'd)      0.00033         *
 * In              2      0.00000(cons'd)      0.00000(cons'd)      0.00020         *
 * In              3      0.00000(cons'd)      0.00000(cons'd)      0.00017         *
 * In              4      0.00000(cons'd)      0.00000(cons'd)     -0.00015         *
 * In              5      0.00000(cons'd)      0.00000(cons'd)     -0.00003         *
 * In              6      0.00000(cons'd)      0.00000(cons'd)     -0.00017         *
 * In              7      0.00000(cons'd)      0.00000(cons'd)      0.00011         *
 * In              8      0.00000(cons'd)      0.00000(cons'd)     -0.00015         *
 * In              9      0.00000(cons'd)      0.00000(cons'd)     -0.00027         *
 * In             10      0.00000(cons'd)      0.00000(cons'd)      0.00027         *
 * In             11      0.00000(cons'd)      0.00000(cons'd)      0.00036         *
 * In             12      0.00000(cons'd)      0.00000(cons'd)     -0.00040         *
 *                                                                                  *
 ************************************************************************************

 Pseudo atomic calculation performed for P 3s2 3p3

 Converged in 23 iterations to a total energy of -208.0292 eV

 Pseudo atomic calculation performed for In 4d10 5s2 5p1

 Converged in 42 iterations to a total energy of -1747.4501 eV
Charge spilling parameter for spin component 1 = 0.15%

            Orbital Populations       
     Ion    Atom   Orbital             Charge
  -------------------------------------------
      P     1      S                    1.735
      P     1      Px                   1.313
      P     1      Py                   1.313
      P     1      Pz                   1.313
      P     2      S                    1.735
      P     2      Px                   1.313
      P     2      Py                   1.313
      P     2      Pz                   1.313
      P     3      S                    1.735
      P     3      Px                   1.313
      P     3      Py                   1.313
      P     3      Pz                   1.313
      P     4      S                    1.735
      P     4      Px                   1.313
      P     4      Py                   1.313
      P     4      Pz                   1.313
      P     5      S                    1.735
      P     5      Px                   1.313
      P     5      Py                   1.313
      P     5      Pz                   1.313
      P     6      S                    1.735
      P     6      Px                   1.313
      P     6      Py                   1.313
      P     6      Pz                   1.313
      P     7      S                    1.735
      P     7      Px                   1.313
      P     7      Py                   1.313
      P     7      Pz                   1.313
      P     8      S                    1.735
      P     8      Px                   1.313
      P     8      Py                   1.313
      P     8      Pz                   1.313
      P     9      S                    1.735
      P     9      Px                   1.313
      P     9      Py                   1.313
      P     9      Pz                   1.313
      P    10      S                    1.735
      P    10      Px                   1.313
      P    10      Py                   1.313
      P    10      Pz                   1.313
      P    11      S                    1.735
      P    11      Px                   1.313
      P    11      Py                   1.313
      P    11      Pz                   1.313
      P    12      S                    1.735
      P    12      Px                   1.313
      P    12      Py                   1.313
      P    12      Pz                   1.313
     In     1      Dzz                  1.999
     In     1      Dzy                  1.997
     In     1      Dzx                  1.997
     In     1      Dxx-yy               1.997
     In     1      Dxy                  1.999
     In     1      S                    1.425
     In     1      Px                   0.481
     In     1      Py                   0.481
     In     1      Pz                   0.481
     In     1      S                   -0.531
     In     2      Dzz                  1.999
     In     2      Dzy                  1.997
     In     2      Dzx                  1.997
     In     2      Dxx-yy               1.997
     In     2      Dxy                  1.999
     In     2      S                    1.425
     In     2      Px                   0.481
     In     2      Py                   0.481
     In     2      Pz                   0.481
     In     2      S                   -0.531
     In     3      Dzz                  1.999
     In     3      Dzy                  1.997
     In     3      Dzx                  1.997
     In     3      Dxx-yy               1.997
     In     3      Dxy                  1.999
     In     3      S                    1.425
     In     3      Px                   0.481
     In     3      Py                   0.481
     In     3      Pz                   0.481
     In     3      S                   -0.531
     In     4      Dzz                  1.999
     In     4      Dzy                  1.997
     In     4      Dzx                  1.997
     In     4      Dxx-yy               1.997
     In     4      Dxy                  1.999
     In     4      S                    1.425
     In     4      Px                   0.481
     In     4      Py                   0.481
     In     4      Pz                   0.481
     In     4      S                   -0.531
     In     5      Dzz                  1.999
     In     5      Dzy                  1.997
     In     5      Dzx                  1.997
     In     5      Dxx-yy               1.997
     In     5      Dxy                  1.999
     In     5      S                    1.425
     In     5      Px                   0.481
     In     5      Py                   0.481
     In     5      Pz                   0.481
     In     5      S                   -0.532
     In     6      Dzz                  1.999
     In     6      Dzy                  1.997
     In     6      Dzx                  1.997
     In     6      Dxx-yy               1.997
     In     6      Dxy                  1.999
     In     6      S                    1.425
     In     6      Px                   0.481
     In     6      Py                   0.481
     In     6      Pz                   0.481
     In     6      S                   -0.532
     In     7      Dzz                  1.999
     In     7      Dzy                  1.997
     In     7      Dzx                  1.997
     In     7      Dxx-yy               1.997
     In     7      Dxy                  1.999
     In     7      S                    1.425
     In     7      Px                   0.481
     In     7      Py                   0.481
     In     7      Pz                   0.481
     In     7      S                   -0.531
     In     8      Dzz                  1.999
     In     8      Dzy                  1.997
     In     8      Dzx                  1.997
     In     8      Dxx-yy               1.997
     In     8      Dxy                  1.999
     In     8      S                    1.425
     In     8      Px                   0.481
     In     8      Py                   0.481
     In     8      Pz                   0.481
     In     8      S                   -0.531
     In     9      Dzz                  1.999
     In     9      Dzy                  1.997
     In     9      Dzx                  1.997
     In     9      Dxx-yy               1.997
     In     9      Dxy                  1.999
     In     9      S                    1.425
     In     9      Px                   0.481
     In     9      Py                   0.481
     In     9      Pz                   0.481
     In     9      S                   -0.532
     In    10      Dzz                  1.999
     In    10      Dzy                  1.997
     In    10      Dzx                  1.997
     In    10      Dxx-yy               1.997
     In    10      Dxy                  1.999
     In    10      S                    1.425
     In    10      Px                   0.481
     In    10      Py                   0.481
     In    10      Pz                   0.481
     In    10      S                   -0.531
     In    11      Dzz                  1.999
     In    11      Dzy                  1.997
     In    11      Dzx                  1.997
     In    11      Dxx-yy               1.997
     In    11      Dxy                  1.999
     In    11      S                    1.425
     In    11      Px                   0.481
     In    11      Py                   0.481
     In    11      Pz                   0.481
     In    11      S                   -0.531
     In    12      Dzz                  1.999
     In    12      Dzy                  1.997
     In    12      Dzx                  1.997
     In    12      Dxx-yy               1.997
     In    12      Dxy                  1.999
     In    12      S                    1.425
     In    12      Px                   0.481
     In    12      Py                   0.481
     In    12      Pz                   0.481
     In    12      S                   -0.531
  -------------------------------------------
                           Total:     216.000
  -------------------------------------------

     Atomic Populations (Mulliken)
     -----------------------------
Species          Ion     s       p       d       f      Total   Charge (e)
==========================================================================
  P               1     1.735   3.940   0.000   0.000   5.675    -0.675
  P               2     1.735   3.940   0.000   0.000   5.675    -0.675
  P               3     1.735   3.940   0.000   0.000   5.675    -0.675
  P               4     1.735   3.940   0.000   0.000   5.675    -0.675
  P               5     1.735   3.940   0.000   0.000   5.675    -0.675
  P               6     1.735   3.940   0.000   0.000   5.675    -0.675
  P               7     1.735   3.940   0.000   0.000   5.675    -0.675
  P               8     1.735   3.940   0.000   0.000   5.675    -0.675
  P               9     1.735   3.940   0.000   0.000   5.675    -0.675
  P              10     1.735   3.940   0.000   0.000   5.675    -0.675
  P              11     1.735   3.940   0.000   0.000   5.675    -0.675
  P              12     1.735   3.940   0.000   0.000   5.675    -0.675
  In              1     0.893   1.443   9.989   0.000  12.325     0.675
  In              2     0.893   1.443   9.989   0.000  12.325     0.675
  In              3     0.893   1.443   9.989   0.000  12.325     0.675
  In              4     0.893   1.443   9.989   0.000  12.325     0.675
  In              5     0.893   1.443   9.989   0.000  12.325     0.675
  In              6     0.893   1.443   9.989   0.000  12.325     0.675
  In              7     0.893   1.443   9.989   0.000  12.325     0.675
  In              8     0.893   1.443   9.989   0.000  12.325     0.675
  In              9     0.893   1.443   9.989   0.000  12.325     0.675
  In             10     0.893   1.443   9.989   0.000  12.325     0.675
  In             11     0.893   1.443   9.989   0.000  12.325     0.675
  In             12     0.893   1.443   9.989   0.000  12.325     0.675
==========================================================================

                 Bond                   Population      Length (A)
======================================================================
              P 6  -- In 9                   1.16        2.55512
              P 10 -- In 6                   1.16        2.55513
              P 4  -- In 5                   1.16        2.55513
              P 8  -- In 6                   1.16        2.55515
              P 2  -- In 5                   1.16        2.55516
              P 9  -- In 9                   1.16        2.55516
              P 5  -- In 3                   1.16        2.55531
              P 11 -- In 11                  1.16        2.55532
              P 3  -- In 7                   1.16        2.55532
              P 12 -- In 11                  1.16        2.55533
              P 1  -- In 7                   1.16        2.55533
              P 7  -- In 3                   1.16        2.55533
              P 7  -- In 2                   1.16        2.55536
              P 12 -- In 10                  1.16        2.55536
              P 1  -- In 1                   1.16        2.55537
              P 9  -- In 10                  1.16        2.55539
              P 2  -- In 1                   1.16        2.55539
              P 8  -- In 2                   1.16        2.55540
              P 3  -- In 12                  1.16        2.55543
              P 11 -- In 8                   1.16        2.55543
              P 5  -- In 4                   1.16        2.55544
              P 10 -- In 8                   1.16        2.55549
              P 4  -- In 4                   1.16        2.55549
              P 6  -- In 12                  1.16        2.55550
======================================================================

 Hirshfeld supercell size:           4           4           1
Standard grid dimensions: 180 180 360
Fine grid dimensions:     180 180 360


     Hirshfeld Analysis
     ------------------
Species   Ion     Hirshfeld Charge (e)
======================================
  P        1                -0.24
  P        2                -0.24
  P        3                -0.24
  P        4                -0.24
  P        5                -0.24
  P        6                -0.24
  P        7                -0.24
  P        8                -0.24
  P        9                -0.24
  P       10                -0.24
  P       11                -0.24
  P       12                -0.24
  In       1                 0.24
  In       2                 0.24
  In       3                 0.24
  In       4                 0.24
  In       5                 0.24
  In       6                 0.24
  In       7                 0.24
  In       8                 0.24
  In       9                 0.24
  In      10                 0.24
  In      11                 0.24
  In      12                 0.24
======================================

 
 A BibTeX formatted list of references used in this run has been written to 
 StackingFaultStructs_001_110_8.bib
 
Initialisation time =     22.61 s
Calculation time    =   1905.98 s
Finalisation time   =     63.11 s
Total time          =   1991.70 s
Peak Memory Use     = 9974652 kB
 
Overall parallel efficiency rating: Very good (82%)
 
Data was distributed by:-
k-point (84-way); efficiency rating: Very good (83%)
