96
Lattice="14.45404925834546 20.441112492360922 0.0 14.45404925834546 -20.441112492360922 0.0 -2.220446049250313e-16 0.0 4.1725246150929305" Properties=species:S:1:pos:R:3:energies:R:1:forces:R:3 core_positions="_JSON [[7.227024629172732, 0.0, 2.0862623075464652], [21.68107388751819, 0.0, 2.0862623075464652]]" burgers_vectors="_JSON [[-0.9834734833333334, 1.9669469666666668, -0.9834734833333334], [0.9834734833333334, -1.9669469666666668, 0.9834734833333334]]" dislocation_types="_JSON [\"1/6<112> 30 degree partial\", \"1/6<112> 30 degree partial\"]" dislocation_classes="_JSON [\"<class 'matscipy.dislocation.DiamondGlide30degreePartial'>\", \"<class 'matscipy.dislocation.DiamondGlide30degreePartial'>\"]" energy=-94315.04179849019 free_energy=-94315.04179849019 stress="-0.0006533561182890965 0.0064802612845919075 0.0016963277872896665 0.0064802612845919075 -0.0021082718819253787 -0.010623931338765154 0.0016963277872896665 -0.010623931338765154 0.0012679598490834137" pbc="T T T"
In       9.87443827      -2.95727998       3.66632577   -1752.93161694       0.00125639      -0.00011167       0.00037362
P       10.24443231      -0.42343676       3.13005078    -212.07429258       0.00088330      -0.00012567      -0.00021785
In       6.15655927      -2.98406932       1.97374789   -1752.91571852       0.00107443       0.00033329       0.00261126
P        5.95456689      -0.42006499       2.09667955    -211.96745952      -0.00052947       0.00000102       0.00572887
In       8.13560680       0.68998250       2.48381695   -1751.90812330       0.00004390      -0.00003900       0.00247171
P        8.27237783       3.16143128       2.24606478    -212.14545864      -0.00054205      -0.00006025       0.00103433
In      11.51004427       0.49368912       0.99111079   -1752.72314983       0.00070879      -0.00015173      -0.00013576
P       11.82608499       2.99592027       0.42598187    -212.07968459      -0.00020674       0.00010193       0.00051795
In       7.04323952       3.96843821       0.14062290   -1752.89087091      -0.00080440       0.00004307       0.00102859
P        7.14466294       6.48929803       0.08330821    -212.10046352      -0.00084967       0.00012153       0.00024170
In      10.70148640       3.94338515       2.48029300   -1752.69671197      -0.00043735       0.00008134       0.00045413
P       10.77226504       6.46620279       2.30036103    -212.11900533      -0.00056900       0.00017352      -0.00008050
In       9.56920638       7.29356355       0.19057939   -1752.84731830      -0.00071576       0.00039078      -0.00016958
P        9.64520551       9.82332562       0.02894406    -212.07449503      -0.00018900       0.00051443      -0.00097088
In       5.93284187       7.29892565       2.15259778   -1752.87149896      -0.00116532       0.00001923       0.00022636
P       20.46484392     -10.61272944       2.01907088    -212.06855268      -0.00003119       0.00022655      -0.00039597
In       8.43468555      10.63918702       2.09593121   -1752.84961796       0.00005783       0.00103766      -0.00107774
P       22.96577333      -7.27290164       1.92959129    -212.04586530       0.00082568       0.00128387      -0.00142944
In      12.05697925      10.67418222       0.09300178   -1752.87397152      -0.00026242       0.00109085      -0.00141210
P       12.11456119      13.21632214      -0.01437780    -212.04561988       0.00011439       0.00125957      -0.00263251
In      21.76008066      -6.45149911       3.99196819   -1752.82168406       0.00069100       0.00121413      -0.00130228
P       21.81591933      -3.93154987       3.88227588    -212.25820969       0.00279774       0.00100807      -0.00392077
In      10.90603678      14.05264636       2.05972692   -1752.82747722       0.00053341       0.00279738      -0.00310324
P       25.38386938      -3.84508468       2.02306967    -212.06615367       0.00383272       0.00265603      -0.01608168
In      17.10011713      -2.98186973       3.67398572   -1752.86642849       0.00217743      -0.00023750      -0.00235765
P       17.36804661      -0.44605733       3.31043682    -212.16638903       0.00127003       0.00006902      -0.00063218
In      13.51333317      -2.99054219       1.53350706   -1752.87474040       0.00156632      -0.00020238      -0.00081920
P       13.82767775      -0.45468322       1.08666374    -212.20498764       0.00098413      -0.00000236       0.00015912
In      15.03993104       0.45940918       3.12276004   -1752.64171260       0.00111090      -0.00033782       0.00034949
P       15.41257644       2.97256173       2.61129355    -212.02176999      -0.00019264      -0.00006063       0.00084348
In      18.63309696       0.40997011       1.18559244   -1752.56960239       0.00038032       0.00085473      -0.00036223
P       19.03062182       2.92020534       0.54896537    -211.96557983      -0.00067090       0.00105520       0.00228104
In      14.24235213       3.87168332       0.50569993   -1752.74781792      -0.00020283      -0.00000725       0.00069574
P       14.36226409       6.41886506       0.29156873    -212.09108785      -0.00033128       0.00007552       0.00033728
In      17.85216039       3.82881659       2.62468904   -1752.75123974      -0.00062882       0.00060376       0.00202722
P       17.96758697       6.38065573       2.38045493    -212.03173885      -0.00025366       0.00047808       0.00197438
In      16.78745289       7.25505102       0.28210088   -1752.93542790      -0.00035921       0.00020754       0.00178291
P       16.87785948       9.80953462       0.12082489    -212.05045411       0.00007953       0.00008067       0.00171584
In      13.18851879       7.29668118       2.35906009   -1752.92543375      -0.00051251       0.00022949       0.00017049
P       13.26214072       9.83576752       2.19482639    -212.07697642      -0.00033643       0.00032184      -0.00107614
In      15.68292034      10.66774593       2.19729732   -1752.91825282      -0.00014197      -0.00033823       0.00163960
P       15.73980244      13.21769035       2.09520932    -212.06440893       0.00064255      -0.00043505       0.00368772
In      19.30243417      10.65492774       0.05956314   -1752.95630075       0.00009508       0.00029129       0.00221087
P       19.38116602      13.22338033      -0.03007772    -212.02578688       0.00063851       0.00017222       0.00244336
In      14.52855169      14.05888500       0.00267953   -1752.88192164       0.00046138      -0.00102288       0.00386228
P       14.54206146      16.60800116      -0.03310794    -212.04929813       0.00207655      -0.00091893       0.00590489
In      18.15949973      14.06130084       2.05624842   -1752.98611198       0.00056310      -0.00019329       0.00250413
P        3.73295308      -3.82113647       2.02785775    -212.02558831       0.00142564      -0.00034489       0.00388884
In      24.17676085      -2.99278695       4.10113808   -1752.72672312       0.00300272       0.00351241      -0.01956636
P       24.15912003      -0.45286754       4.29100547    -211.84790325       0.01162072       0.01423809       0.00297062
In      20.64823937      -3.02279039       1.78282558   -1752.82842603       0.00300055       0.00084395      -0.00326919
P       20.87452396      -0.62678187       1.06668702    -212.11244756      -0.00031271       0.00176394       0.00368324
In      22.83470010       0.34514983       2.27728196   -1752.49527996      -0.00285469       0.00121727       0.00500661
P       22.74782580       2.90684895       2.38555197    -211.81373587      -0.00207939       0.00095938       0.00728179
In      26.52380600       0.40206462       4.16208339   -1753.07202918      -0.02640410      -0.00722642      -0.18818569
P       26.39792868       2.95222276       0.11486330    -212.01757677      -0.00389061      -0.00315665       0.01678016
In      21.48555270       3.70710657       0.32255688   -1752.80877408      -0.00079787       0.00096109       0.00686117
P       21.58062765       6.29460805       0.16901532    -211.98423650      -0.00054611       0.00069763       0.00470929
In      25.16480307       3.77902781       2.21521033   -1752.85108364      -0.00153420       0.00013188       0.01515102
P       10.74941118     -14.10009357       2.14598321    -211.94874190      -0.00072171      -0.00018223       0.00839723
In       9.53586366     -13.25011354       4.23374182   -1752.96831023      -0.00037593       0.00014508       0.00775056
P        9.62388733     -10.67667152       4.15323574    -212.00334842       0.00027093      -0.00000314       0.00328623
In      20.40290449       7.19474539       2.25519480   -1752.94328973      -0.00032490       0.00072159       0.00426970
P       20.48534168       9.76861666       2.14826887    -211.99952515       0.00016609       0.00048101       0.00240804
In       8.44084619      -9.78860871       2.06631591   -1752.96567547       0.00033683       0.00030262       0.00302283
P        8.53525490      -7.21624371       1.97759859    -212.01409062       0.00078030       0.00027539       0.00192623
In      12.04098498      -9.82090539       4.06350601   -1752.96921635       0.00060806      -0.00090051       0.00141668
P       12.14412153      -7.26307052       3.90338179    -212.02190689       0.00104446      -0.00069367       0.00042132
In       7.34751958      -6.33358327       4.06852538   -1753.02653521       0.00071183       0.00029210       0.00196315
P        7.43256240      -3.74607443       4.03443706    -211.93748275       0.00123692       0.00036099       0.00236960
In      10.96247109      -6.38517835       1.80567935   -1752.97865619       0.00102269      -0.00032285       0.00041378
P       11.07352085      -3.82793023       1.59826721    -212.08119953       0.00142800      -0.00022468       0.00025757
In       2.49883995      -2.99228070       4.12113464   -1752.88133028       0.00155654      -0.00071513       0.00413906
P        2.38026556      -0.43744977       0.02294767    -212.03124376      -0.00045928      -0.00124953       0.00952947
In      13.32865881      17.45046144       2.05178700   -1752.80297736       0.00308252       0.00113945       0.00607673
P       27.72552877      -0.44117586       2.07783031    -211.87967996       0.00118143      -0.00316599       0.03336429
In       1.19355891       0.42766658       2.11427130   -1752.89756374      -0.00250253      -0.00304689       0.01003442
P       15.55994031     -17.46347198       2.14343186    -212.00879033      -0.00139828      -0.00241041       0.00693610
In       4.73738983       0.46090192       0.01548612   -1752.91404185      -0.00056938      -0.00004699       0.00606415
P        4.69733578       3.00815129       0.06778490    -212.20010797      -0.00100700      -0.00020200       0.00318555
In      14.34282007     -16.62177927       4.23058388   -1752.91488791      -0.00355056      -0.00490260       0.00709819
P       14.37947589     -14.07125174       4.17693940    -212.00489605      -0.00149893      -0.00402067       0.00399923
In       3.49243897       3.85251906       2.14959318   -1752.92072646      -0.00169742      -0.00107144       0.00324972
P       17.99824977     -14.04433627       2.09468816    -212.08485163      -0.00120000      -0.00098963       0.00138852
In      16.78634573     -13.21121783       4.17077380   -1752.91672388      -0.00189021      -0.00189022       0.00136487
P       16.85071584     -10.66634516       4.05729877    -212.04782799      -0.00017853      -0.00139222       0.00030654
In      13.16240769     -13.23495912       2.08633387   -1752.96047457      -0.00030576      -0.00196113       0.00402407
P       13.23701111     -10.67941951       1.98472021    -212.01832324       0.00037543      -0.00161341       0.00149950
In      15.64915213      -9.82410695       1.95789055   -1752.92075055       0.00024906      -0.00072561       0.00028793
P       15.74304935      -7.27839900       1.78591168    -212.03653749       0.00105724      -0.00046439      -0.00039138
In      19.25397417      -9.79754004       4.08731277   -1752.86896875      -0.00026246      -0.00006687      -0.00038313
P       19.34009421      -7.26537798       3.92366078    -212.04096631       0.00084366       0.00018490      -0.00112946
In      14.56273704      -6.41255671       3.85384767   -1752.92925626       0.00104981      -0.00024995      -0.00039188
P       14.68353709      -3.86309668       3.64616503    -212.21612656       0.00185915      -0.00016641      -0.00088711
In      18.15005446      -6.41992497       1.81544695   -1752.86950630       0.00100989       0.00039213      -0.00115278
P       18.24567629      -3.88642938       1.62414378    -212.22696862       0.00250930       0.00023667      -0.00252772
96
Lattice="14.45404925834546 20.441112492360922 0.0 14.45404925834546 -20.441112492360922 0.0 -2.220446049250313e-16 0.0 4.1725246150929305" Properties=species:S:1:pos:R:3:energies:R:1:forces:R:3 core_positions="_JSON [[7.227024629172732, 0.0, 2.0862623075464652], [21.68107388751819, 0.0, 2.0862623075464652]]" burgers_vectors="_JSON [[-0.9834734833333334, 1.9669469666666668, -0.9834734833333334], [0.9834734833333334, -1.9669469666666668, 0.9834734833333334]]" dislocation_types="_JSON [\"1/6<112> 30 degree partial\", \"1/6<112> 30 degree partial\"]" dislocation_classes="_JSON [\"<class 'matscipy.dislocation.DiamondGlide30degreePartial'>\", \"<class 'matscipy.dislocation.DiamondGlide30degreePartial'>\"]" energy=-94315.04179849019 free_energy=-94315.04179849019 stress="-0.0006533561182890965 0.0064802612845919075 0.0016963277872896665 0.0064802612845919075 -0.0021082718819253787 -0.010623931338765154 0.0016963277872896665 -0.010623931338765154 0.0012679598490834137" pbc="T T T"
In       9.88522548      -2.95087244       3.66440344   -1752.93161694       0.00125639      -0.00011167       0.00037362
P       10.24985140      -0.41692191       3.12630488    -212.07429258       0.00088330      -0.00012567      -0.00021785
In       6.16555192      -2.97411255       1.97821777   -1752.91571852       0.00107443       0.00033329       0.00261126
P        5.95662996      -0.41112489       2.10617326    -211.96745952      -0.00052947       0.00000102       0.00572887
In       8.13827860       0.69794956       2.49152546   -1751.90812330       0.00004390      -0.00003900       0.00247171
P        8.26736806       3.16996331       2.25557859    -212.14545864      -0.00054205      -0.00006025       0.00103433
In      11.51302386       0.50033686       0.98828545   -1752.72314983       0.00070879      -0.00015173      -0.00013576
P       11.82048873       3.00488547       0.43229892    -212.07968459      -0.00020674       0.00010193       0.00051795
In       7.03755433       3.97662172       0.15008700   -1752.89087091      -0.00080440       0.00004307       0.00102859
P        7.13950077       6.49748839       0.08748565    -212.10046352      -0.00084967       0.00012153       0.00024170
In      10.69594963       3.95198977       2.48658917   -1752.69671197      -0.00043735       0.00008134       0.00045413
P       10.76778064       6.47463826       2.30182860    -212.11900533      -0.00056900       0.00017352      -0.00008050
In       9.56409375       7.30257813       0.19149836   -1752.84731830      -0.00071576       0.00039078      -0.00016958
P        9.64370672       9.83227525       0.01886319    -212.07449503      -0.00018900       0.00051443      -0.00097088
In       5.92730020       7.30728397       2.15660071   -1752.87149896      -0.00116532       0.00001923       0.00022636
P       20.46416540     -10.60434160       2.01492459    -212.06855268      -0.00003119       0.00022655      -0.00039597
In       8.43355116      10.65087945       2.08460268   -1752.84961796       0.00005783       0.00103766      -0.00107774
P       22.96865369      -7.26094759       1.90549281    -212.04586530       0.00082568       0.00128387      -0.00142944
In      12.05708062      10.67933895       0.08644050   -1752.87397152      -0.00026242       0.00109085      -0.00141210
P       12.12028318      13.22098248      -0.02696364    -212.04561988       0.00011439       0.00125957      -0.00263251
In      21.76460021      -6.43457250       3.96629383   -1752.82168406       0.00069100       0.00121413      -0.00130228
P       21.82721974      -3.91445327       3.81771006    -212.25820969       0.00279774       0.00100807      -0.00392077
In      10.91136622      14.05658183       2.04614820   -1752.82747722       0.00053341       0.00279738      -0.00310324
P       25.39379533      -3.84183426       2.00705438    -212.06615367       0.00383272       0.00265603      -0.01608168
In      17.11380723      -2.97197522       3.64996615   -1752.86642849       0.00217743      -0.00023750      -0.00235765
P       17.37047220      -0.43460412       3.29505528    -212.16638903       0.00127003       0.00006902      -0.00063218
In      13.52532601      -2.98364284       1.52190825   -1752.87474040       0.00156632      -0.00020238      -0.00081920
P       13.83203949      -0.44636871       1.07930942    -212.20498764       0.00098413      -0.00000236       0.00015912
In      15.04039992       0.46960072       3.11639038   -1752.64171260       0.00111090      -0.00033782       0.00034949
P       15.40577913       2.98423995       2.61863639    -212.02176999      -0.00019264      -0.00006063       0.00084348
In      18.63118303       0.42112518       1.17263353   -1752.56960239       0.00038032       0.00085473      -0.00036223
P       19.01918599       2.93675549       0.56384633    -211.96557983      -0.00067090       0.00105520       0.00228104
In      14.23570121       3.88080877       0.51275025   -1752.74781792      -0.00020283      -0.00000725       0.00069574
P       14.35897846       6.42735307       0.29638622    -212.09108785      -0.00033128       0.00007552       0.00033728
In      17.84336189       3.84278065       2.63888092   -1752.75123974      -0.00062882       0.00060376       0.00202722
P       17.96296960       6.39410449       2.39566420    -212.03173885      -0.00025366       0.00047808       0.00197438
In      16.78323903       7.26745509       0.29610522   -1752.93542790      -0.00035921       0.00020754       0.00178291
P       16.87890688       9.82108186       0.12669966    -212.05045411       0.00007953       0.00008067       0.00171584
In      13.18465411       7.30365717       2.36303283   -1752.92543375      -0.00051251       0.00022949       0.00017049
P       13.26295349       9.84200120       2.18971796    -212.07697642      -0.00033643       0.00032184      -0.00107614
In      15.68319617      10.67725955       2.20172256   -1752.91825282      -0.00014197      -0.00033823       0.00163960
P       15.74539835      13.22658956       2.09320170    -212.06440893       0.00064255      -0.00043505       0.00368772
In      19.30356846      10.66883778       0.07500564   -1752.95630075       0.00009508       0.00029129       0.00221087
P       19.38740129      13.23633821      -0.02371006    -212.02578688       0.00063851       0.00017222       0.00244336
In      14.53378270      14.06600622      -0.00044710   -1752.88192164       0.00046138      -0.00102288       0.00386228
P       14.55070632      16.61454826      -0.03636889    -212.04929813       0.00207655      -0.00091893       0.00590489
In      18.16504543      14.07256757       2.06168045   -1752.98611198       0.00056310      -0.00019329       0.00250413
P        3.74123567      -3.81042302       2.03101001    -212.02558831       0.00142564      -0.00034489       0.00388884
In      24.18885210      -2.98205836       4.08452608   -1752.72672312       0.00300272       0.00351241      -0.01956636
P       24.14934783      -0.44976207       4.35201649    -211.84790325       0.01162072       0.01423809       0.00297062
In      20.66172675      -2.99767670       1.70903811   -1752.82842603       0.00300055       0.00084395      -0.00326919
P       20.88605937      -0.58726960       1.02844074    -212.11244756      -0.00031271       0.00176394       0.00368324
In      22.78960434       0.34065460       2.36209906   -1752.49527996      -0.00285469       0.00121727       0.00500661
P       22.73101388       2.90996973       2.42978677    -211.81373587      -0.00207939       0.00095938       0.00728179
In      26.51267575       0.40042745       4.18751793   -1753.07202918      -0.02640410      -0.00722642      -0.18818569
P       26.38887745       2.95229560       0.14907879    -212.01757677      -0.00389061      -0.00315665       0.01678016
In      21.47658033       3.72231774       0.36420507   -1752.80877408      -0.00079787       0.00096109       0.00686117
P       21.57505878       6.30905278       0.20141212    -211.98423650      -0.00054611       0.00069763       0.00470929
In      25.15077841       3.77470042       2.25147672   -1752.85108364      -0.00153420       0.00013188       0.01515102
P       10.74242430     -14.10130872       2.17355635    -211.94874190      -0.00072171      -0.00018223       0.00839723
In       9.53324963     -13.24409449       4.26140908   -1752.96831023      -0.00037593       0.00014508       0.00775056
P        9.62636551     -10.67010131       4.17009481    -212.00334842       0.00027093      -0.00000314       0.00328623
In      20.39830930       7.20974252       2.28632966   -1752.94328973      -0.00032490       0.00072159       0.00426970
P       20.48641913       9.78266188       2.16510612    -211.99952515       0.00016609       0.00048101       0.00240804
In       8.44439654      -9.77962380       2.08268233   -1752.96567547       0.00033683       0.00030262       0.00302283
P        8.54330755      -7.20722817       1.98527135    -212.01409062       0.00078030       0.00027539       0.00192623
In      12.04424252      -9.81533063       4.07398941   -1752.96921635       0.00060806      -0.00090051       0.00141668
P       12.15277392      -7.25722741       3.90586923    -212.02190689       0.00104446      -0.00069367       0.00042132
In       7.35574753      -6.32351824       4.07587292   -1753.02653521       0.00071183       0.00029210       0.00196315
P        7.44257351      -3.73589945       4.03862901    -211.93748275       0.00123692       0.00036099       0.00236960
In      10.97153608      -6.37827111       1.80809021   -1752.97865619       0.00102269      -0.00032285       0.00041378
P       11.08514934      -3.82124272       1.59588217    -212.08119953       0.00142800      -0.00022468       0.00025757
In       2.50646176      -2.98300796       4.12409796   -1752.88133028       0.00155654      -0.00071513       0.00413906
P        2.38049193      -0.42933857       0.03771323    -212.03124376      -0.00045928      -0.00124953       0.00952947
In      13.33664252      17.45578221       2.04832635   -1752.80297736       0.00308252       0.00113945       0.00607673
P       27.72304728      -0.43712256       2.10153257    -211.87967996       0.00118143      -0.00316599       0.03336429
In       1.19066474       0.43348523       2.13039800   -1752.89756374      -0.00250253      -0.00304689       0.01003442
P       15.55310817     -17.45830125       2.16536676    -212.00879033      -0.00139828      -0.00241041       0.00693610
In       4.73795449       0.46901854       0.02545222   -1752.91404185      -0.00056938      -0.00004699       0.00606415
P        4.69170790       3.01602969       0.08122063    -212.20010797      -0.00100700      -0.00020200       0.00318555
In      14.33322421     -16.61972110       4.25369605   -1752.91488791      -0.00355056      -0.00490260       0.00709819
P       14.37342362     -14.06856653       4.19460754    -212.00489605      -0.00149893      -0.00402067       0.00399923
In       3.48536819       3.85911803       2.16355100   -1752.92072646      -0.00169742      -0.00107144       0.00324972
P       17.99263020     -14.03762427       2.10453453    -212.08485163      -0.00120000      -0.00098963       0.00138852
In      16.78009813     -13.20529387       4.18088395   -1752.91672388      -0.00189021      -0.00189022       0.00136487
P       16.85112388     -10.65986613       4.06049145    -212.04782799      -0.00017853      -0.00139222       0.00030654
In      13.15531514     -13.23372201       2.10426579   -1752.96047457      -0.00030576      -0.00196113       0.00402407
P       13.23807087     -10.67684503       1.99522727    -212.01832324       0.00037543      -0.00161341       0.00149950
In      15.64995892      -9.81767534       1.96120558   -1752.92075055       0.00024906      -0.00072561       0.00028793
P       15.75041621      -7.27125098       1.78114040    -212.03653749       0.00105724      -0.00046439      -0.00039138
In      19.25432754      -9.78768959       4.08299944   -1752.86896875      -0.00026246      -0.00006687      -0.00038313
P       19.34622244      -7.25501064       3.90926601    -212.04096631       0.00084366       0.00018490      -0.00112946
In      14.57127992      -6.40415869       3.84917038   -1752.92925626       0.00104981      -0.00024995      -0.00039188
P       14.69664949      -3.85495675       3.63383990    -212.21612656       0.00185915      -0.00016641      -0.00088711
In      18.15695771      -6.40957068       1.80124865   -1752.86950630       0.00100989       0.00039213      -0.00115278
P       18.25940703      -3.87449545       1.59798257    -212.22696862       0.00250930       0.00023667      -0.00252772
96
Lattice="14.45404925834546 20.441112492360922 0.0 14.45404925834546 -20.441112492360922 0.0 -2.220446049250313e-16 0.0 4.1725246150929305" Properties=species:S:1:pos:R:3:energies:R:1:forces:R:3 core_positions="_JSON [[7.227024629172732, 0.0, 2.0862623075464652], [21.68107388751819, 0.0, 2.0862623075464652]]" burgers_vectors="_JSON [[-0.9834734833333334, 1.9669469666666668, -0.9834734833333334], [0.9834734833333334, -1.9669469666666668, 0.9834734833333334]]" dislocation_types="_JSON [\"1/6<112> 30 degree partial\", \"1/6<112> 30 degree partial\"]" dislocation_classes="_JSON [\"<class 'matscipy.dislocation.DiamondGlide30degreePartial'>\", \"<class 'matscipy.dislocation.DiamondGlide30degreePartial'>\"]" energy=-94315.04179849019 free_energy=-94315.04179849019 stress="-0.0006533561182890965 0.0064802612845919075 0.0016963277872896665 0.0064802612845919075 -0.0021082718819253787 -0.010623931338765154 0.0016963277872896665 -0.010623931338765154 0.0012679598490834137" pbc="T T T"
In       9.89058567      -2.94889583       3.66283895   -1752.93161694       0.00125639      -0.00011167       0.00037362
P       10.25583119      -0.41541313       3.12353962    -212.07429258       0.00088330      -0.00012567      -0.00021785
In       6.17024504      -2.97059754       1.97872863   -1752.91571852       0.00107443       0.00033329       0.00261126
P        5.96118574      -0.40773839       2.10789574    -211.96745952      -0.00052947       0.00000102       0.00572887
In       8.14338077       0.70045646       2.49331667   -1751.90812330       0.00004390      -0.00003900       0.00247171
P        8.26591232       3.17292145       2.25919471    -212.14545864      -0.00054205      -0.00006025       0.00103433
In      11.51817053       0.50159744       0.98579054   -1752.72314983       0.00070879      -0.00015173      -0.00013576
P       11.81834445       3.00744330       0.43467505    -212.07968459      -0.00020674       0.00010193       0.00051795
In       7.03568164       3.97954171       0.15363770   -1752.89087091      -0.00080440       0.00004307       0.00102859
P        7.13712177       6.50045344       0.08886044    -212.10046352      -0.00084967       0.00012153       0.00024170
In      10.69395369       3.95443809       2.48893880   -1752.69671197      -0.00043735       0.00008134       0.00045413
P       10.76587531       6.47688485       2.30210743    -212.11900533      -0.00056900       0.00017352      -0.00008050
In       9.56178647       7.30537599       0.19146968   -1752.84731830      -0.00071576       0.00039078      -0.00016958
P        9.64249324       9.83503409       0.01312138    -212.07449503      -0.00018900       0.00051443      -0.00097088
In       5.92451632       7.31068253       2.15784570   -1752.87149896      -0.00116532       0.00001923       0.00022636
P       20.46337634     -10.60062518       2.01273574    -212.06855268      -0.00003119       0.00022655      -0.00039597
In       8.43252630      10.65637307       2.07802634   -1752.84961796       0.00005783       0.00103766      -0.00107774
P       22.97001614      -7.25498041       1.89026914    -212.04586530       0.00082568       0.00128387      -0.00142944
In      12.05769691      10.67664582       0.08233025   -1752.87397152      -0.00026242       0.00109085      -0.00141210
P       12.12471860      13.21780547      -0.03431213    -212.04561988       0.00011439       0.00125957      -0.00263251
In      21.76860136      -6.42234424       3.94986225   -1752.82168406       0.00069100       0.00121413      -0.00130228
P       21.83954631      -3.90170194       3.75883862    -212.25820969       0.00279774       0.00100807      -0.00392077
In      10.91568032      14.05282601       2.03846260   -1752.82747722       0.00053341       0.00279738      -0.00310324
P       25.40255856      -3.84657941       1.99119434    -212.06615367       0.00383272       0.00265603      -0.01608168
In      17.12273452      -2.96624161       3.63303509   -1752.86642849       0.00217743      -0.00023750      -0.00235765
P       17.37446940      -0.42969966       3.27026276    -212.16638903       0.00127003       0.00006902      -0.00063218
In      13.53210747      -2.98142646       1.51483045   -1752.87474040       0.00156632      -0.00020238      -0.00081920
P       13.83802132      -0.44378914       1.07321363    -212.20498764       0.00098413      -0.00000236       0.00015912
In      15.04210141       0.47444949       3.11080526   -1752.64171260       0.00111090      -0.00033782       0.00034949