96
Lattice="14.45404925834546 20.441112492360922 0.0 14.45404925834546 -20.441112492360922 0.0 -2.220446049250313e-16 0.0 4.1725246150929305" Properties=species:S:1:pos:R:3:energies:R:1:forces:R:3 core_positions="_JSON [[7.227024629172732, 0.0, 2.0862623075464652], [21.68107388751819, 0.0, 2.0862623075464652]]" burgers_vectors="_JSON [[-0.9834734833333334, -0.9834734833333334, 1.9669469666666668], [0.9834734833333334, 0.9834734833333334, -1.9669469666666668]]" dislocation_types="_JSON [\"1/6<112> 90 degree partial\", \"1/6<112> 90 degree partial\"]" dislocation_classes="_JSON [\"<class 'matscipy.dislocation.DiamondGlide90degreePartial'>\", \"<class 'matscipy.dislocation.DiamondGlide90degreePartial'>\"]" energy=-94313.76945726525 free_energy=-94313.76945726525 stress="-0.00040183407906618513 -0.012925748608280533 -9.411318044305789e-05 -0.012925748608280533 -0.0020011826208347207 -9.437300425078518e-07 -9.411318044305789e-05 -9.437300425078518e-07 0.0028659862807357385" pbc="T T T"
In       9.25758632      -3.12761989      -0.00000000   -1752.56324280       0.00154230       0.00306727      -0.00005198
P        8.58249023      -0.69308353       0.00000000    -211.85786204       0.00190292       0.00316889      -0.00030486
In       5.81526762      -2.97481587       2.08626231   -1752.61073459       0.00180964       0.00224040       0.00017921
P        6.12985505      -0.47615812       2.08626231    -211.66517681       0.00223537       0.00220144       0.00092641
In       9.59380864       0.25520871       2.08626231   -1752.71787780       0.00211342       0.00300515      -0.00022110
P        8.92163533       2.79323162       2.08626231    -211.66272047       0.00115409       0.00285762      -0.00004596
In      13.22420303       0.44258478       0.00000000   -1752.60434573       0.00177313       0.00267808      -0.00014350
P       12.54056926       2.94209997       0.00000000    -211.94884397       0.00123268       0.00262324      -0.00004042
In       7.60385680       3.55605098       0.00000000   -1752.86692906       0.00121468       0.00285170      -0.00002625
P        7.40006337       6.19209279       0.00000000    -211.82165091       0.00172935       0.00278099      -0.00001387
In      11.27671069       3.77914617       2.08626231   -1752.71121060       0.00108074       0.00282972      -0.00002176
P       11.02770166       6.34435494       2.08626231    -211.89376714       0.00199540       0.00282637      -0.00001849
In       9.75829938       7.16839184       0.00000000   -1753.02597583       0.00187062       0.00258606      -0.00001612
P        9.61246282       9.76499328       0.00000000    -211.91152175       0.00179681       0.00238028       0.00000124
In       6.20132278       7.13245750       2.08626231   -1753.02760143       0.00163749       0.00248528      -0.00001083
P       20.49396839     -10.70576609       2.08626231    -211.95158511       0.00140243       0.00222860      -0.00000251
In       8.40798411      10.67949083       2.08626231   -1753.06602643       0.00150205       0.00202012       0.00000679
P       22.71062621      -7.16809986       2.08626231    -211.96275195       0.00140648       0.00188286       0.00001585
In      12.00254762      10.64660147      -0.00000000   -1753.00732662       0.00198876       0.00205595      -0.00006312
P       11.88830859      13.21512417      -0.00000000    -211.92574730       0.00187759       0.00194778      -0.00033121
In      21.49023529      -6.25869000       0.00000000   -1753.10649930       0.00104415       0.00159948       0.00002385
P       21.36088595      -3.64289502       0.00000000    -212.20417704       0.00150993       0.00215471       0.00062312
In      10.67694978      14.09383935       2.08626231   -1753.12269448       0.00163146       0.00177011      -0.00046555
P       25.07478054      -3.77742272       2.08626231    -211.84158296       0.00165072       0.00213731      -0.00125101
In      16.34877190      -2.96053983      -0.00000000   -1752.89915344       0.00120727       0.00208523      -0.00007572
P       15.70804109      -0.43911917       0.00000000    -212.10960345       0.00153500       0.00222541      -0.00058462
In      12.74595995      -2.99151217       2.08626231   -1752.84977914       0.00141885       0.00234613       0.00001118
P       12.16261803      -0.48861669       2.08626231    -212.18889757       0.00194220       0.00256597      -0.00014057
In      16.79274181       0.48524454       2.08626231   -1752.64970338       0.00121084       0.00223496      -0.00066984
P       16.08697242       2.98324119       2.08626231    -211.96906402       0.00242752       0.00260746      -0.00012522
In      20.37008389       0.69326520       0.00000000   -1752.69999285       0.00035473       0.00159032      -0.00184790
P       19.60015298       3.13832473       0.00000000    -212.04730216       0.00738921       0.00343633      -0.00044977
In      14.89440263       3.87293922       0.00000000   -1752.72939851       0.00130162       0.00274369      -0.00007387
P       14.64241905       6.41074755       0.00000000    -211.98664707       0.00196552       0.00286769      -0.00006024
In      18.40690674       3.96294831       2.08626231   -1752.74071775       0.00454623       0.00201896      -0.00030193
P       18.23129430       6.48958427       2.08626231    -212.11430150       0.00152621       0.00338917      -0.00010002
In      17.00453338       7.31068311       0.00000000   -1752.92873890       0.00204439       0.00284148      -0.00005844
P       16.82788365       9.83786516       0.00000000    -212.03823389       0.00236621       0.00282110       0.00002122
In      13.40229872       7.24751387       2.08626231   -1752.93197785       0.00207962       0.00271347      -0.00005163
P       13.23358438       9.80236446       2.08626231    -211.95078602       0.00226851       0.00252360      -0.00005405
In      15.61710401      10.68652840       2.08626231   -1752.92566349       0.00234574       0.00244629       0.00003578
P       15.51046763      13.23054237       2.08626231    -212.00513492       0.00226041       0.00230876       0.00043037
In      19.22441804      10.65374891      -0.00000000   -1752.84725874       0.00225939       0.00286339      -0.00001241
P       19.07973227      13.17451558      -0.00000000    -212.06219057       0.00215796       0.00281799       0.00007535
In      14.29412473      14.06767650      -0.00000000   -1753.00314298       0.00196994       0.00191115       0.00053226
P       14.26571934      16.62015057       0.00000000    -211.92485303       0.00180451       0.00227686       0.00062502
In      17.91719179      14.06430790       2.08626231   -1752.81992214       0.00211946       0.00284129       0.00010321
P        3.40685000      -3.83946070       2.08626231    -212.09011988       0.00179300       0.00270587      -0.00010012
In      23.86272898      -2.88750658      -0.00000000   -1753.33395196       0.00132956       0.00394321      -0.00151826
P       24.07998354      -0.32727323      -0.00000000    -211.51131990       0.00211043       0.00552714      -0.01731085
In      20.00630039      -2.86647340       2.08626231   -1752.94793613       0.00149768       0.00205718       0.00067985
P       19.27741419      -0.35756334       2.08626231    -212.13857729       0.00035270       0.00128487      -0.00175865
In      22.84835269       0.62285807       2.08626231   -1752.44200956      -0.00013101       0.01048061      -0.02165649
P       23.12654597       3.16194256       2.08626231    -212.20784614       0.01297113       0.01081789      -0.00071276
In      26.54149425       0.44048459      -0.00000000   -1752.85781259       0.00129686       0.00623768       0.02191660
P       12.27544226     -17.44756205      -0.00000000    -212.11774012       0.00439786       0.00679344       0.00026417
In      21.96117628       4.04614352      -0.00000000   -1752.69142376       0.00865985      -0.00150653      -0.00001383
P       21.83964620       6.55319397      -0.00000000    -212.20112078      -0.00040226      -0.00190553      -0.00044215
In      25.56678682       3.86934764       2.08626231   -1752.83248396      -0.19710185      -0.28665059      -0.00058517
P       10.99982069     -14.03122823       2.08626231    -212.20429136       0.00420316       0.01442182       0.00070331
In       9.81534706     -13.17060058      -0.00000000   -1752.78079765      -0.00285193       0.00532499       0.00058876
P        9.65536368     -10.64592068      -0.00000000    -212.14337555       0.00081571       0.00600766       0.00007296
In      20.61370283       7.33729835       2.08626231   -1752.88709706       0.00185854       0.00180519      -0.00038577
P       20.45224455       9.85096735       2.08626231    -212.15091555       0.00286127       0.00228539      -0.00002803
In       8.42182601      -9.84552929       2.08626231   -1752.78425220      -0.00013137       0.00540146       0.00004679
P        8.24379578      -7.32628152       2.08626231    -212.12445970       0.00151054       0.00351160       0.00008022
In      12.06020294      -9.83234053      -0.00000000   -1752.76461900       0.00125028       0.00299728       0.00005012
P       11.86724642      -7.30422817      -0.00000000    -212.07353705       0.00123895       0.00215361       0.00001037
In       7.03300358      -6.49362548      -0.00000000   -1752.71475307       0.00203186       0.00277618       0.00008656
P        6.88514361      -3.99514376      -0.00000000    -212.07872110       0.00178983       0.00256289       0.00015102
In      10.63301996      -6.50882797       2.08626231   -1752.72936183       0.00174086       0.00279750       0.00000933
P       10.44583475      -3.98963752       2.08626231    -212.36140338       0.00129264       0.00279034      -0.00004201
In      16.68373508      17.45670291      -0.00000000   -1752.91648815       0.00175591       0.00276106      -0.00017406
P        2.38974217      -0.44295421      -0.00000000    -212.09181478       0.00220522       0.00258391       0.00140563
In      13.06830083      17.47434467       2.08626231   -1753.04973352       0.00149713       0.00356740       0.00061253
P       27.72787059      -0.41570649       2.08626231    -211.30807336       0.00004792       0.00377329       0.01640519
In       1.24787688       0.43710422       2.08626231   -1752.95323457       0.00103961       0.00162658       0.00143888
P       15.89086835     -17.46202556       2.08626231    -212.05343877       0.00451390       0.00155874       0.00102672
In       4.87660087       0.28202778      -0.00000000   -1752.89409924       0.00242642       0.00250641       0.00096206
P        5.09675064       2.87354510      -0.00000000    -211.92345137       0.00190466       0.00252379       0.00019613
In      14.69407356     -16.61211132      -0.00000000   -1752.90089169       0.00563899       0.00093452       0.00136283
P       14.60937391     -14.05990055      -0.00000000    -212.09909819       0.00286279       0.00183629       0.00021549
In       3.90038656       3.76257560       2.08626231   -1752.97692939       0.00264938       0.00268195       0.00019365
P       18.22525936     -14.10767313       2.08626231    -211.98486837       0.00183579       0.00248029       0.00001548
In      17.02451885     -13.22713674      -0.00000000   -1752.94329098       0.00200892       0.00150628      -0.00001008
P       16.89030573     -10.65852632      -0.00000000    -212.02624995       0.00123052       0.00163615      -0.00000072
In      13.40669350     -13.20820241       2.08626231   -1752.81648373       0.00714908       0.00883082       0.00018100
P       13.27534831     -10.66565915       2.08626231    -212.07888445       0.00278665       0.00687467       0.00005858
In      15.66984334      -9.80333588       2.08626231   -1752.89837041       0.00500306       0.00491843      -0.00000031
P       15.46633791      -7.24795589       2.08626231    -212.02194631       0.00190525       0.00346846       0.00000137
In      19.29185687      -9.79191106      -0.00000000   -1753.00336572       0.00116071       0.00162758      -0.00000210
P       19.11314974      -7.20371047      -0.00000000    -212.00233295       0.00092446       0.00171994       0.00000468
In      14.23406270      -6.39994361      -0.00000000   -1752.83040239       0.00116814       0.00205490       0.00000413
P       13.98344546      -3.85587251       0.00000000    -212.19505296       0.00130750       0.00210571       0.00001725
In      17.85414785      -6.36880083       2.08626231   -1752.97034583       0.00160818       0.00264016       0.00001648
P       17.62936414      -3.80142845       2.08626231    -212.16036818       0.00138193       0.00230540      -0.00001287
96
Lattice="14.45404925834546 20.441112492360922 0.0 14.45404925834546 -20.441112492360922 0.0 -2.220446049250313e-16 0.0 4.1725246150929305" Properties=species:S:1:pos:R:3:energies:R:1:forces:R:3 core_positions="_JSON [[7.227024629172732, 0.0, 2.0862623075464652], [21.68107388751819, 0.0, 2.0862623075464652]]" burgers_vectors="_JSON [[-0.9834734833333334, -0.9834734833333334, 1.9669469666666668], [0.9834734833333334, 0.9834734833333334, -1.9669469666666668]]" dislocation_types="_JSON [\"1/6<112> 90 degree partial\", \"1/6<112> 90 degree partial\"]" dislocation_classes="_JSON [\"<class 'matscipy.dislocation.DiamondGlide90degreePartial'>\", \"<class 'matscipy.dislocation.DiamondGlide90degreePartial'>\"]" energy=-94313.76945726525 free_energy=-94313.76945726525 stress="-0.00040183407906618513 -0.012925748608280533 -9.411318044305789e-05 -0.012925748608280533 -0.0020011826208347207 -9.437300425078518e-07 -9.411318044305789e-05 -9.437300425078518e-07 0.0028659862807357385" pbc="T T T"
In       9.24072883      -3.13823942      -0.00000038   -1752.56324280       0.00154230       0.00306727      -0.00005198
P        8.58095864      -0.70203163      -0.00000080    -211.85786204       0.00190292       0.00316889      -0.00030486
In       5.79227270      -2.99833935       2.08626272   -1752.61073459       0.00180964       0.00224040       0.00017921
P        6.10542608      -0.50223639       2.08626376    -211.66517681       0.00223537       0.00220144       0.00092641
In       9.61115836       0.22622372       2.08626170   -1752.71787780       0.00211342       0.00300515      -0.00022110
P        8.93625130       2.76274493       2.08626189    -211.66272047       0.00115409       0.00285762      -0.00004596
In      13.23961721       0.41296986       0.00000222   -1752.60434573       0.00177313       0.00267808      -0.00014350
P       12.55832611       2.91156220       0.00000033    -211.94884397       0.00123268       0.00262324      -0.00004042
In       7.61276041       3.51407785      -0.00000013   -1752.86692906       0.00121468       0.00285170      -0.00002625
P        7.40716958       6.15122545      -0.00000006    -211.82165091       0.00172935       0.00278099      -0.00001387
In      11.29342244       3.74628873       2.08626244   -1752.71121060       0.00108074       0.00282972      -0.00002176
P       11.03973944       6.30974893       2.08626244    -211.89376714       0.00199540       0.00282637      -0.00001849
In       9.76599585       7.12760304       0.00000010   -1753.02597583       0.00187062       0.00258606      -0.00001612
P        9.61331855       9.72426860       0.00000010    -211.91152175       0.00179681       0.00238028       0.00000124
In       6.20807994       7.09194063       2.08626228   -1753.02760143       0.00163749       0.00248528      -0.00001083
P       20.49439671     -10.74605943       2.08626222    -211.95158511       0.00140243       0.00222860      -0.00000251
In       8.40824623      10.63829524       2.08626243   -1753.06602643       0.00150205       0.00202012       0.00000679
P       22.70310059      -7.20876760       2.08626341    -211.96275195       0.00140648       0.00188286       0.00001585
In      12.00129177      10.61034634      -0.00000020   -1753.00732662       0.00198876       0.00205595      -0.00006312
P       11.87716613      13.17968788      -0.00000159    -211.92574730       0.00187759       0.00194778      -0.00033121
In      21.48361438      -6.29816978       0.00000176   -1753.10649930       0.00104415       0.00159948       0.00002385
P       21.35081660      -3.68231319       0.00000453    -212.20417704       0.00150993       0.00215471       0.00062312
In      10.66617577      14.06000697       2.08626036   -1753.12269448       0.00163146       0.00177011      -0.00046555
P       25.05864768      -3.80923177       2.08626095    -211.84158296       0.00165072       0.00213731      -0.00125101
In      16.34309514      -2.99520805      -0.00000288   -1752.89915344       0.00120727       0.00208523      -0.00007572
P       15.71995644      -0.47026778       0.00000605    -212.10960345       0.00153500       0.00222541      -0.00058462
In      12.73800835      -3.02164479       2.08626243   -1752.84977914       0.00141885       0.00234613       0.00001118
P       12.17488604      -0.51562869       2.08626420    -212.18889757       0.00194220       0.00256597      -0.00014057
In      16.80619101       0.45250481       2.08626868   -1752.64970338       0.00121084       0.00223496      -0.00066984
P       16.10401218       2.95144592       2.08626414    -211.96906402       0.00242752       0.00260746      -0.00012522
In      20.37443292       0.66799036       0.00007369   -1752.69999285       0.00035473       0.00159032      -0.00184790
P       19.61379859       3.11409765       0.00000405    -212.04730216       0.00738921       0.00343633      -0.00044977
In      14.91252028       3.84184717       0.00000115   -1752.72939851       0.00130162       0.00274369      -0.00007387
P       14.65563095       6.37930943       0.00000033    -211.98664707       0.00196552       0.00286769      -0.00006024
In      18.42045373       3.93788007       2.08626332   -1752.74071775       0.00454623       0.00201896      -0.00030193
P       18.24148757       6.46442942       2.08626396    -212.11430150       0.00152621       0.00338917      -0.00010002
In      17.01510105       7.28561470       0.00000141   -1752.92873890       0.00204439       0.00284148      -0.00005844
P       16.82830862       9.81246160       0.00000013    -212.03823389       0.00236621       0.00282110       0.00002122
In      13.41388884       7.21417339       2.08626246   -1752.93197785       0.00207962       0.00271347      -0.00005163
P       13.23473686       9.76855876       2.08626217    -211.95078602       0.00226851       0.00252360      -0.00005405
In      15.61536267      10.65859688       2.08626238   -1752.92566349       0.00234574       0.00244629       0.00003578
P       15.49833647      13.20246515       2.08626217    -212.00513492       0.00226041       0.00230876       0.00043037
In      19.22179970      10.63609860      -0.00000018   -1752.84725874       0.00225939       0.00286339      -0.00001241
P       19.06823509      13.15643648      -0.00000014    -212.06219057       0.00215796       0.00281799       0.00007535
In      14.28007218      14.03753260      -0.00000009   -1753.00314298       0.00196994       0.00191115       0.00053226
P       14.24548084      16.59084958       0.00000006    -211.92485303       0.00180451       0.00227686       0.00062502
In      17.90232735      14.04250432       2.08626217   -1752.81992214       0.00211946       0.00284129       0.00010321
P        3.38463155      -3.86205841       2.08626196    -212.09011988       0.00179300       0.00270587      -0.00010012
In      23.84760856      -2.92087705      -0.00000231   -1753.33395196       0.00132956       0.00394321      -0.00151826
P       24.06440639      -0.35896495      -0.00008010    -211.51131990       0.00211043       0.00552714      -0.01731085
In      20.00001920      -2.90303286       2.08626850   -1752.94793613       0.00149768       0.00205718       0.00067985
P       19.29054886      -0.38866835       2.08631955    -212.13857729       0.00035270       0.00128487      -0.00175865
In      22.84559453       0.60891940       2.08614951   -1752.44200956      -0.00013101       0.01048061      -0.02165649
P       23.13496382       3.14292923       2.08625968    -212.20784614       0.01297113       0.01081789      -0.00071276
In      26.53101187       0.41666898       0.00003006   -1752.85781259       0.00129686       0.00623768       0.02191660
P       12.27589955     -17.47139984      -0.00000586    -212.11774012       0.00439786       0.00679344       0.00026417
In      21.97151136       4.02825150      -0.00000001   -1752.69142376       0.00865985      -0.00150653      -0.00001383
P       21.84557330       6.53501487      -0.00000286    -212.20112078      -0.00040226      -0.00190553      -0.00044215
In      25.57348563       3.85257555       2.08625555   -1752.83248396      -0.19710185      -0.28665059      -0.00058517
P       11.00330116     -14.04860196       2.08626185    -212.20429136       0.00420316       0.01442182       0.00070331
In       9.81975248     -13.18553213      -0.00000052   -1752.78079765      -0.00285193       0.00532499       0.00058876
P        9.65205920     -10.66123310      -0.00000009    -212.14337555       0.00081571       0.00600766       0.00007296
In      20.62065124       7.31995707       2.08625989   -1752.88709706       0.00185854       0.00180519      -0.00038577
P       20.45003819       9.83339683       2.08626200    -212.15091555       0.00286127       0.00228539      -0.00002803
In       8.41826426      -9.86025529       2.08626225   -1752.78425220      -0.00013137       0.00540146       0.00004679
P        8.23236582      -7.34162081       2.08626243    -212.12445970       0.00151054       0.00351160       0.00008022
In      12.05655521      -9.84816618       0.00000006   -1752.76461900       0.00125028       0.00299728       0.00005012
P       11.85667260      -7.32046040      -0.00000004    -212.07353705       0.00123895       0.00215361       0.00001037
In       7.02100020      -6.50864099       0.00000013   -1752.71475307       0.00203186       0.00277618       0.00008656
P        6.86926665      -4.01087828       0.00000036    -212.07872110       0.00178983       0.00256289       0.00015102
In      10.62127481      -6.52328769       2.08626226   -1752.72936183       0.00174086       0.00279750       0.00000933
P       10.43062241      -4.00421660       2.08626194    -212.36140338       0.00129264       0.00279034      -0.00004201
In      16.66086891      17.43271170      -0.00000080   -1752.91648815       0.00175591       0.00276106      -0.00017406
P        2.36832197      -0.46751973      -0.00000107    -212.09181478       0.00220522       0.00258391       0.00140563
In      13.04938813      17.44611454       2.08626224   -1753.04973352       0.00149713       0.00356740       0.00061253
P       27.71043946      -0.44314249       2.08628647    -211.30807336       0.00004792       0.00377329       0.01640519
In       1.22923414       0.41403073       2.08626068   -1752.95323457       0.00103961       0.00162658       0.00143888
P       15.88977382     -17.48656124       2.08626280    -212.05343877       0.00451390       0.00155874       0.00102672
In       4.85544394       0.25368704       0.00000110   -1752.89409924       0.00242642       0.00250641       0.00096206
P        5.09882093       2.84310213       0.00000019    -211.92345137       0.00190466       0.00252379       0.00019613
In      14.69524780     -16.63452255       0.00000337   -1752.90089169       0.00563899       0.00093452       0.00136283
P       14.61047514     -14.08237827       0.00000021    -212.09909819       0.00286279       0.00183629       0.00021549
In       3.90290065       3.73157880       2.08626232   -1752.97692939       0.00264938       0.00268195       0.00019365
P       18.22853183     -14.13919624       2.08626244    -211.98486837       0.00183579       0.00248029       0.00001548
In      17.02825549     -13.25767251       0.00000012   -1752.94329098       0.00200892       0.00150628      -0.00001008
P       16.88879047     -10.68970359       0.00000003    -212.02624995       0.00123052       0.00163615      -0.00000072
In      13.40985603     -13.22647319       2.08626247   -1752.81648373       0.00714908       0.00883082       0.00018100
P       13.27166192     -10.68433594       2.08626239    -212.07888445       0.00278665       0.00687467       0.00005858
In      15.66907782      -9.83194004       2.08626235   -1752.89837041       0.00500306       0.00491843      -0.00000031
P       15.46039126      -7.27724999       2.08626223    -212.02194631       0.00190525       0.00346846       0.00000137
In      19.29247318      -9.83049578      -0.00000010   -1753.00336572       0.00116071       0.00162758      -0.00000210
P       19.10719084      -7.24229218      -0.00000027    -212.00233295       0.00092446       0.00171994       0.00000468
In      14.22826228      -6.42849029      -0.00000012   -1752.83040239       0.00116814       0.00205490       0.00000413
P       13.97592414      -3.88510464      -0.00000011    -212.19505296       0.00130750       0.00210571       0.00001725
In      17.85007108      -6.40372423       2.08626200   -1752.97034583       0.00160818       0.00264016       0.00001648
P       17.62330572      -3.83618865       2.08625951    -212.16036818       0.00138193       0.00230540      -0.00001287
96
Lattice="14.45404925834546 20.441112492360922 0.0 14.45404925834546 -20.441112492360922 0.0 -2.220446049250313e-16 0.0 4.1725246150929305" Properties=species:S:1:pos:R:3:energies:R:1:forces:R:3 core_positions="_JSON [[7.227024629172732, 0.0, 2.0862623075464652], [21.68107388751819, 0.0, 2.0862623075464652]]" burgers_vectors="_JSON [[-0.9834734833333334, -0.9834734833333334, 1.9669469666666668], [0.9834734833333334, 0.9834734833333334, -1.9669469666666668]]" dislocation_types="_JSON [\"1/6<112> 90 degree partial\", \"1/6<112> 90 degree partial\"]" dislocation_classes="_JSON [\"<class 'matscipy.dislocation.DiamondGlide90degreePartial'>\", \"<class 'matscipy.dislocation.DiamondGlide90degreePartial'>\"]" energy=-94313.76945726525 free_energy=-94313.76945726525 stress="-0.00040183407906618513 -0.012925748608280533 -9.411318044305789e-05 -0.012925748608280533 -0.0020011826208347207 -9.437300425078518e-07 -9.411318044305789e-05 -9.437300425078518e-07 0.0028659862807357385" pbc="T T T"
In       9.22821715      -3.12056426       0.00000014   -1752.56324280       0.00154230       0.00306727      -0.00005198
P        8.59153888      -0.68225110       0.00000211    -211.85786204       0.00190292       0.00316889      -0.00030486
In       5.76986571      -2.99101224       2.08626038   -1752.61073459       0.00180964       0.00224040       0.00017921
P        6.06272128      -0.49689554       2.08625690    -211.66517681       0.00223537       0.00220144       0.00092641
In       9.63707349       0.22816159       2.08626397   -1752.71787780       0.00211342       0.00300515      -0.00022110
P        8.96439690       2.76399687       2.08626285    -211.66272047       0.00115409       0.00285762      -0.00004596
In      13.27296329       0.41129876       0.00000104   -1752.60434573       0.00177313       0.00267808      -0.00014350
P       12.59423107       2.90881980       0.00000043    -211.94884397       0.00123268       0.00262324      -0.00004042
In       7.63014077       3.49814649       0.00000011   -1752.86692906       0.00121468       0.00285170      -0.00002625
P        7.42060975       6.13697662       0.00000001    -211.82165091       0.00172935       0.00278099      -0.00001387
In      11.32697663       3.74131965       2.08626261   -1752.71121060       0.00108074       0.00282972      -0.00002176
P       11.05979894       6.30237071       2.08626259    -211.89376714       0.00199540       0.00282637      -0.00001849
In       9.78110283       7.11295057       0.00000025   -1753.02597583       0.00187062       0.00258606      -0.00001612
P        9.62251452       9.70931041       0.00000029    -211.91152175       0.00179681       0.00238028       0.00000124
In       6.22125886       7.07730709       2.08626224   -1753.02760143       0.00163749       0.00248528      -0.00001083
P       20.50161639     -10.76163983       2.08626234    -211.95158511       0.00140243       0.00222860      -0.00000251
In       8.41701227      10.61885135       2.08626259   -1753.06602643       0.00150205       0.00202012       0.00000679
P       22.70361091      -7.23067596       2.08626282    -211.96275195       0.00140648       0.00188286       0.00001585
In      12.00505488      10.60959133       0.00000077   -1753.00732662       0.00198876       0.00205595      -0.00006312
P       11.86686760      13.18070076       0.00000129    -211.92574730       0.00187759       0.00194778      -0.00033121
In      21.47908861      -6.33338157       0.00000033   -1753.10649930       0.00104415       0.00159948       0.00002385
P       21.33095963      -3.72125188      -0.00000056    -212.20417704       0.00150993       0.00215471       0.00062312
In      10.65736375      14.06621001       2.08626380   -1753.12269448       0.00163146       0.00177011      -0.00046555
P       25.03364854      -3.80279183       2.08626437    -211.84158296       0.00165072       0.00213731      -0.00125101
In      16.33672700      -3.00375728       0.00000067   -1752.89915344       0.00120727       0.00208523      -0.00007572
P       15.75215432      -0.47394164       0.00000219    -212.10960345       0.00153500       0.00222541      -0.00058462
In      12.73212562      -3.01784513       2.08626238   -1752.84977914       0.00141885       0.00234613       0.00001118
P       12.19875163      -0.50888937       2.08626334    -212.18889757       0.00194220       0.00256597      -0.00014057
In      16.85107040       0.43523757       2.08626460   -1752.64970338       0.00121084       0.00223496      -0.00066984