 +-------------------------------------------------+
 |                                                 |
 |      CCC   AA    SSS  TTTTT  EEEEE  PPPP        |
 |     C     A  A  S       T    E      P   P       |
 |     C     AAAA   SS     T    EEE    PPPP        |
 |     C     A  A     S    T    E      P           |
 |      CCC  A  A  SSS     T    EEEEE  P           |
 |                                                 |
 +-------------------------------------------------+
 |                                                 |
 | Welcome to Academic Release CASTEP version 20.11|          
 | Ab Initio Total Energy Program                  |
 |                                                 |
 | Authors:                                        |
 | M. Segall, M. Probert, C. Pickard, P. Hasnip,   |
 | S. Clark, K. Refson, J. R. Yates, M. Payne      |
 |                                                 |
 | Contributors:                                   |
 | P. Lindan, P. Haynes, J. White, V. Milman,      |
 | N. Govind, M. Gibson, P. Tulip, V. Cocula,      |
 | B. Montanari, D. Quigley, M. Glover,            |
 | L. Bernasconi, A. Perlov, M. Plummer,           |
 | E. McNellis, J. Meyer, J. Gale, D. Jochym       |
 | J. Aarons, B. Walker, R. Gillen, D. Jones       |
 | T. Green, I. J. Bush, C. J. Armstrong,          |
 | E. J. Higgins, E. L. Brown, M. S. McFly,        |
 | J. Wilkins, B-C. Shih, P. J. P. Byrne,          |
 | R. J. Maurer, J. C. Womack, J. Dziedzic,        |
 | J. R. Kermode, A. Bartok-Partay                 |
 |                                                 |
 | Copyright (c) 2000 - 2020                       |
 |                                                 |
 |     Distributed under license from Cambridge    |
 |     Enterprise for academic use only.           |
 |                                                 |
 | Please cite                                     |
 |                                                 |
 |     "First principles methods using CASTEP"     |
 |                                                 |
 |         Zeitschrift fuer Kristallographie       |
 |           220(5-6) pp. 567-570 (2005)           |
 |                                                 |
 | S. J. Clark, M. D. Segall, C. J. Pickard,       |
 | P. J. Hasnip, M. J. Probert, K. Refson,         |
 | M. C. Payne                                     |
 |                                                 |
 |       in all publications arising from          |
 |              your use of CASTEP                 |
 |                                                 |
 +-------------------------------------------------+
 |                                                 |
 |              http://www.castep.org              |
 |                                                 |
 +-------------------------------------------------+
 
 
 
 Compiled for linux_x86_64_ifort on Wed, 25 Aug 2021 18:50:38 +0100
 from code version e772bf432+  HEAD  Sat Apr 3 17:41:32 2021 +0100
 Compiler: Intel Fortran 19.0.5.281; Optimisation: fast
 MATHLIBS: Intel MKL(2019.0.5) (LAPACK version 3.7.0)
 FFT Lib : mkl
 Fundamental constants values: CODATA 2014
 
 Run started: Fri, 16 Dec 2022 17:48:01 +0000
 
 Atomic calculation performed for P: 1s2 2s2 2p6 3s2 3p3
 
 Exceeded max iterations: converged to -0.000003405 eV
 The ae energy is -9309.074 eV
 
   ============================================================                
   | Pseudopotential Report - Date of generation 16-12-2022   |                
   ------------------------------------------------------------                
   | Element: P Ionic charge:  5.00 Level of theory: RSCAN    |                
   | Atomic Solver: Koelling-Harmon                           |                
   |                                                          |                
   |               Reference Electronic Structure             |                
   |         Orbital         Occupation         Energy        |                
   |            3s              2.000           -0.535        |                
   |            3p              3.000           -0.209        |                
   |                                                          |                
   |                 Pseudopotential Definition               |                
   |        Beta     l      e      Rc     scheme   norm       |                
   |          1      0   -0.535   1.807     qc      0         |                
   |          2      0    0.250   1.807     qc      0         |                
   |          3      1   -0.209   1.807     qc      0         |                
   |          4      1    0.250   1.807     qc      0         |                
   |          5      2    0.000   1.807     qc      0         |                
   |          6      2    0.250   1.807     qc      0         |                
   |         loc     3    0.000   1.807     pn      0         |                
   |                                                          |                
   | Augmentation charge Rinner = 1.263                       |                
   | Partial core correction Rc = 1.263                       |                
   ------------------------------------------------------------                
   | "3|1.8|4|4|5|30:31:32"                                   |                
   ------------------------------------------------------------                
   |      Author: Chris J. Pickard, Cambridge University      |                
   ============================================================                
 Warning: ion_atom_output_psp cannot write out meta-GGA pseudopotentials present
 ly.
 
 Atomic calculation performed for In:
 1s2 2s2 2p6 3s2 3p6 3d10 4s2 4p6 4d10 5s2 5p1
 
 Exceeded max iterations: converged to -0.000725459 eV
 The ae energy is -160093.321 eV
 
   ============================================================                
   | Pseudopotential Report - Date of generation 16-12-2022   |                
   ------------------------------------------------------------                
   | Element: In Ionic charge: 13.00 Level of theory: RSCAN   |                
   | Atomic Solver: Koelling-Harmon                           |                
   |                                                          |                
   |               Reference Electronic Structure             |                
   |         Orbital         Occupation         Energy        |                
   |            4d             10.000           -0.711        |                
   |            5s              2.000           -0.313        |                
   |            5p              1.000           -0.095        |                
   |                                                          |                
   |                 Pseudopotential Definition               |                
   |        Beta     l      e      Rc     scheme   norm       |                
   |          1      0   -0.313   2.501     qc      0         |                
   |          2      0    0.250   2.501     qc      0         |                
   |          3      1   -0.095   2.501     qc      0         |                
   |          4      1    0.250   2.501     qc      0         |                
   |          5      2   -0.711   2.207     qc      0         |                
   |          6      2    0.250   2.207     qc      0         |                
   |         loc     3    0.000   2.501     pn      0         |                
   |                                                          |                
   | Augmentation charge Rinner = 1.504                       |                
   | Partial core correction Rc = 1.504                       |                
   ------------------------------------------------------------                
   | "3|2.5|2.5|1.5|7|8|9|50:51:42U2.2U2.2"                   |                
   ------------------------------------------------------------                
   |      Author: Chris J. Pickard, Cambridge University      |                
   ============================================================                
 Warning: ion_atom_output_psp cannot write out meta-GGA pseudopotentials present
 ly.
 
 Pseudo atomic calculation performed for P 3s2 3p3
 
 Converged in 23 iterations to a total energy of -208.0292 eV
 
 Pseudo atomic calculation performed for In 4d10 5s2 5p1
 
 Converged in 42 iterations to a total energy of -1747.4504 eV
 Calculation parallelised over 32 processes.
 Data is distributed by k-point(32-way)

 ************************************ Title ************************************
 

 ***************************** General Parameters ******************************
  
 output verbosity                               : normal  (1)
 write checkpoint data to                       : WZ_EOS_1.067.check
 type of calculation                            : single point energy
 stress calculation                             : on
 density difference calculation                 : off
 electron localisation func (ELF) calculation   : off
 Hirshfeld analysis                             : off
 molecular orbital projected DOS                : off
 deltaSCF calculation                           : off
 unlimited duration calculation
 timing information                             : on
 memory usage estimate                          : on
 write extra output files                       : on
 write final potential to formatted file        : off
 write final density to formatted file          : off
 write BibTeX reference list                    : on
 write OTFG pseudopotential files               : on
 write electrostatic potential file             : on
 write bands file                               : on
 checkpoint writing                             : off
  
 output         length unit                     : A
 output           mass unit                     : amu
 output           time unit                     : ps
 output         charge unit                     : e
 output           spin unit                     : hbar/2
 output         energy unit                     : eV
 output          force unit                     : eV/A
 output       velocity unit                     : A/ps
 output       pressure unit                     : GPa
 output     inv_length unit                     : 1/A
 output      frequency unit                     : cm-1
 output force constant unit                     : eV/A**2
 output         volume unit                     : A**3
 output   IR intensity unit                     : (D/A)**2/amu
 output         dipole unit                     : D
 output         efield unit                     : eV/A/e
 output        entropy unit                     : J/mol/K
 output    efield chi2 unit                     : pm/V
  
 wavefunctions paging                           : none
 random number generator seed                   : randomised (174801163)
 data distribution                              : optimal for this architecture
 optimization strategy                          : balance speed and memory

 *********************** Exchange-Correlation Parameters ***********************
  
 using functional                               : RSCAN
 relativistic treatment                         : Koelling-Harmon
 DFT+D: Semi-empirical dispersion correction    : off

 ************************* Pseudopotential Parameters **************************
  
 pseudopotential representation                 : reciprocal space
 <beta|phi> representation                      : reciprocal space
 spin-orbit coupling                            : off

 **************************** Basis Set Parameters *****************************
  
 plane wave basis set cut-off                   :   900.0000   eV
 size of standard grid                          :     1.7500
 size of   fine   gmax                          :    26.8966   1/A
 finite basis set correction                    : automatic
 number of sample energies                      :          3
           sample  spacing                      :     5.0000   eV

 **************************** Electronic Parameters ****************************
  
 number of  electrons                           :  36.00    
 net charge of system                           :  0.000    
 treating system as non-spin-polarized
 number of bands                                :         22

 ********************* Electronic Minimization Parameters **********************
  
 Method: Treating system as metallic with density mixing treatment of electrons,
         and number of  SD  steps               :          1
         and number of  CG  steps               :          4
  
 total energy / atom convergence tol.           : 0.1000E-07   eV
 eigen-energy convergence tolerance             : 0.2222E-08   eV
 max force / atom convergence tol.              : ignored
 convergence tolerance window                   :          3   cycles
 max. number of SCF cycles                      :         30
 number of fixed-spin iterations                :         10
 smearing scheme                                : Gaussian
 smearing width                                 : 0.2000       eV
 Fermi energy convergence tolerance             : 0.2721E-13   eV
 periodic dipole correction                     : NONE

 ************************** Density Mixing Parameters **************************
  
 density-mixing scheme                          : Broyden
 max. length of mixing history                  :         20
 charge density mixing amplitude                : 0.8000    
 cut-off energy for mixing                      :  900.0       eV

 *********************** Population Analysis Parameters ************************
  
 Population analysis with cutoff                :  3.000       A
 Population analysis output                     : summary and pdos components

 *******************************************************************************
  
 
                           -------------------------------
                                      Unit Cell
                           -------------------------------
        Real Lattice(A)                      Reciprocal Lattice(1/A)
     4.4435940    -0.0000460     0.0000000        1.413978810  -0.816341531   0.000000000
     2.2217570     3.8482880     0.0000000        0.000016902   1.632712457   0.000000000
     0.0000000     0.0000000     7.2973420        0.000000000   0.000000000   0.861023823
 
                       Lattice parameters(A)       Cell Angles
                    a =      4.443594          alpha =   90.000000
                    b =      4.443594          beta  =   90.000000
                    c =      7.297342          gamma =   60.001186
 
                       Current cell volume =           124.786968       A**3
                                   density =             2.336650   AMU/A**3
                                           =             3.880099     g/cm^3
 
                           -------------------------------
                                     Cell Contents
                           -------------------------------
                         Total number of ions in cell =    4
                      Total number of species in cell =    2
                        Max number of any one species =    2
 
            xxxxxxxxxxxxxxxxxxxxxxxxxxxxxxxxxxxxxxxxxxxxxxxxxxxxxxxxxxxx
            x  Element    Atom        Fractional coordinates of atoms  x
            x            Number           u          v          w      x
            x----------------------------------------------------------x
            x  P            1         0.333329   0.333331  -0.000013   x 
            x  P            2         0.666669   0.666671   0.499987   x 
            x  In           1         0.333331   0.333333   0.374443   x 
            x  In           2         0.666667   0.666669   0.874443   x 
            xxxxxxxxxxxxxxxxxxxxxxxxxxxxxxxxxxxxxxxxxxxxxxxxxxxxxxxxxxxx
 
 
                         No user defined ionic velocities
 
                           -------------------------------
                                   Details of Species
                           -------------------------------
 
                               Mass of species in AMU
                                    P   30.9737600
                                    In  114.8180000
 
                          Electric Quadrupole Moment (Barn)
                                    P    1.0000000 No Isotope Defined
                                    In    0.7700000 Isotope115
 
                          Files used for pseudopotentials:
                                    P 3|1.8|4|4|5|30:31:32
                                    In 3|2.5|2.5|1.5|7|8|9|50:51:42U2.2U2.2
 
                           -------------------------------
                              k-Points For BZ Sampling
                           -------------------------------
                       MP grid size for SCF calculation is  9  9  5
                            with an offset of   0.056  0.056  0.100
                       Number of kpoints used =           203
 
                           -------------------------------
                               Symmetry and Constraints
                           -------------------------------
 
                      Maximum deviation from symmetry =  0.00000         ANG
 
                      Number of symmetry operations   =           1
                      Number of ionic constraints     =           3
                      Point group of crystal =     1: C1, 1, 1
                      Space group of crystal =   186: P6_3mc, P 6c -2c
 
             Set iprint > 1 for details on symmetry rotations/translations
 
                         Centre of mass is constrained
             Set iprint > 1 for details of linear ionic constraints
 
                         Number of cell constraints= 0
                         Cell constraints are:  1 2 3 4 5 6
 
                         External pressure/stress (GPa)
                          0.00000   0.00000   0.00000
                                    0.00000   0.00000
                                              0.00000
  
+---------------- MEMORY AND SCRATCH DISK ESTIMATES PER PROCESS --------------+
|                                                     Memory          Disk    |
| Baseline code, static data and system overhead      394.0 MB         0.0 MB |
| BLAS internal memory storage                          0.0 MB         0.0 MB |
| Model and support data                              231.6 MB       543.1 MB |
| Electronic energy minimisation requirements          74.0 MB         0.0 MB |
| Force calculation requirements                       14.8 MB         0.0 MB |
| Stress calculation requirements                      16.4 MB         0.0 MB |
|                                               ----------------------------- |
| Approx. total storage required per process          699.5 MB       543.1 MB |
|                                                                             |
| Requirements will fluctuate during execution and may exceed these estimates |
+-----------------------------------------------------------------------------+
Calculating finite basis set correction with  3 cut-off energies.
Calculating total energy with cut-off of  890.000 eV.
------------------------------------------------------------------------ <-- SCF
SCF loop      Energy           Fermi           Energy gain       Timer   <-- SCF
                               energy          per atom          (sec)   <-- SCF
------------------------------------------------------------------------ <-- SCF
Initial  -3.09098634E+003  0.00000000E+000                        20.16  <-- SCF
      1  -3.81013176E+003  3.58155630E+000   1.79786355E+002      35.29  <-- SCF
      2  -3.91140983E+003  1.30114220E+000   2.53195162E+001      44.98  <-- SCF
      3  -3.91521711E+003  8.65785451E-001   9.51819307E-001      54.94  <-- SCF
      4  -3.92952610E+003  1.54364389E+000   3.57724963E+000      67.87  <-- SCF
      5  -3.92953673E+003  1.54337097E+000   2.65578186E-003      80.72  <-- SCF
      6  -3.93003070E+003  1.53976228E+000   1.23492596E-001      93.86  <-- SCF
      7  -3.92908845E+003  1.68902751E+000  -2.35561976E-001     106.77  <-- SCF
      8  -3.92925178E+003  1.73837061E+000   4.08320804E-002     119.93  <-- SCF
      9  -3.92925164E+003  1.75175002E+000  -3.43610452E-005     134.51  <-- SCF
     10  -3.92925226E+003  1.76415423E+000   1.53683687E-004     147.56  <-- SCF
     11  -3.92925236E+003  1.76952063E+000   2.52673589E-005     160.94  <-- SCF
     12  -3.92925237E+003  1.76905006E+000   4.01808362E-006     174.29  <-- SCF
     13  -3.92925237E+003  1.76916612E+000   7.52837291E-008     185.95  <-- SCF
     14  -3.92925237E+003  1.76924256E+000   1.51635902E-007     196.06  <-- SCF
     15  -3.92925237E+003  1.76925866E+000   4.27918959E-009     205.47  <-- SCF
     16  -3.92925237E+003  1.76926548E+000   9.49921312E-010     214.83  <-- SCF
------------------------------------------------------------------------ <-- SCF
 
Final energy, E             =  -3929.252327426     eV
Final free energy (E-TS)    =  -3929.252373600     eV
(energies not corrected for finite basis set)
 
NB est. 0K energy (E-0.5TS)      =  -3929.252350513     eV
 
Calculating total energy with cut-off of  895.000 eV.
------------------------------------------------------------------------ <-- SCF
SCF loop      Energy           Fermi           Energy gain       Timer   <-- SCF
                               energy          per atom          (sec)   <-- SCF
------------------------------------------------------------------------ <-- SCF
Initial  -3.92925233E+003  0.00000000E+000                       220.86  <-- SCF
      1  -3.92925238E+003  1.76927358E+000   1.25536204E-005     232.35  <-- SCF
      2  -3.92925238E+003  1.76927358E+000   5.43309360E-011     241.74  <-- SCF
      3  -3.92925238E+003  1.76927065E+000   3.94044297E-010     250.87  <-- SCF
      4  -3.92925238E+003  1.76926991E+000   3.01623702E-011     260.33  <-- SCF
------------------------------------------------------------------------ <-- SCF
 
Final energy, E             =  -3929.252331453     eV
Final free energy (E-TS)    =  -3929.252377627     eV
(energies not corrected for finite basis set)
 
NB est. 0K energy (E-0.5TS)      =  -3929.252354540     eV
 
Calculating total energy with cut-off of  900.000 eV.
------------------------------------------------------------------------ <-- SCF
SCF loop      Energy           Fermi           Energy gain       Timer   <-- SCF
                               energy          per atom          (sec)   <-- SCF
------------------------------------------------------------------------ <-- SCF
Initial  -3.92925233E+003  0.00000000E+000                       265.73  <-- SCF
      1  -3.92925238E+003  1.76926955E+000   1.23517125E-005     277.74  <-- SCF
      2  -3.92925238E+003  1.76926955E+000   1.35343969E-011     287.22  <-- SCF
      3  -3.92925238E+003  1.76926956E+000   3.10517734E-010     296.53  <-- SCF
      4  -3.92925238E+003  1.76926926E+000   2.26217776E-011     305.80  <-- SCF
------------------------------------------------------------------------ <-- SCF
 
Final energy, E             =  -3929.252334672     eV
Final free energy (E-TS)    =  -3929.252380845     eV
(energies not corrected for finite basis set)
 
NB est. 0K energy (E-0.5TS)      =  -3929.252357759     eV
 
 For future reference: finite basis dEtot/dlog(Ecut) =      -0.000648eV
 Total energy corrected for finite basis set =   -3929.252381 eV
 
 ************************** Forces **************************
 *                                                          *
 *               Cartesian components (eV/A)                *
 * -------------------------------------------------------- *
 *                         x            y            z      *
 *                                                          *
 * P               1     -0.00070     -0.00041     -0.03706 *
 * P               2      0.00071      0.00041     -0.03706 *
 * In              1     -0.00076     -0.00044      0.03706 *
 * In              2      0.00076      0.00044      0.03706 *
 *                                                          *
 ************************************************************
 
 ***************** Stress Tensor *****************
 *                                               *
 *          Cartesian components (GPa)           *
 * --------------------------------------------- *
 *             x             y             z     *
 *                                               *
 *  x      8.349482      0.003287     -0.000002  *
 *  y      0.003287      8.345684      0.000000  *
 *  z     -0.000002      0.000000      8.397255  *
 *                                               *
 *  Pressure:   -8.3641                          *
 *                                               *
 *************************************************
 
 Pseudo atomic calculation performed for P 3s2 3p3
 
 Converged in 23 iterations to a total energy of -208.0292 eV
 
 Pseudo atomic calculation performed for In 4d10 5s2 5p1
 
 Converged in 42 iterations to a total energy of -1747.4504 eV
Charge spilling parameter for spin component 1 = 0.14%
 
            Orbital Populations       
     Ion    Atom   Orbital             Charge
  -------------------------------------------
      P     1      S                    1.790
      P     1      Px                   1.279
      P     1      Py                   1.280
      P     1      Pz                   1.276
      P     2      S                    1.790
      P     2      Px                   1.279
      P     2      Py                   1.280
      P     2      Pz                   1.276
     In     1      Dzz                  1.999
     In     1      Dzy                  1.999
     In     1      Dzx                  1.999
     In     1      Dxx-yy               1.999
     In     1      Dxy                  1.999
     In     1      S                    1.422
     In     1      Px                   0.447
     In     1      Py                   0.446
     In     1      Pz                   0.446
     In     1      S                   -0.381
     In     2      Dzz                  1.999
     In     2      Dzy                  1.999
     In     2      Dzx                  1.999
     In     2      Dxx-yy               1.999
     In     2      Dxy                  1.999
     In     2      S                    1.422
     In     2      Px                   0.447
     In     2      Py                   0.446
     In     2      Pz                   0.446
     In     2      S                   -0.381
  -------------------------------------------
                           Total:      36.000
  -------------------------------------------
 
     Atomic Populations (Mulliken)
     -----------------------------
Species          Ion     s      p      d      f     Total  Charge (e)
=====================================================================
  P               1     1.79   3.84   0.00   0.00   5.63    -0.63
  P               2     1.79   3.84   0.00   0.00   5.63    -0.63
  In              1     1.04   1.34   9.99   0.00  12.37     0.63
  In              2     1.04   1.34   9.99   0.00  12.37     0.63
=====================================================================
 
                 Bond                   Population      Length (A)
======================================================================
               P 1 -- In 2                   1.71        2.72419
               P 2 -- In 1                   1.71        2.72419
               P 2 -- In 2                   0.33        2.73253
               P 1 -- In 1                   0.33        2.73253
======================================================================
 
 
 A BibTeX formatted list of references used in this run has been written to 
 WZ_EOS_1.067.bib
 
Initialisation time =     16.24 s
Calculation time    =    330.34 s
Finalisation time   =      0.19 s
Total time          =    346.76 s
Peak Memory Use     = 1624416 kB
  
Overall parallel efficiency rating: Excellent (94%)                             
  
Data was distributed by:-
k-point (32-way); efficiency rating: Excellent (95%)                            
  
Parallel notes:
1) Calculation only took 346.6 s, so efficiency estimates may be inaccurate.    
