 +-------------------------------------------------+
 |                                                 |
 |      CCC   AA    SSS  TTTTT  EEEEE  PPPP        |
 |     C     A  A  S       T    E      P   P       |
 |     C     AAAA   SS     T    EEE    PPPP        |
 |     C     A  A     S    T    E      P           |
 |      CCC  A  A  SSS     T    EEEEE  P           |
 |                                                 |
 +-------------------------------------------------+
 |                                                 |
 | Welcome to Academic Release CASTEP version 24.1 |
 | Ab Initio Total Energy Program                  |
 |                                                 |
 | Authors:                                        |
 | M. Segall, M. Probert, C. Pickard, P. Hasnip,   |
 | S. Clark, K. Refson, J. R. Yates,               |
 | A. Bartok-Partay, M. Payne                      |
 |                                                 |
 | Contributors:                                   |
 | P. Lindan, P. Haynes, J. White, V. Milman,      |
 | N. Govind, M. Gibson, P. Tulip, V. Cocula,      |
 | B. Montanari, D. Quigley, M. Glover,            |
 | L. Bernasconi, A. Perlov, M. Plummer,           |
 | E. McNellis, J. Meyer, J. Gale, D. Jochym       |
 | J. Aarons, B. Walker, R. Gillen, D. Jones       |
 | T. Green, I. J. Bush, C. J. Armstrong,          |
 | E. J. Higgins, E. L. Brown, M. S. McFly,        |
 | J. Wilkins, B-C. Shih, P. J. P. Byrne,          |
 | R. J. Maurer, J. C. Womack, J. Dziedzic,        |
 | L. LeBlanc, T. K. Stenczel, J. Kermode,         |
 | S. Sturniolo, B. Shi, B. Durham, M. Evans,      |
 | M. J. Smith, A. Tamerus, Z. Hawkhead,           |
 | V. Ravindran, T. Hollins, S. A. Joyce,          |
 | R. T. Strong, A. M. Reilly, S. J. Donaldson     |
 |                                                 |
 | Copyright (c) 2000 - 2023                       |
 |                                                 |
 |     Distributed under license from Cambridge    |
 |     Enterprise for academic use only.           |
 |                                                 |
 | Please cite                                     |
 |                                                 |
 |     "First principles methods using CASTEP"     |
 |                                                 |
 |         Zeitschrift fuer Kristallographie       |
 |           220(5-6) pp. 567-570 (2005)           |
 |                                                 |
 | S. J. Clark, M. D. Segall, C. J. Pickard,       |
 | P. J. Hasnip, M. J. Probert, K. Refson,         |
 | M. C. Payne                                     |
 |                                                 |
 |       in all publications arising from          |
 |              your use of CASTEP                 |
 |                                                 |
 +-------------------------------------------------+
 |                                                 |
 |              http://www.castep.org              |
 |                                                 |
 +-------------------------------------------------+



 Compiled for  GNU 11.2.0 on 04-04-2024 18:39:17
 from code version 6355fd106 Castep241_branch Thu Mar 7 17:56:19 2024 +0000
 Compiler: GNU Fortran 11.2.0; Optimisation: FAST
 Comms   : MPI VERSION : CRAY MPICH version 8.1.23.14 (ANL base 3.4a2)
 MATHLIBS: default (LAPACK version 3.10.1)
 FFT Lib : fftw3 version commercial-fftw-3.3.10-sse2-avx-avx2-avx2_128
 Fundamental constants values: CODATA 2018

 Run started: Mon, 24 Mar 2025 00:33:29 +0000

 Atomic calculation performed for P: 1s2 2s2 2p6 3s2 3p3

 Converged in 47 iterations to an ae energy of -9309.074 eV

   ============================================================                
   | Pseudopotential Report - Date of generation 24-03-2025   |                
   ------------------------------------------------------------                
   | Element: P Ionic charge:  5.00 Level of theory: RSCAN    |                
   | Atomic Solver: Koelling-Harmon                           |                
   |                                                          |                
   |               Reference Electronic Structure             |                
   |         Orbital         Occupation         Energy        |                
   |            3s              2.000           -0.535        |                
   |            3p              3.000           -0.209        |                
   |                                                          |                
   |                 Pseudopotential Definition               |                
   |        Beta     l      e      Rc     scheme   norm       |                
   |          1      0   -0.535   1.807     qc      0         |                
   |          2      0    0.250   1.807     qc      0         |                
   |          3      1   -0.209   1.807     qc      0         |                
   |          4      1    0.250   1.807     qc      0         |                
   |          5      2    0.000   1.807     qc      0         |                
   |          6      2    0.250   1.807     qc      0         |                
   |         loc     3    0.000   1.807     pn      0         |                
   |                                                          |                
   | Augmentation charge Rinner = 1.263                       |                
   | Partial core correction Rc = 1.263                       |                
   ------------------------------------------------------------                
   | "3|1.8|4|4|5|30:31:32"                                   |                
   ------------------------------------------------------------                
   |      Author: Chris J. Pickard, Cambridge University      |                
   ============================================================                
 Warning: otfg_output_psp cannot write out meta-GGA pseudopotentials presently.

 Atomic calculation performed for In:
 1s2 2s2 2p6 3s2 3p6 3d10 4s2 4p6 4d10 5s2 5p1

 Converged in 84 iterations to an ae energy of -160093.328 eV

   ============================================================                
   | Pseudopotential Report - Date of generation 24-03-2025   |                
   ------------------------------------------------------------                
   | Element: In Ionic charge: 13.00 Level of theory: RSCAN   |                
   | Atomic Solver: Koelling-Harmon                           |                
   |                                                          |                
   |               Reference Electronic Structure             |                
   |         Orbital         Occupation         Energy        |                
   |            4d             10.000           -0.711        |                
   |            5s              2.000           -0.313        |                
   |            5p              1.000           -0.095        |                
   |                                                          |                
   |                 Pseudopotential Definition               |                
   |        Beta     l      e      Rc     scheme   norm       |                
   |          1      0   -0.313   2.501     qc      0         |                
   |          2      0    0.250   2.501     qc      0         |                
   |          3      1   -0.095   2.501     qc      0         |                
   |          4      1    0.250   2.501     qc      0         |                
   |          5      2   -0.711   2.207     qc      0         |                
   |          6      2    0.250   2.207     qc      0         |                
   |         loc     3    0.000   2.501     pn      0         |                
   |                                                          |                
   | Augmentation charge Rinner = 1.504                       |                
   | Partial core correction Rc = 1.504                       |                
   ------------------------------------------------------------                
   | "3|2.5|2.5|1.5|7|8|9|50:51:42U2.2U2.2"                   |                
   ------------------------------------------------------------                
   |      Author: Chris J. Pickard, Cambridge University      |                
   ============================================================                
 Warning: otfg_output_psp cannot write out meta-GGA pseudopotentials presently.

 Pseudo atomic calculation performed for P 3s2 3p3

 Converged in 23 iterations to a total energy of -208.0292 eV

 Pseudo atomic calculation performed for In 4d10 5s2 5p1

 Converged in 42 iterations to a total energy of -1747.4501 eV
 Calculation parallelised over 84 processes.
 Data is distributed by k-point(84-way)
 Each process may use up to 16 threads.

 ************************************ Title ************************************
 

 ***************************** General Parameters ******************************
  
 output verbosity                               : normal  (1)
 write checkpoint data to                       : StackingFaultStructs_001_110_7.check
 type of calculation                            : geometry optimization
 stress calculation                             : off
 density difference calculation                 : off
 electron localisation func (ELF) calculation   : off
 Hirshfeld analysis                             : on
 polarisation (Berry phase) analysis            : off
 molecular orbital projected DOS                : off
 deltaSCF calculation                           : off
 unlimited duration calculation
 timing information                             : on
 memory usage estimate                          : on
 write extra output files                       : on
 write final potential to formatted file        : off
 write final density to formatted file          : off
 write BibTeX reference list                    : on
 write OTFG pseudopotential files               : on
 write electrostatic potential file             : on
 write bands file                               : on
 checkpoint writing                             : off
  
 output         length unit                     : A
 output           mass unit                     : amu
 output           time unit                     : ps
 output         charge unit                     : e
 output           spin unit                     : hbar/2
 output         energy unit                     : eV
 output          force unit                     : eV/A
 output       velocity unit                     : A/ps
 output       pressure unit                     : GPa
 output     inv_length unit                     : 1/A
 output      frequency unit                     : cm-1
 output force constant unit                     : eV/A**2
 output         volume unit                     : A**3
 output   IR intensity unit                     : (D/A)**2/amu
 output         dipole unit                     : D
 output         efield unit                     : eV/A/e
 output        entropy unit                     : J/mol/K
 output    efield chi2 unit                     : pm/V
  
 wavefunctions paging                           : none
 random number generator seed                   :    3329923
 data distribution                              : optimal for this architecture
 optimization strategy                          : balance speed and memory

 *********************** Exchange-Correlation Parameters ***********************
  
 using functional                               : RSCAN
 relativistic treatment                         : Koelling-Harmon
 DFT+D: Semi-empirical dispersion correction    : off

 ************************* Pseudopotential Parameters **************************
  
 pseudopotential representation                 : reciprocal space
 <beta|phi> representation                      : reciprocal space
 spin-orbit coupling                            : off

 **************************** Basis Set Parameters *****************************
  
 plane wave basis set cut-off                   :   900.0000   eV
 size of standard grid                          :     2.0000
 size of   fine   gmax                          :    30.7390   1/A
 finite basis set correction                    : none

 **************************** Electronic Parameters ****************************
  
 number of  electrons                           :  216.0    
 net charge of system                           :  0.000    
 treating system as non-spin-polarized
 number of bands                                :        130

 ********************* Electronic Minimization Parameters **********************
  
 Method: Treating system as metallic with density mixing treatment of electrons,
         and number of  SD  steps               :          1
         and number of  CG  steps               :          4
  
 total energy / atom convergence tol.           : 0.1000E-07   eV
 eigen-energy convergence tolerance             : 0.2222E-08   eV
 max force / atom convergence tol.              : ignored
 convergence tolerance window                   :          3   cycles
 max. number of SCF cycles                      :         50
 number of fixed-spin iterations                :         10
 smearing scheme                                : Gaussian
 smearing width                                 : 0.2000       eV
 Fermi energy convergence tolerance             : 0.2721E-13   eV
 periodic dipole correction                     : NONE

 ************************** Density Mixing Parameters **************************
  
 density-mixing scheme                          : Pulay
 max. length of mixing history                  :         15
 charge density mixing amplitude                : 0.5000    
 cut-off energy for mixing                      :  900.0       eV

 *********************** Population Analysis Parameters ************************
  
 Population analysis with cutoff                :  3.000       A
 Population analysis output                     : summary and pdos components

 ********************** Geometry Optimization Parameters ***********************
  
 optimization method                            : LBFGS
 max. no. of LBFGS updates                      : unbounded
 preconditioned LBFGS is activated
 preconditioner type                            : EXP
     stabilization constant                     :     0.1000
     parameter A                                :     3.0000
     nearest neighbor distance                  : automatic
     cut-off distance                           : automatic
     parameter mu                               : automatic
 variable cell method                           : fixed basis quality
 max. number of steps                           :         30
 estimated bulk modulus                         :  500.0       GPa
 estimated <frequency>                          :  1668.       cm-1
 geom line minimiser                            : on
 with line minimiser tolerance                  :     0.4000
 total energy convergence tolerance             : 0.2000E-04   eV/atom
        max ionic |force| tolerance             : 0.1000E-02   eV/A
 max ionic |displacement| tolerance             : 0.1000E-02   A
   max |stress component| tolerance             : 0.1000       GPa
 convergence tolerance window                   :          2   steps
 backup results every                           :          5   steps
 write geom trajectory file                     : on

 *******************************************************************************
  

                           -------------------------------
                                      Unit Cell
                           -------------------------------
        Real Lattice(A)                      Reciprocal Lattice(1/A)
     4.1725270     0.0000000     0.0000000        1.505846531   0.000000000   0.000000000
     0.0000000     4.1725270     0.0000000        0.000000000   1.505846531  -0.155282503
     0.0000000     3.6509610    35.4050640        0.000000000   0.000000000   0.177465724

                       Lattice parameters(A)       Cell Angles
                    a =      4.172527          alpha =   84.112484
                    b =      4.172527          beta  =   90.000000
                    c =     35.592809          gamma =   90.000000

                       Current cell volume =           616.401512       A**3
                                   density =             2.838249   AMU/A**3
                                           =             4.713024     g/cm^3

                           -------------------------------
                                     Cell Contents
                           -------------------------------
                         Total number of ions in cell =   24
                      Total number of species in cell =    2
                        Max number of any one species =   12

            xxxxxxxxxxxxxxxxxxxxxxxxxxxxxxxxxxxxxxxxxxxxxxxxxxxxxxxxxxxx
            x  Element    Atom        Fractional coordinates of atoms  x
            x            Number           u          v          w      x
            x----------------------------------------------------------x
            x  P            1         0.500000  -0.401043   0.458335   x 
            x  P            2         0.000000   0.317727   0.208312   x 
            x  P            3         0.000000   0.171871   0.375005   x 
            x  P            4         0.000000  -0.265675   0.875057   x 
            x  P            5         0.500000  -0.546858   0.624981   x 
            x  P            6         0.000000   0.026050   0.541657   x 
            x  P            7         0.500000  -0.255205   0.291663   x 
            x  P            8         0.500000  -0.692692   0.791648   x 
            x  P            9         0.000000  -0.119780   0.708320   x 
            x  P           10         0.000000   0.463644   0.041550   x 
            x  P           11         0.500000  -0.839306   0.959207   x 
            x  P           12         0.500000  -0.109342   0.124963   x 
            x  In           1         0.500000   0.135413   0.416671   x 
            x  In           2         0.000000  -0.729156   0.833321   x 
            x  In           3         0.500000  -0.156237   0.749985   x 
            x  In           4         0.000000  -0.583315   0.666645   x 
            x  In           5         0.500000  -0.010403   0.583318   x 
            x  In           6         0.000000  -0.437497   0.499997   x 
            x  In           7         0.000000  -0.291667   0.333334   x 
            x  In           8         0.500000  -0.302165   0.916760   x 
            x  In           9         0.000000  -0.145796   0.166624   x 
            x  In          10         0.500000   0.427163   0.083242   x 
            x  In          11         0.000000   0.000504  -0.000576   x 
            x  In          12         0.500000   0.281265   0.249983   x 
            xxxxxxxxxxxxxxxxxxxxxxxxxxxxxxxxxxxxxxxxxxxxxxxxxxxxxxxxxxxx


                         No user defined ionic velocities

                           -------------------------------
                                   Details of Species
                           -------------------------------

                               Mass of species in AMU
                                    P   30.9737600
                                    In  114.8180000

                          Electric Quadrupole Moment (Barn)
                                    P    1.0000000 No Isotope Defined
                                    In    0.7700000 Isotope115

                          Files used for pseudopotentials:
                                    P 3|1.8|4|4|5|30:31:32
                                    In 3|2.5|2.5|1.5|7|8|9|50:51:42U2.2U2.2

                           -------------------------------
                              k-Points For BZ Sampling
                           -------------------------------
                       MP grid size for SCF calculation is  8 10  2
                            with an offset of   0.062  0.050  0.250
                       Number of kpoints used =            84

                           -------------------------------
                               Symmetry and Constraints
                           -------------------------------

                      Maximum deviation from symmetry =  0.00000         ANG

                      Number of symmetry operations   =           1
                      Number of ionic constraints     =          48
                      Point group of crystal =     1: C1, 1, 1
                      Space group of crystal =     6: Pm, P -2y

             Set iprint > 1 for details on symmetry rotations/translations

                         Centre of mass is NOT constrained
             Set iprint > 1 for details of linear ionic constraints

                         Number of cell constraints= 6
                         Cell constraints are:  0 0 0 0 0 0

                         External pressure/stress (GPa)
                          0.00000   0.00000   0.00000
                                    0.00000   0.00000
                                              0.00000
 
+---------------- MEMORY AND SCRATCH DISK ESTIMATES PER PROCESS --------------+
|                                                     Memory          Disk    |
| Baseline code, static data and system overhead      386.0 MB         0.0 MB |
| BLAS internal memory storage                          0.0 MB         0.0 MB |
| Model and support data                             4594.4 MB         0.0 MB |
| Electronic energy minimisation requirements         524.9 MB         0.0 MB |
| Force calculation requirements                      105.7 MB         0.0 MB |
|                                               ----------------------------- |
| Approx. total storage required per process         5505.3 MB         0.0 MB |
|                                                                             |
| Requirements will fluctuate during execution and may exceed these estimates |
+-----------------------------------------------------------------------------+
Calculating approximate eigenstates for fixed initial Hamiltonian
Cut-off for approx. calculation is   89.988 eV
Improving approx. states at cut-off of  450.000 eV
Resetting cut-off to  900.000 eV
Calculating total energy with cut-off of  900.000 eV.
------------------------------------------------------------------------ <-- SCF
SCF loop      Energy           Fermi           Energy gain       Timer   <-- SCF
                               energy          per atom          (sec)   <-- SCF
------------------------------------------------------------------------ <-- SCF
Initial  -2.36437143E+004  0.00000000E+000                        81.96  <-- SCF
      1  -2.35519490E+004  2.61824561E+000  -3.82355521E+000     124.78  <-- SCF
      2  -2.35520310E+004  2.58418783E+000   3.41824175E-003     155.58  <-- SCF
      3  -2.35769909E+004  2.89284244E+000   1.03999451E+000     189.51  <-- SCF
      4  -2.35814153E+004  2.97026700E+000   1.84352030E-001     235.31  <-- SCF
      5  -2.35792584E+004  3.32327181E+000  -8.98736117E-002     269.39  <-- SCF
      6  -2.35790929E+004  3.37846254E+000  -6.89229755E-003     306.43  <-- SCF
      7  -2.35790833E+004  3.42574310E+000  -4.03065786E-004     345.68  <-- SCF
      8  -2.35795837E+004  3.46581393E+000   2.08514971E-002     382.29  <-- SCF
      9  -2.35796257E+004  3.40906982E+000   1.74844414E-003     418.80  <-- SCF
     10  -2.35796255E+004  3.43009958E+000  -5.79494180E-006     456.38  <-- SCF
     11  -2.35796252E+004  3.43199727E+000  -1.52750674E-005     496.38  <-- SCF
     12  -2.35796256E+004  3.42992854E+000   1.73264893E-005     533.90  <-- SCF
     13  -2.35796256E+004  3.42987493E+000   6.31885289E-007     569.46  <-- SCF
     14  -2.35796256E+004  3.42971793E+000  -3.59615888E-007     603.60  <-- SCF
     15  -2.35796256E+004  3.42992311E+000  -4.52296345E-008     637.48  <-- SCF
     16  -2.35796256E+004  3.43007116E+000   1.06034782E-007     670.05  <-- SCF
     17  -2.35796256E+004  3.43003711E+000   2.51061775E-008     699.17  <-- SCF
     18  -2.35796256E+004  3.43003538E+000  -1.92214217E-009     727.04  <-- SCF
     19  -2.35796256E+004  3.42999560E+000   1.96957701E-010     754.16  <-- SCF
------------------------------------------------------------------------ <-- SCF
 
Final energy, E             =  -23579.62558121     eV
Final free energy (E-TS)    =  -23579.62559342     eV
(energies not corrected for finite basis set)
 
NB est. 0K energy (E-0.5TS)      =  -23579.62558732     eV
 
 
+---------------- MEMORY AND SCRATCH DISK ESTIMATES PER PROCESS --------------+
|                                                     Memory          Disk    |
| Model and support data                             2664.4 MB         0.0 MB |
| Electronic energy minimisation requirements         524.9 MB         0.0 MB |
| Geometry minimisation requirements                  612.4 MB         0.0 MB |
|                                               ----------------------------- |
| Approx. total storage required per process         3801.7 MB         0.0 MB |
|                                                                             |
| Requirements will fluctuate during execution and may exceed these estimates |
+-----------------------------------------------------------------------------+
 

 ******************************** Constrained Forces ********************************
 *                                                                                  *
 *                           Cartesian components (eV/A)                            *
 * -------------------------------------------------------------------------------- *
 *                         x                    y                    z              *
 *                                                                                  *
 * P               1      0.00000(cons'd)     -0.00000(cons'd)      0.00378         *
 * P               2      0.00000(cons'd)      0.00000(cons'd)      0.00089         *
 * P               3      0.00000(cons'd)     -0.00000(cons'd)      0.00042         *
 * P               4      0.00000(cons'd)      0.00000(cons'd)     -0.00684         *
 * P               5      0.00000(cons'd)      0.00000(cons'd)      0.00847         *
 * P               6      0.00000(cons'd)      0.00000(cons'd)      0.00179         *
 * P               7     -0.00000(cons'd)     -0.00000(cons'd)      0.00724         *
 * P               8      0.00000(cons'd)      0.00000(cons'd)      0.00744         *
 * P               9      0.00000(cons'd)      0.00000(cons'd)      0.00139         *
 * P              10      0.00000(cons'd)     -0.00000(cons'd)     -0.01783         *
 * P              11     -0.00000(cons'd)      0.00000(cons'd)     -0.02156         *
 * P              12      0.00000(cons'd)     -0.00000(cons'd)     -0.00481         *
 * In              1      0.00000(cons'd)      0.00000(cons'd)     -0.00480         *
 * In              2      0.00000(cons'd)      0.00000(cons'd)      0.01154         *
 * In              3      0.00000(cons'd)      0.00000(cons'd)     -0.00499         *
 * In              4      0.00000(cons'd)      0.00000(cons'd)     -0.00207         *
 * In              5      0.00000(cons'd)      0.00000(cons'd)     -0.00345         *
 * In              6      0.00000(cons'd)      0.00000(cons'd)     -0.00437         *
 * In              7      0.00000(cons'd)      0.00000(cons'd)     -0.00439         *
 * In              8      0.00000(cons'd)      0.00000(cons'd)      0.01347         *
 * In              9      0.00000(cons'd)      0.00000(cons'd)      0.00053         *
 * In             10      0.00000(cons'd)      0.00000(cons'd)      0.00246         *
 * In             11      0.00000(cons'd)      0.00000(cons'd)      0.01848         *
 * In             12      0.00000(cons'd)      0.00000(cons'd)     -0.00279         *
 *                                                                                  *
 ************************************************************************************
 EXP precond LBFGS => estimated nearest neighbor distance :  2.571       A
 EXP precond LBFGS => estimated cutoff distance :  5.142       A

 ************************************** Forces **************************************
 *                                                                                  *
 *                           Cartesian components (eV/A)                            *
 * -------------------------------------------------------------------------------- *
 *                         x                    y                    z              *
 *                                                                                  *
 * P               1      0.00000(cons'd)      0.00206(cons'd)      0.00378         *
 * P               2     -0.00000(cons'd)     -0.00219(cons'd)      0.00089         *
 * P               3     -0.00000(cons'd)      0.00590(cons'd)      0.00042         *
 * P               4     -0.00000(cons'd)     -0.15365(cons'd)     -0.00684         *
 * P               5      0.00000(cons'd)     -0.00474(cons'd)      0.00847         *
 * P               6     -0.00000(cons'd)     -0.00526(cons'd)      0.00179         *
 * P               7      0.00000(cons'd)      0.00058(cons'd)      0.00724         *
 * P               8      0.00000(cons'd)     -0.01786(cons'd)      0.00744         *
 * P               9     -0.00000(cons'd)     -0.00066(cons'd)      0.00139         *
 * P              10     -0.00000(cons'd)      0.19821(cons'd)     -0.01783         *
 * P              11      0.00000(cons'd)     -0.76852(cons'd)     -0.02156         *
 * P              12      0.00000(cons'd)      0.02464(cons'd)     -0.00481         *
 * In              1      0.00000(cons'd)     -0.00003(cons'd)     -0.00480         *
 * In              2     -0.00000(cons'd)      0.03757(cons'd)      0.01154         *
 * In              3      0.00000(cons'd)      0.00607(cons'd)     -0.00499         *
 * In              4     -0.00000(cons'd)      0.00121(cons'd)     -0.00207         *
 * In              5      0.00000(cons'd)      0.00023(cons'd)     -0.00345         *
 * In              6     -0.00000(cons'd)     -0.00007(cons'd)     -0.00437         *
 * In              7     -0.00000(cons'd)      0.00039(cons'd)     -0.00439         *
 * In              8      0.00000(cons'd)      0.20847(cons'd)      0.01347         *
 * In              9     -0.00000(cons'd)      0.01287(cons'd)      0.00053         *
 * In             10      0.00000(cons'd)      0.09342(cons'd)      0.00246         *
 * In             11     -0.00000(cons'd)      0.35921(cons'd)      0.01848         *
 * In             12      0.00000(cons'd)      0.00213(cons'd)     -0.00279         *
 *                                                                                  *
 ************************************************************************************
 doing test perturbation to get energy scale for EXP preconditioner

                           -------------------------------
                                     Cell Contents
                           -------------------------------

            xxxxxxxxxxxxxxxxxxxxxxxxxxxxxxxxxxxxxxxxxxxxxxxxxxxxxxxxxxxxxxxxx
            x  Element         Atom        Fractional coordinates of atoms  x
            x                 Number           u          v          w      x
            x---------------------------------------------------------------x
            x  P                 1         0.505185   0.603850   0.458669   x
            x  P                 2         0.000000   0.320544   0.208469   x
            x  P                 3         0.000000   0.174582   0.375282   x
            x  P                 4         0.000000   0.739968   0.875632   x
            x  P                 5         0.505185   0.457942   0.625421   x
            x  P                 6         0.000000   0.028664   0.542046   x
            x  P                 7         0.505185   0.749790   0.291880   x
            x  P                 8         0.505185   0.312026   0.792182   x
            x  P                 9         0.000000   0.885939   0.708809   x
            x  P                10         0.000000   0.466571   0.041581   x
            x  P                11         0.505185   0.165344   0.959818   x
            x  P                12         0.505185   0.895760   0.125057   x
            x  In                1         0.505185   0.138099   0.416977   x
            x  In                2         0.000000   0.275544   0.833876   x
            x  In                3         0.505185   0.849462   0.750497   x
            x  In                4         0.000000   0.421463   0.667111   x
            x  In                5         0.505185   0.995380   0.583733   x
            x  In                6         0.000000   0.567371   0.500359   x
            x  In                7         0.000000   0.713302   0.333581   x
            x  In                8         0.505185   0.703462   0.917354   x
            x  In                9         0.000000   0.859279   0.166750   x
            x  In               10         0.505185   0.430062   0.083305   x
            x  In               11         0.000000   0.004685   1.000051   x
            x  In               12         0.505185   0.284055   0.250170   x
            xxxxxxxxxxxxxxxxxxxxxxxxxxxxxxxxxxxxxxxxxxxxxxxxxxxxxxxxxxxxxxxxx


------------------------------------------------------------------------ <-- SCF
SCF loop      Energy           Fermi           Energy gain       Timer   <-- SCF
                               energy          per atom          (sec)   <-- SCF
------------------------------------------------------------------------ <-- SCF
Initial  -2.35779283E+004  0.00000000E+000                       840.32  <-- SCF
      1  -2.35794015E+004  3.43006841E+000   6.13809747E-002     879.41  <-- SCF
      2  -2.35795939E+004  3.42991683E+000   8.01683359E-003     921.34  <-- SCF
      3  -2.35795962E+004  3.42992357E+000   9.71691629E-005     958.80  <-- SCF
      4  -2.35795977E+004  3.42982771E+000   6.35658062E-005     996.80  <-- SCF
      5  -2.35795978E+004  3.42975031E+000   5.29593374E-006    1038.77  <-- SCF
      6  -2.35795979E+004  3.42970350E+000   1.69576030E-006    1075.74  <-- SCF
      7  -2.35795979E+004  3.42970965E+000   3.18937420E-008    1110.22  <-- SCF
      8  -2.35795979E+004  3.42971238E+000  -6.45768616E-008    1141.62  <-- SCF
      9  -2.35795979E+004  3.42971009E+000  -9.26465564E-008    1172.26  <-- SCF
     10  -2.35795979E+004  3.42970731E+000  -1.09600515E-007    1203.85  <-- SCF
     11  -2.35795979E+004  3.42970840E+000  -3.13424409E-008    1235.55  <-- SCF
     12  -2.35795979E+004  3.42970711E+000  -1.24895415E-008    1265.25  <-- SCF
     13  -2.35795979E+004  3.42970535E+000  -4.22015387E-009    1294.05  <-- SCF
     14  -2.35795979E+004  3.42970330E+000  -1.40706169E-009    1323.95  <-- SCF
------------------------------------------------------------------------ <-- SCF
 
Final energy, E             =  -23579.59786285     eV
Final free energy (E-TS)    =  -23579.59787489     eV
(energies not corrected for finite basis set)
 
NB est. 0K energy (E-0.5TS)      =  -23579.59786887     eV
 

 ************************************** Forces **************************************
 *                                                                                  *
 *                           Cartesian components (eV/A)                            *
 * -------------------------------------------------------------------------------- *
 *                         x                    y                    z              *
 *                                                                                  *
 * P               1     -0.17780(cons'd)     -0.07733(cons'd)     -0.00011         *
 * P               2      0.17948(cons'd)      0.07874(cons'd)     -0.00372         *
 * P               3      0.17956(cons'd)      0.08281(cons'd)     -0.00493         *
 * P               4      0.17834(cons'd)     -0.19139(cons'd)     -0.00608         *
 * P               5     -0.17933(cons'd)      0.02781(cons'd)      0.00170         *
 * P               6      0.17968(cons'd)      0.08352(cons'd)      0.00189         *
 * P               7     -0.17801(cons'd)     -0.07202(cons'd)     -0.00289         *
 * P               8     -0.17805(cons'd)      0.01137(cons'd)      0.00153         *
 * P               9      0.17968(cons'd)     -0.03408(cons'd)     -0.00409         *
 * P              10      0.18052(cons'd)      0.26688(cons'd)      0.10172         *
 * P              11     -0.15765(cons'd)     -0.75607(cons'd)     -0.04489         *
 * P              12     -0.17683(cons'd)     -0.05521(cons'd)     -0.01094         *
 * In              1     -0.15066(cons'd)      0.06434(cons'd)      0.00032         *
 * In              2      0.14864(cons'd)      0.06626(cons'd)      0.01709         *
 * In              3     -0.15079(cons'd)     -0.02156(cons'd)      0.00070         *
 * In              4      0.14893(cons'd)      0.02682(cons'd)      0.00355         *
 * In              5     -0.15076(cons'd)     -0.03521(cons'd)      0.00203         *
 * In              6      0.14892(cons'd)     -0.06676(cons'd)      0.00064         *
 * In              7      0.14873(cons'd)     -0.06371(cons'd)      0.00059         *
 * In              8     -0.15113(cons'd)      0.18790(cons'd)      0.01744         *
 * In              9      0.14877(cons'd)     -0.05070(cons'd)      0.00516         *
 * In             10     -0.15095(cons'd)      0.15853(cons'd)      0.02514         *
 * In             11      0.13126(cons'd)      0.30207(cons'd)     -0.10413         *
 * In             12     -0.15055(cons'd)      0.06700(cons'd)      0.00228         *
 *                                                                                  *
 ************************************************************************************
 EXP precond LBFGS => estimated parameter mu :  4.286       eV/A**2
 LBFGS: finished iteration     0 with enthalpy= -2.35796256E+004 eV
  
 +-----------+-----------------+-----------------+------------+-----+ <-- LBFGS
 | Parameter |      value      |    tolerance    |    units   | OK? | <-- LBFGS
 +-----------+-----------------+-----------------+------------+-----+ <-- LBFGS
 |  dE/ion   |   0.000000E+000 |   2.000000E-005 |         eV | No  | <-- LBFGS
 |  |F|max   |   7.736343E-001 |   1.000000E-003 |       eV/A | No  | <-- LBFGS
 |  |dR|max  |   7.651107E-015 |   1.000000E-003 |          A | No  | <-- LBFGS
 +-----------+-----------------+-----------------+------------+-----+ <-- LBFGS
  

================================================================================
 Starting LBFGS iteration          1 ...
================================================================================
  
 +------------+-------------+-------------+-----------------+ <-- min LBFGS
 |    Step    |   lambda    |   F.delta'  |    enthalpy     | <-- min LBFGS
 +------------+-------------+-------------+-----------------+ <-- min LBFGS
 |  previous  |    0.000000 |    0.023308 |   -23579.625593 | <-- min LBFGS
 +------------+-------------+-------------+-----------------+ <-- min LBFGS
  

--------------------------------------------------------------------------------
 LBFGS: starting iteration         1 with trial guess (lambda=  1.000000)
--------------------------------------------------------------------------------

                           -------------------------------
                                     Cell Contents
                           -------------------------------

            xxxxxxxxxxxxxxxxxxxxxxxxxxxxxxxxxxxxxxxxxxxxxxxxxxxxxxxxxxxxxxxxx
            x  Element         Atom        Fractional coordinates of atoms  x
            x                 Number           u          v          w      x
            x---------------------------------------------------------------x
            x  P                 1         0.500000  -0.401040   0.458331   x
            x  P                 2         0.000000   0.317750   0.208286   x
            x  P                 3         0.000000   0.171887   0.374986   x
            x  P                 4         0.000000  -0.265696   0.875081   x
            x  P                 5         0.500000  -0.546897   0.625025   x
            x  P                 6         0.000000   0.026041   0.541667   x
            x  P                 7         0.500000  -0.255200   0.291658   x
            x  P                 8         0.500000  -0.692751   0.791715   x
            x  P                 9         0.000000  -0.119815   0.708360   x
            x  P                10         0.000000   0.463703   0.041482   x
            x  P                11         0.500000  -0.839266   0.959161   x
            x  P                12         0.500000  -0.109299   0.124913   x
            x  In                1         0.500000   0.135433   0.416648   x
            x  In                2         0.000000  -0.729217   0.833391   x
            x  In                3         0.500000  -0.156270   0.750022   x
            x  In                4         0.000000  -0.583344   0.666679   x
            x  In                5         0.500000  -0.010416   0.583333   x
            x  In                6         0.000000  -0.437490   0.499988   x
            x  In                7         0.000000  -0.291646   0.333310   x
            x  In                8         0.500000  -0.302192   0.916790   x
            x  In                9         0.000000  -0.145766   0.166590   x
            x  In               10         0.500000   0.427201   0.083198   x
            x  In               11         0.000000   0.000502  -0.000574   x
            x  In               12         0.500000   0.281286   0.249958   x
            xxxxxxxxxxxxxxxxxxxxxxxxxxxxxxxxxxxxxxxxxxxxxxxxxxxxxxxxxxxxxxxxx


------------------------------------------------------------------------ <-- SCF
SCF loop      Energy           Fermi           Energy gain       Timer   <-- SCF
                               energy          per atom          (sec)   <-- SCF
------------------------------------------------------------------------ <-- SCF
Initial  -2.35778744E+004  0.00000000E+000                      1372.41  <-- SCF
      1  -2.35794322E+004  3.42950665E+000   6.49104792E-002    1411.61  <-- SCF
      2  -2.35796216E+004  3.42935984E+000   7.88855642E-003    1457.09  <-- SCF
      3  -2.35796239E+004  3.42950044E+000   9.94740263E-005    1495.61  <-- SCF
      4  -2.35796255E+004  3.42974267E+000   6.56518963E-005    1535.18  <-- SCF
      5  -2.35796256E+004  3.42977302E+000   5.10206858E-006    1579.62  <-- SCF
      6  -2.35796257E+004  3.42978037E+000   1.43638351E-006    1620.60  <-- SCF
      7  -2.35796257E+004  3.42977741E+000   9.28649113E-008    1654.61  <-- SCF
      8  -2.35796257E+004  3.42977120E+000   5.06560254E-009    1685.99  <-- SCF
      9  -2.35796257E+004  3.42976464E+000  -1.25135167E-008    1715.62  <-- SCF
     10  -2.35796257E+004  3.42974755E+000  -2.30427620E-008    1746.79  <-- SCF
     11  -2.35796257E+004  3.42973750E+000  -9.32391052E-009    1777.10  <-- SCF
     12  -2.35796257E+004  3.42972581E+000  -7.58506276E-009    1807.38  <-- SCF
     13  -2.35796257E+004  3.42972193E+000  -2.53776388E-009    1837.01  <-- SCF
     14  -2.35796257E+004  3.42972051E+000  -1.00605684E-009    1865.07  <-- SCF
------------------------------------------------------------------------ <-- SCF
 
Final energy, E             =  -23579.62566933     eV
Final free energy (E-TS)    =  -23579.62568148     eV
(energies not corrected for finite basis set)
 
NB est. 0K energy (E-0.5TS)      =  -23579.62567541     eV
 

 ******************************** Constrained Forces ********************************
 *                                                                                  *
 *                           Cartesian components (eV/A)                            *
 * -------------------------------------------------------------------------------- *
 *                         x                    y                    z              *
 *                                                                                  *
 * P               1     -0.00000(cons'd)     -0.00000(cons'd)     -0.00125         *
 * P               2      0.00000(cons'd)      0.00000(cons'd)     -0.00107         *
 * P               3      0.00000(cons'd)     -0.00000(cons'd)     -0.00148         *
 * P               4      0.00000(cons'd)      0.00000(cons'd)      0.00224         *
 * P               5     -0.00000(cons'd)      0.00000(cons'd)      0.00047         *
 * P               6      0.00000(cons'd)      0.00000(cons'd)     -0.00077         *
 * P               7      0.00000(cons'd)     -0.00000(cons'd)     -0.00074         *
 * P               8     -0.00000(cons'd)      0.00000(cons'd)      0.00189         *
 * P               9      0.00000(cons'd)      0.00000(cons'd)      0.00005         *
 * P              10      0.00000(cons'd)     -0.00000(cons'd)     -0.00134         *
 * P              11     -0.00000(cons'd)      0.00000(cons'd)     -0.00036         *
 * P              12      0.00000(cons'd)      0.00000(cons'd)     -0.00195         *
 * In              1      0.00000(cons'd)      0.00000(cons'd)      0.00001         *
 * In              2      0.00000(cons'd)      0.00000(cons'd)      0.00160         *
 * In              3      0.00000(cons'd)      0.00000(cons'd)      0.00213         *
 * In              4      0.00000(cons'd)      0.00000(cons'd)      0.00115         *
 * In              5      0.00000(cons'd)      0.00000(cons'd)      0.00105         *
 * In              6      0.00000(cons'd)      0.00000(cons'd)      0.00028         *
 * In              7      0.00000(cons'd)      0.00000(cons'd)      0.00046         *
 * In              8      0.00000(cons'd)      0.00000(cons'd)     -0.00027         *
 * In              9      0.00000(cons'd)      0.00000(cons'd)     -0.00017         *
 * In             10      0.00000(cons'd)      0.00000(cons'd)     -0.00105         *
 * In             11      0.00000(cons'd)      0.00000(cons'd)     -0.00170         *
 * In             12      0.00000(cons'd)      0.00000(cons'd)      0.00080         *
 *                                                                                  *
 ************************************************************************************
  
 +------------+-------------+-------------+-----------------+ <-- min LBFGS
 |    Step    |   lambda    |   F.delta'  |    enthalpy     | <-- min LBFGS
 +------------+-------------+-------------+-----------------+ <-- min LBFGS
 |  previous  |    0.000000 |    0.023308 |   -23579.625593 | <-- min LBFGS
 | trial step |    1.000000 |    0.003887 |   -23579.625681 | <-- min LBFGS
 +------------+-------------+-------------+-----------------+ <-- min LBFGS
  
 LBFGS: finished iteration     1 with enthalpy= -2.35796257E+004 eV
  
 +-----------+-----------------+-----------------+------------+-----+ <-- LBFGS
 | Parameter |      value      |    tolerance    |    units   | OK? | <-- LBFGS
 +-----------+-----------------+-----------------+------------+-----+ <-- LBFGS
 |  dE/ion   |   3.669057E-006 |   2.000000E-005 |         eV | Yes | <-- LBFGS
 |  |F|max   |   2.236735E-003 |   1.000000E-003 |       eV/A | No  | <-- LBFGS
 |  |dR|max  |   2.454368E-003 |   1.000000E-003 |          A | No  | <-- LBFGS
 +-----------+-----------------+-----------------+------------+-----+ <-- LBFGS
  

================================================================================
 Starting LBFGS iteration          2 ...
================================================================================
  
 +------------+-------------+-------------+-----------------+ <-- min LBFGS
 |    Step    |   lambda    |   F.delta'  |    enthalpy     | <-- min LBFGS
 +------------+-------------+-------------+-----------------+ <-- min LBFGS
 |  previous  |    0.000000 |    0.004535 |   -23579.625681 | <-- min LBFGS
 +------------+-------------+-------------+-----------------+ <-- min LBFGS
  

--------------------------------------------------------------------------------
 LBFGS: starting iteration         2 with trial guess (lambda=  1.000000)
--------------------------------------------------------------------------------

                           -------------------------------
                                     Cell Contents
                           -------------------------------

            xxxxxxxxxxxxxxxxxxxxxxxxxxxxxxxxxxxxxxxxxxxxxxxxxxxxxxxxxxxxxxxxx
            x  Element         Atom        Fractional coordinates of atoms  x
            x                 Number           u          v          w      x
            x---------------------------------------------------------------x
            x  P                 1         0.500000  -0.401031   0.458321   x
            x  P                 2         0.000000   0.317776   0.208256   x
            x  P                 3         0.000000   0.171905   0.374965   x
            x  P                 4         0.000000  -0.265722   0.875111   x
            x  P                 5         0.500000  -0.546923   0.625055   x
            x  P                 6         0.000000   0.026035   0.541674   x
            x  P                 7         0.500000  -0.255181   0.291636   x
            x  P                 8         0.500000  -0.692793   0.791764   x
            x  P                 9         0.000000  -0.119849   0.708399   x
            x  P                10         0.000000   0.463732   0.041449   x
            x  P                11         0.500000  -0.839257   0.959150   x
            x  P                12         0.500000  -0.109265   0.124874   x
            x  In                1         0.500000   0.135446   0.416633   x
            x  In                2         0.000000  -0.729255   0.833434   x
            x  In                3         0.500000  -0.156310   0.750068   x
            x  In                4         0.000000  -0.583375   0.666714   x
            x  In                5         0.500000  -0.010433   0.583352   x
            x  In                6         0.000000  -0.437489   0.499987   x
            x  In                7         0.000000  -0.291628   0.333289   x
            x  In                8         0.500000  -0.302202   0.916803   x
            x  In                9         0.000000  -0.145737   0.166557   x
            x  In               10         0.500000   0.427232   0.083163   x
            x  In               11         0.000000   0.000517  -0.000591   x
            x  In               12         0.500000   0.281307   0.249935   x
            xxxxxxxxxxxxxxxxxxxxxxxxxxxxxxxxxxxxxxxxxxxxxxxxxxxxxxxxxxxxxxxxx


------------------------------------------------------------------------ <-- SCF
SCF loop      Energy           Fermi           Energy gain       Timer   <-- SCF
                               energy          per atom          (sec)   <-- SCF
------------------------------------------------------------------------ <-- SCF
Initial  -2.35796235E+004  0.00000000E+000                      1912.37  <-- SCF
      1  -2.35796255E+004  3.42969586E+000   8.07332815E-005    1953.36  <-- SCF
      2  -2.35796257E+004  3.42969569E+000   9.14036734E-006    1997.52  <-- SCF
      3  -2.35796257E+004  3.42970886E+000   1.28967722E-007    2035.15  <-- SCF
      4  -2.35796257E+004  3.42972453E+000   8.30438373E-008    2068.55  <-- SCF
      5  -2.35796257E+004  3.42972572E+000   6.80664158E-009    2095.87  <-- SCF
      6  -2.35796257E+004  3.42972622E+000   1.81824956E-009    2122.24  <-- SCF
------------------------------------------------------------------------ <-- SCF
 
Final energy, E             =  -23579.62568546     eV
Final free energy (E-TS)    =  -23579.62569760     eV
(energies not corrected for finite basis set)
 
NB est. 0K energy (E-0.5TS)      =  -23579.62569153     eV
 

 ******************************** Constrained Forces ********************************
 *                                                                                  *
 *                           Cartesian components (eV/A)                            *
 * -------------------------------------------------------------------------------- *
 *                         x                    y                    z              *
 *                                                                                  *
 * P               1      0.00000(cons'd)     -0.00000(cons'd)     -0.00050         *
 * P               2      0.00000(cons'd)      0.00000(cons'd)     -0.00098         *
 * P               3      0.00000(cons'd)     -0.00000(cons'd)     -0.00042         *
 * P               4      0.00000(cons'd)      0.00000(cons'd)      0.00132         *
 * P               5     -0.00000(cons'd)      0.00000(cons'd)     -0.00021         *
 * P               6      0.00000(cons'd)      0.00000(cons'd)      0.00028         *
 * P               7      0.00000(cons'd)     -0.00000(cons'd)     -0.00145         *
 * P               8      0.00000(cons'd)      0.00000(cons'd)     -0.00006         *
 * P               9      0.00000(cons'd)      0.00000(cons'd)      0.00091         *
 * P              10      0.00000(cons'd)     -0.00000(cons'd)      0.00126         *
 * P              11     -0.00000(cons'd)      0.00000(cons'd)      0.00258         *
 * P              12      0.00000(cons'd)      0.00000(cons'd)     -0.00042         *
 * In              1      0.00000(cons'd)      0.00000(cons'd)      0.00056         *
 * In              2      0.00000(cons'd)      0.00000(cons'd)     -0.00128         *
 * In              3      0.00000(cons'd)      0.00000(cons'd)      0.00057         *
 * In              4      0.00000(cons'd)      0.00000(cons'd)      0.00033         *
 * In              5      0.00000(cons'd)      0.00000(cons'd)      0.00044         *
 * In              6      0.00000(cons'd)      0.00000(cons'd)      0.00053         *
 * In              7      0.00000(cons'd)      0.00000(cons'd)      0.00045         *
 * In              8      0.00000(cons'd)      0.00000(cons'd)     -0.00117         *
 * In              9      0.00000(cons'd)      0.00000(cons'd)     -0.00017         *
 * In             10      0.00000(cons'd)      0.00000(cons'd)     -0.00026         *
 * In             11      0.00000(cons'd)      0.00000(cons'd)     -0.00246         *
 * In             12      0.00000(cons'd)      0.00000(cons'd)      0.00017         *
 *                                                                                  *
 ************************************************************************************
  
 +------------+-------------+-------------+-----------------+ <-- min LBFGS
 |    Step    |   lambda    |   F.delta'  |    enthalpy     | <-- min LBFGS
 +------------+-------------+-------------+-----------------+ <-- min LBFGS
 |  previous  |    0.000000 |    0.004535 |   -23579.625681 | <-- min LBFGS
 | trial step |    1.000000 |    0.000695 |   -23579.625698 | <-- min LBFGS
 +------------+-------------+-------------+-----------------+ <-- min LBFGS
  
 LBFGS: finished iteration     2 with enthalpy= -2.35796257E+004 eV
  
 +-----------+-----------------+-----------------+------------+-----+ <-- LBFGS
 | Parameter |      value      |    tolerance    |    units   | OK? | <-- LBFGS
 +-----------+-----------------+-----------------+------------+-----+ <-- LBFGS
 |  dE/ion   |   6.717757E-007 |   2.000000E-005 |         eV | Yes | <-- LBFGS
 |  |F|max   |   2.575332E-003 |   1.000000E-003 |       eV/A | No  | <-- LBFGS
 |  |dR|max  |   1.729536E-003 |   1.000000E-003 |          A | No  | <-- LBFGS
 +-----------+-----------------+-----------------+------------+-----+ <-- LBFGS
  

================================================================================
 Starting LBFGS iteration          3 ...
================================================================================
  
 +------------+-------------+-------------+-----------------+ <-- min LBFGS
 |    Step    |   lambda    |   F.delta'  |    enthalpy     | <-- min LBFGS
 +------------+-------------+-------------+-----------------+ <-- min LBFGS
 |  previous  |    0.000000 |    0.001749 |   -23579.625698 | <-- min LBFGS
 +------------+-------------+-------------+-----------------+ <-- min LBFGS
  

--------------------------------------------------------------------------------
 LBFGS: starting iteration         3 with trial guess (lambda=  1.000000)
--------------------------------------------------------------------------------

                           -------------------------------
                                     Cell Contents
                           -------------------------------

            xxxxxxxxxxxxxxxxxxxxxxxxxxxxxxxxxxxxxxxxxxxxxxxxxxxxxxxxxxxxxxxxx
            x  Element         Atom        Fractional coordinates of atoms  x
            x                 Number           u          v          w      x
            x---------------------------------------------------------------x
            x  P                 1         0.500000  -0.401031   0.458322   x
            x  P                 2         0.000000   0.317790   0.208240   x
            x  P                 3         0.000000   0.171911   0.374958   x
            x  P                 4         0.000000  -0.265729   0.875119   x
            x  P                 5         0.500000  -0.546934   0.625067   x
            x  P                 6         0.000000   0.026028   0.541682   x
            x  P                 7         0.500000  -0.255169   0.291622   x
            x  P                 8         0.500000  -0.692803   0.791775   x
            x  P                 9         0.000000  -0.119863   0.708415   x
            x  P                10         0.000000   0.463738   0.041443   x
            x  P                11         0.500000  -0.839259   0.959153   x
            x  P                12         0.500000  -0.109253   0.124861   x
            x  In                1         0.500000   0.135448   0.416631   x
            x  In                2         0.000000  -0.729261   0.833442   x
            x  In                3         0.500000  -0.156322   0.750082   x
            x  In                4         0.000000  -0.583387   0.666728   x
            x  In                5         0.500000  -0.010443   0.583363   x
            x  In                6         0.000000  -0.437493   0.499992   x
            x  In                7         0.000000  -0.291621   0.333281   x
            x  In                8         0.500000  -0.302205   0.916805   x
            x  In                9         0.000000  -0.145725   0.166543   x
            x  In               10         0.500000   0.427241   0.083153   x
            x  In               11         0.000000   0.000523  -0.000598   x
            x  In               12         0.500000   0.281319   0.249921   x
            xxxxxxxxxxxxxxxxxxxxxxxxxxxxxxxxxxxxxxxxxxxxxxxxxxxxxxxxxxxxxxxxx


------------------------------------------------------------------------ <-- SCF
SCF loop      Energy           Fermi           Energy gain       Timer   <-- SCF
                               energy          per atom          (sec)   <-- SCF
------------------------------------------------------------------------ <-- SCF
Initial  -2.35796253E+004  0.00000000E+000                      2169.60  <-- SCF
      1  -2.35796257E+004  3.42973475E+000   1.58614133E-005    2211.42  <-- SCF
      2  -2.35796257E+004  3.42973473E+000   1.16214659E-006    2256.10  <-- SCF
      3  -2.35796257E+004  3.42974166E+000   1.44869607E-008    2283.53  <-- SCF
      4  -2.35796257E+004  3.42975193E+000   1.12960655E-008    2311.06  <-- SCF
      5  -2.35796257E+004  3.42975508E+000   1.34660805E-009    2337.42  <-- SCF
      6  -2.35796257E+004  3.42975897E+000   1.48104972E-010    2364.14  <-- SCF
------------------------------------------------------------------------ <-- SCF
 
Final energy, E             =  -23579.62568969     eV
Final free energy (E-TS)    =  -23579.62570184     eV
(energies not corrected for finite basis set)
 
NB est. 0K energy (E-0.5TS)      =  -23579.62569576     eV
 

 ******************************** Constrained Forces ********************************
 *                                                                                  *
 *                           Cartesian components (eV/A)                            *
 * -------------------------------------------------------------------------------- *
 *                         x                    y                    z              *
 *                                                                                  *
 * P               1      0.00000(cons'd)      0.00000(cons'd)     -0.00009         *
 * P               2      0.00000(cons'd)      0.00000(cons'd)     -0.00047         *
 * P               3      0.00000(cons'd)     -0.00000(cons'd)     -0.00018         *
 * P               4      0.00000(cons'd)      0.00000(cons'd)      0.00044         *
 * P               5     -0.00000(cons'd)      0.00000(cons'd)      0.00003         *
 * P               6      0.00000(cons'd)      0.00000(cons'd)      0.00016         *
 * P               7      0.00000(cons'd)     -0.00000(cons'd)     -0.00065         *
 * P               8     -0.00000(cons'd)      0.00000(cons'd)      0.00003         *
 * P               9      0.00000(cons'd)      0.00000(cons'd)      0.00047         *
 * P              10      0.00000(cons'd)     -0.00000(cons'd)      0.00050         *
 * P              11      0.00000(cons'd)      0.00000(cons'd)      0.00105         *
 * P              12      0.00000(cons'd)     -0.00000(cons'd)     -0.00001         *
 * In              1      0.00000(cons'd)      0.00000(cons'd)     -0.00000         *
 * In              2      0.00000(cons'd)      0.00000(cons'd)     -0.00002         *
 * In              3      0.00000(cons'd)      0.00000(cons'd)      0.00035         *
 * In              4      0.00000(cons'd)      0.00000(cons'd)      0.00029         *
 * In              5      0.00000(cons'd)      0.00000(cons'd)      0.00017         *
 * In              6      0.00000(cons'd)      0.00000(cons'd)      0.00005         *
 * In              7      0.00000(cons'd)      0.00000(cons'd)     -0.00001         *
 * In              8      0.00000(cons'd)      0.00000(cons'd)     -0.00034         *
 * In              9      0.00000(cons'd)      0.00000(cons'd)     -0.00035         *
 * In             10      0.00000(cons'd)      0.00000(cons'd)     -0.00057         *
 * In             11      0.00000(cons'd)      0.00000(cons'd)     -0.00072         *
 * In             12      0.00000(cons'd)      0.00000(cons'd)     -0.00012         *
 *                                                                                  *
 ************************************************************************************
  
 +------------+-------------+-------------+-----------------+ <-- min LBFGS
 |    Step    |   lambda    |   F.delta'  |    enthalpy     | <-- min LBFGS
 +------------+-------------+-------------+-----------------+ <-- min LBFGS
 |  previous  |    0.000000 |    0.001749 |   -23579.625698 | <-- min LBFGS
 | trial step |    1.000000 |    0.001127 |   -23579.625702 | <-- min LBFGS
 +------------+-------------+-------------+-----------------+ <-- min LBFGS
  

--------------------------------------------------------------------------------
 LBFGS: improving iteration         3 with line minimization (lambda=  2.812518)
--------------------------------------------------------------------------------

                           -------------------------------
                                     Cell Contents
                           -------------------------------

            xxxxxxxxxxxxxxxxxxxxxxxxxxxxxxxxxxxxxxxxxxxxxxxxxxxxxxxxxxxxxxxxx
            x  Element         Atom        Fractional coordinates of atoms  x
            x                 Number           u          v          w      x
            x---------------------------------------------------------------x
            x  P                 1         0.500000  -0.401031   0.458322   x
            x  P                 2         0.000000   0.317816   0.208210   x
            x  P                 3         0.000000   0.171922   0.374946   x
            x  P                 4         0.000000  -0.265743   0.875134   x
            x  P                 5         0.500000  -0.546953   0.625089   x
            x  P                 6         0.000000   0.026015   0.541697   x
            x  P                 7         0.500000  -0.255147   0.291596   x
            x  P                 8         0.500000  -0.692821   0.791796   x
            x  P                 9         0.000000  -0.119889   0.708444   x
            x  P                10         0.000000   0.463747   0.041431   x
            x  P                11         0.500000  -0.839264   0.959159   x
            x  P                12         0.500000  -0.109231   0.124836   x
            x  In                1         0.500000   0.135451   0.416627   x
            x  In                2         0.000000  -0.729273   0.833455   x
            x  In                3         0.500000  -0.156344   0.750108   x
            x  In                4         0.000000  -0.583410   0.666754   x
            x  In                5         0.500000  -0.010460   0.583382   x
            x  In                6         0.000000  -0.437501   0.500001   x
            x  In                7         0.000000  -0.291607   0.333265   x
            x  In                8         0.500000  -0.302209   0.916810   x
            x  In                9         0.000000  -0.145702   0.166517   x
            x  In               10         0.500000   0.427257   0.083135   x
            x  In               11         0.000000   0.000535  -0.000611   x
            x  In               12         0.500000   0.281341   0.249896   x
            xxxxxxxxxxxxxxxxxxxxxxxxxxxxxxxxxxxxxxxxxxxxxxxxxxxxxxxxxxxxxxxxx


------------------------------------------------------------------------ <-- SCF
SCF loop      Energy           Fermi           Energy gain       Timer   <-- SCF
                               energy          per atom          (sec)   <-- SCF
------------------------------------------------------------------------ <-- SCF
Initial  -2.35796246E+004  0.00000000E+000                      2409.51  <-- SCF
      1  -2.35796256E+004  3.42977654E+000   4.08424312E-005    2449.38  <-- SCF
      2  -2.35796257E+004  3.42977647E+000   3.80860264E-006    2492.51  <-- SCF
      3  -2.35796257E+004  3.42979022E+000   5.00370523E-008    2526.17  <-- SCF
      4  -2.35796257E+004  3.42981097E+000   3.23182065E-008    2556.44  <-- SCF
      5  -2.35796257E+004  3.42981797E+000   2.05465036E-009    2583.47  <-- SCF
      6  -2.35796257E+004  3.42982643E+000  -5.49754315E-010    2611.33  <-- SCF
------------------------------------------------------------------------ <-- SCF
 
Final energy, E             =  -23579.62569273     eV
Final free energy (E-TS)    =  -23579.62570489     eV
(energies not corrected for finite basis set)
 
NB est. 0K energy (E-0.5TS)      =  -23579.62569881     eV
 

 ******************************** Constrained Forces ********************************
 *                                                                                  *
 *                           Cartesian components (eV/A)                            *
 * -------------------------------------------------------------------------------- *
 *                         x                    y                    z              *
 *                                                                                  *
 * P               1     -0.00000(cons'd)      0.00000(cons'd)      0.00075         *
 * P               2      0.00000(cons'd)      0.00000(cons'd)      0.00094         *
 * P               3      0.00000(cons'd)     -0.00000(cons'd)      0.00055         *
 * P               4      0.00000(cons'd)      0.00000(cons'd)     -0.00148         *
 * P               5     -0.00000(cons'd)      0.00000(cons'd)      0.00015         *
 * P               6      0.00000(cons'd)      0.00000(cons'd)     -0.00015         *
 * P               7     -0.00000(cons'd)      0.00000(cons'd)      0.00118         *
 * P               8      0.00000(cons'd)      0.00000(cons'd)     -0.00025         *
 * P               9      0.00000(cons'd)      0.00000(cons'd)     -0.00072         *
 * P              10      0.00000(cons'd)      0.00000(cons'd)     -0.00064         *
 * P              11     -0.00000(cons'd)      0.00000(cons'd)     -0.00179         *
 * P              12     -0.00000(cons'd)      0.00000(cons'd)      0.00118         *
 * In              1      0.00000(cons'd)      0.00000(cons'd)     -0.00078         *
 * In              2      0.00000(cons'd)      0.00000(cons'd)      0.00165         *
 * In              3      0.00000(cons'd)      0.00000(cons'd)     -0.00035         *
 * In              4      0.00000(cons'd)      0.00000(cons'd)      0.00014         *
 * In              5      0.00000(cons'd)      0.00000(cons'd)     -0.00018         *
 * In              6      0.00000(cons'd)      0.00000(cons'd)     -0.00049         *
 * In              7      0.00000(cons'd)      0.00000(cons'd)     -0.00098         *
 * In              8      0.00000(cons'd)      0.00000(cons'd)      0.00113         *
 * In              9      0.00000(cons'd)      0.00000(cons'd)     -0.00064         *
 * In             10      0.00000(cons'd)     -0.00000(cons'd)     -0.00076         *
 * In             11      0.00000(cons'd)      0.00000(cons'd)      0.00251         *
 * In             12      0.00000(cons'd)      0.00000(cons'd)     -0.00095         *
 *                                                                                  *
 ************************************************************************************
  
 +------------+-------------+-------------+-----------------+ <-- min LBFGS
 |    Step    |   lambda    |   F.delta'  |    enthalpy     | <-- min LBFGS
 +------------+-------------+-------------+-----------------+ <-- min LBFGS
 |  previous  |    0.000000 |    0.001749 |   -23579.625698 | <-- min LBFGS
 | trial step |    1.000000 |    0.001127 |   -23579.625702 | <-- min LBFGS
 |  line step |    2.812518 |   -0.000944 |   -23579.625705 | <-- min LBFGS
 +------------+-------------+-------------+-----------------+ <-- min LBFGS
  
 LBFGS: finished iteration     3 with enthalpy= -2.35796257E+004 eV
  
 +-----------+-----------------+-----------------+------------+-----+ <-- LBFGS
 | Parameter |      value      |    tolerance    |    units   | OK? | <-- LBFGS
 +-----------+-----------------+-----------------+------------+-----+ <-- LBFGS
 |  dE/ion   |   3.038348E-007 |   2.000000E-005 |         eV | Yes | <-- LBFGS
 |  |F|max   |   2.514150E-003 |   1.000000E-003 |       eV/A | No  | <-- LBFGS
 |  |dR|max  |   1.614243E-003 |   1.000000E-003 |          A | No  | <-- LBFGS
 +-----------+-----------------+-----------------+------------+-----+ <-- LBFGS
  

================================================================================
 Starting LBFGS iteration          4 ...
================================================================================
  
 +------------+-------------+-------------+-----------------+ <-- min LBFGS
 |    Step    |   lambda    |   F.delta'  |    enthalpy     | <-- min LBFGS
 +------------+-------------+-------------+-----------------+ <-- min LBFGS
 |  previous  |    0.000000 |    0.001389 |   -23579.625705 | <-- min LBFGS
 +------------+-------------+-------------+-----------------+ <-- min LBFGS
  

--------------------------------------------------------------------------------
 LBFGS: starting iteration         4 with trial guess (lambda=  1.000000)
--------------------------------------------------------------------------------

                           -------------------------------
                                     Cell Contents
                           -------------------------------

            xxxxxxxxxxxxxxxxxxxxxxxxxxxxxxxxxxxxxxxxxxxxxxxxxxxxxxxxxxxxxxxxx
            x  Element         Atom        Fractional coordinates of atoms  x
            x                 Number           u          v          w      x
            x---------------------------------------------------------------x
            x  P                 1         0.500000  -0.401031   0.458321   x
            x  P                 2         0.000000   0.317805   0.208223   x
            x  P                 3         0.000000   0.171919   0.374950   x
            x  P                 4         0.000000  -0.265737   0.875128   x
            x  P                 5         0.500000  -0.546944   0.625079   x
            x  P                 6         0.000000   0.026021   0.541690   x
            x  P                 7         0.500000  -0.255155   0.291606   x
            x  P                 8         0.500000  -0.692814   0.791787   x
            x  P                 9         0.000000  -0.119877   0.708431   x
            x  P                10         0.000000   0.463742   0.041438   x
            x  P                11         0.500000  -0.839263   0.959158   x
            x  P                12         0.500000  -0.109242   0.124848   x
            x  In                1         0.500000   0.135451   0.416627   x
            x  In                2         0.000000  -0.729270   0.833451   x
            x  In                3         0.500000  -0.156335   0.750097   x
            x  In                4         0.000000  -0.583400   0.666743   x
            x  In                5         0.500000  -0.010452   0.583374   x
            x  In                6         0.000000  -0.437497   0.499996   x
            x  In                7         0.000000  -0.291611   0.333269   x
            x  In                8         0.500000  -0.302209   0.916810   x
            x  In                9         0.000000  -0.145711   0.166527   x
            x  In               10         0.500000   0.427250   0.083143   x
            x  In               11         0.000000   0.000527  -0.000602   x
            x  In               12         0.500000   0.281333   0.249905   x
            xxxxxxxxxxxxxxxxxxxxxxxxxxxxxxxxxxxxxxxxxxxxxxxxxxxxxxxxxxxxxxxxx


------------------------------------------------------------------------ <-- SCF
SCF loop      Energy           Fermi           Energy gain       Timer   <-- SCF
                               energy          per atom          (sec)   <-- SCF
------------------------------------------------------------------------ <-- SCF
Initial  -2.35796257E+004  0.00000000E+000                      2657.27  <-- SCF
      1  -2.35796257E+004  3.42982082E+000  -1.20631397E-006    2696.94  <-- SCF
      2  -2.35796257E+004  3.42982080E+000   6.72647413E-007    2741.39  <-- SCF
      3  -2.35796257E+004  3.42981652E+000   7.97781807E-009    2767.27  <-- SCF
      4  -2.35796257E+004  3.42981107E+000   6.55051923E-009    2794.24  <-- SCF
      5  -2.35796257E+004  3.42981014E+000   8.99070655E-010    2820.82  <-- SCF
------------------------------------------------------------------------ <-- SCF
 
Final energy, E             =  -23579.62569239     eV
Final free energy (E-TS)    =  -23579.62570455     eV
(energies not corrected for finite basis set)
 
NB est. 0K energy (E-0.5TS)      =  -23579.62569847     eV
 

 ******************************** Constrained Forces ********************************
 *                                                                                  *
 *                           Cartesian components (eV/A)                            *
 * -------------------------------------------------------------------------------- *
 *                         x                    y                    z              *
 *                                                                                  *
 * P               1      0.00000(cons'd)      0.00000(cons'd)      0.00014         *
 * P               2      0.00000(cons'd)      0.00000(cons'd)      0.00006         *
 * P               3      0.00000(cons'd)      0.00000(cons'd)      0.00008         *
 * P               4      0.00000(cons'd)      0.00000(cons'd)     -0.00020         *
 * P               5      0.00000(cons'd)      0.00000(cons'd)      0.00017         *
 * P               6      0.00000(cons'd)      0.00000(cons'd)      0.00009         *
 * P               7      0.00000(cons'd)      0.00000(cons'd)      0.00010         *
 * P               8     -0.00000(cons'd)      0.00000(cons'd)      0.00004         *
 * P               9      0.00000(cons'd)      0.00000(cons'd)      0.00006         *
 * P              10      0.00000(cons'd)     -0.00000(cons'd)     -0.00018         *
 * P              11      0.00000(cons'd)      0.00000(cons'd)     -0.00034         *
 * P              12     -0.00000(cons'd)     -0.00000(cons'd)      0.00001         *
 * In              1      0.00000(cons'd)      0.00000(cons'd)     -0.00026         *
 * In              2      0.00000(cons'd)      0.00000(cons'd)      0.00077         *
 * In              3      0.00000(cons'd)      0.00000(cons'd)      0.00127         *
 * In              4      0.00000(cons'd)      0.00000(cons'd)      0.00113         *
 * In              5      0.00000(cons'd)      0.00000(cons'd)      0.00083         *
 * In              6      0.00000(cons'd)      0.00000(cons'd)      0.00034         *
 * In              7      0.00000(cons'd)      0.00000(cons'd)     -0.00080         *
 * In              8      0.00000(cons'd)      0.00000(cons'd)      0.00039         *
 * In              9      0.00000(cons'd)      0.00000(cons'd)     -0.00119         *
 * In             10      0.00000(cons'd)      0.00000(cons'd)     -0.00077         *
 * In             11      0.00000(cons'd)      0.00000(cons'd)     -0.00060         *
 * In             12      0.00000(cons'd)      0.00000(cons'd)     -0.00115         *
 *                                                                                  *
 ************************************************************************************
  
 +------------+-------------+-------------+-----------------+ <-- min LBFGS
 |    Step    |   lambda    |   F.delta'  |    enthalpy     | <-- min LBFGS
 +------------+-------------+-------------+-----------------+ <-- min LBFGS
 |  previous  |    0.000000 |    0.001389 |   -23579.625705 | <-- min LBFGS
 | trial step |    1.000000 |   -0.001865 |   -23579.625705 | <-- min LBFGS
 +------------+-------------+-------------+-----------------+ <-- min LBFGS
  

--------------------------------------------------------------------------------
 LBFGS: improving iteration         4 with line minimization (lambda=  0.426930)
--------------------------------------------------------------------------------

                           -------------------------------
                                     Cell Contents
                           -------------------------------

            xxxxxxxxxxxxxxxxxxxxxxxxxxxxxxxxxxxxxxxxxxxxxxxxxxxxxxxxxxxxxxxxx
            x  Element         Atom        Fractional coordinates of atoms  x
[...]
            x  P                 7         0.500000  -0.255148   0.291598   x
            x  P                 8         0.500000  -0.692821   0.791796   x
            x  P                 9         0.000000  -0.119885   0.708440   x
            x  P                10         0.000000   0.463745   0.041434   x
            x  P                11         0.500000  -0.839264   0.959159   x
            x  P                12         0.500000  -0.109235   0.124841   x
            x  In                1         0.500000   0.135454   0.416624   x
            x  In                2         0.000000  -0.729276   0.833458   x
            x  In                3         0.500000  -0.156342   0.750105   x
            x  In                4         0.000000  -0.583407   0.666751   x
            x  In                5         0.500000  -0.010456   0.583379   x
            x  In                6         0.000000  -0.437498   0.499997   x
            x  In                7         0.000000  -0.291605   0.333263   x
            x  In                8         0.500000  -0.302212   0.916813   x
            x  In                9         0.000000  -0.145704   0.166519   x
            x  In               10         0.500000   0.427255   0.083137   x
            x  In               11        -0.000000   0.000527  -0.000603   x
            x  In               12         0.500000   0.281340   0.249897   x
            xxxxxxxxxxxxxxxxxxxxxxxxxxxxxxxxxxxxxxxxxxxxxxxxxxxxxxxxxxxxxxxxx


 LBFGS: Final Enthalpy     = -2.35796257E+004 eV
 LBFGS: Final <frequency>  =     201.86793 cm-1

 ******************* Unconstrained Forces *******************
 *                                                          *
 *               Cartesian components (eV/A)                *
 * -------------------------------------------------------- *
 *                         x            y            z      *
 *                                                          *
 * P               1      0.00000      0.00211      0.00017 *
 * P               2     -0.00000     -0.00261      0.00028 *
 * P               3     -0.00000      0.00626      0.00025 *
 * P               4     -0.00000     -0.15360     -0.00029 *
 * P               5      0.00000     -0.00430     -0.00008 *
 * P               6     -0.00000     -0.00502      0.00002 *
 * P               7      0.00000      0.00061      0.00030 *
 * P               8      0.00000     -0.01858     -0.00028 *
 * P               9     -0.00000     -0.00131     -0.00027 *
 * P              10     -0.00000      0.19977     -0.00003 *
 * P              11      0.00000     -0.77033     -0.00025 *
 * P              12      0.00000      0.02448      0.00009 *
 * In              1      0.00000     -0.00001     -0.00058 *
 * In              2     -0.00000      0.03758      0.00097 *
 * In              3      0.00000      0.00610      0.00083 *
 * In              4     -0.00000      0.00123      0.00069 *
 * In              5      0.00000      0.00026      0.00033 *
 * In              6     -0.00000     -0.00004     -0.00013 *
 * In              7     -0.00000      0.00041     -0.00090 *
 * In              8      0.00000      0.20775      0.00064 *
 * In              9     -0.00000      0.01291     -0.00074 *
 * In             10      0.00000      0.09354     -0.00038 *
 * In             11     -0.00000      0.36065      0.00034 *
 * In             12      0.00000      0.00215     -0.00097 *
 *                                                          *
 ************************************************************

 ******************************** Constrained Forces ********************************
 *                                                                                  *
 *                           Cartesian components (eV/A)                            *
 * -------------------------------------------------------------------------------- *
 *                         x                    y                    z              *
 *                                                                                  *
 * P               1      0.00000(cons'd)     -0.00000(cons'd)      0.00017         *
 * P               2      0.00000(cons'd)      0.00000(cons'd)      0.00028         *
 * P               3      0.00000(cons'd)     -0.00000(cons'd)      0.00025         *
 * P               4      0.00000(cons'd)      0.00000(cons'd)     -0.00029         *
 * P               5      0.00000(cons'd)      0.00000(cons'd)     -0.00008         *
 * P               6      0.00000(cons'd)      0.00000(cons'd)      0.00002         *
 * P               7      0.00000(cons'd)     -0.00000(cons'd)      0.00030         *
 * P               8      0.00000(cons'd)      0.00000(cons'd)     -0.00028         *
 * P               9      0.00000(cons'd)      0.00000(cons'd)     -0.00027         *
 * P              10      0.00000(cons'd)     -0.00000(cons'd)     -0.00003         *
 * P              11      0.00000(cons'd)      0.00000(cons'd)     -0.00025         *
 * P              12     -0.00000(cons'd)     -0.00000(cons'd)      0.00009         *
 * In              1      0.00000(cons'd)      0.00000(cons'd)     -0.00058         *
 * In              2      0.00000(cons'd)      0.00000(cons'd)      0.00097         *
 * In              3      0.00000(cons'd)      0.00000(cons'd)      0.00083         *
 * In              4      0.00000(cons'd)      0.00000(cons'd)      0.00069         *
 * In              5      0.00000(cons'd)      0.00000(cons'd)      0.00033         *
 * In              6      0.00000(cons'd)      0.00000(cons'd)     -0.00013         *
 * In              7      0.00000(cons'd)      0.00000(cons'd)     -0.00090         *
 * In              8      0.00000(cons'd)      0.00000(cons'd)      0.00064         *
 * In              9      0.00000(cons'd)      0.00000(cons'd)     -0.00074         *
 * In             10      0.00000(cons'd)     -0.00000(cons'd)     -0.00038         *
 * In             11      0.00000(cons'd)      0.00000(cons'd)      0.00034         *
 * In             12      0.00000(cons'd)      0.00000(cons'd)     -0.00097         *
 *                                                                                  *
 ************************************************************************************

 Pseudo atomic calculation performed for P 3s2 3p3

 Converged in 23 iterations to a total energy of -208.0292 eV

 Pseudo atomic calculation performed for In 4d10 5s2 5p1

 Converged in 42 iterations to a total energy of -1747.4501 eV
Charge spilling parameter for spin component 1 = 0.15%

            Orbital Populations       
     Ion    Atom   Orbital             Charge
  -------------------------------------------
      P     1      S                    1.735
      P     1      Px                   1.313
      P     1      Py                   1.313
      P     1      Pz                   1.313
      P     2      S                    1.735
      P     2      Px                   1.313
      P     2      Py                   1.313
      P     2      Pz                   1.313
      P     3      S                    1.735
      P     3      Px                   1.313
      P     3      Py                   1.313
      P     3      Pz                   1.313
      P     4      S                    1.735
      P     4      Px                   1.313
      P     4      Py                   1.313
      P     4      Pz                   1.311
      P     5      S                    1.735
      P     5      Px                   1.313
      P     5      Py                   1.313
      P     5      Pz                   1.313
      P     6      S                    1.735
      P     6      Px                   1.313
      P     6      Py                   1.313
      P     6      Pz                   1.313
      P     7      S                    1.735
      P     7      Px                   1.313
      P     7      Py                   1.313
      P     7      Pz                   1.313
      P     8      S                    1.735
      P     8      Px                   1.313
      P     8      Py                   1.313
      P     8      Pz                   1.313
      P     9      S                    1.735
      P     9      Px                   1.313
      P     9      Py                   1.313
      P     9      Pz                   1.313
      P    10      S                    1.738
      P    10      Px                   1.312
      P    10      Py                   1.305
      P    10      Pz                   1.306
      P    11      S                    1.743
      P    11      Px                   1.304
      P    11      Py                   1.298
      P    11      Pz                   1.317
      P    12      S                    1.735
      P    12      Px                   1.313
      P    12      Py                   1.313
      P    12      Pz                   1.313
     In     1      Dzz                  1.999
     In     1      Dzy                  1.997
     In     1      Dzx                  1.997
     In     1      Dxx-yy               1.997
     In     1      Dxy                  1.999
     In     1      S                    1.424
     In     1      Px                   0.481
     In     1      Py                   0.481
     In     1      Pz                   0.481
     In     1      S                   -0.531
     In     2      Dzz                  1.999
     In     2      Dzy                  1.997
     In     2      Dzx                  1.997
     In     2      Dxx-yy               1.997
     In     2      Dxy                  1.999
     In     2      S                    1.426
     In     2      Px                   0.481
     In     2      Py                   0.481
     In     2      Pz                   0.481
     In     2      S                   -0.529
     In     3      Dzz                  1.999
     In     3      Dzy                  1.997
     In     3      Dzx                  1.997
     In     3      Dxx-yy               1.997
     In     3      Dxy                  1.999
     In     3      S                    1.426
     In     3      Px                   0.481
     In     3      Py                   0.481
     In     3      Pz                   0.481
     In     3      S                   -0.533
     In     4      Dzz                  1.999
     In     4      Dzy                  1.997
     In     4      Dzx                  1.997
     In     4      Dxx-yy               1.997
     In     4      Dxy                  1.999
     In     4      S                    1.425
     In     4      Px                   0.481
     In     4      Py                   0.481
     In     4      Pz                   0.481
     In     4      S                   -0.532
     In     5      Dzz                  1.999
     In     5      Dzy                  1.997
     In     5      Dzx                  1.997
     In     5      Dxx-yy               1.997
     In     5      Dxy                  1.999
     In     5      S                    1.425
     In     5      Px                   0.481
     In     5      Py                   0.481
     In     5      Pz                   0.481
     In     5      S                   -0.531
     In     6      Dzz                  1.999
     In     6      Dzy                  1.997
     In     6      Dzx                  1.997
     In     6      Dxx-yy               1.997
     In     6      Dxy                  1.999
     In     6      S                    1.424
     In     6      Px                   0.481
     In     6      Py                   0.481
     In     6      Pz                   0.481
     In     6      S                   -0.531
     In     7      Dzz                  1.999
     In     7      Dzy                  1.997
     In     7      Dzx                  1.997
     In     7      Dxx-yy               1.997
     In     7      Dxy                  1.999
     In     7      S                    1.425
     In     7      Px                   0.481
     In     7      Py                   0.481
     In     7      Pz                   0.481
     In     7      S                   -0.532
     In     8      Dzz                  1.999
     In     8      Dzy                  1.997
     In     8      Dzx                  1.997
     In     8      Dxx-yy               1.997
     In     8      Dxy                  1.999
     In     8      S                    1.416
     In     8      Px                   0.486
     In     8      Py                   0.481
     In     8      Pz                   0.483
     In     8      S                   -0.520
     In     9      Dzz                  1.999
     In     9      Dzy                  1.997
     In     9      Dzx                  1.997
     In     9      Dxx-yy               1.997
     In     9      Dxy                  1.999
     In     9      S                    1.425
     In     9      Px                   0.481
     In     9      Py                   0.481
     In     9      Pz                   0.481
     In     9      S                   -0.535
     In    10      Dzz                  1.999
     In    10      Dzy                  1.997
     In    10      Dzx                  1.997
     In    10      Dxx-yy               1.997
     In    10      Dxy                  1.999
     In    10      S                    1.426
     In    10      Px                   0.483
     In    10      Py                   0.482
     In    10      Pz                   0.481
     In    10      S                   -0.523
     In    11      Dzz                  1.999
     In    11      Dzy                  1.997
     In    11      Dzx                  1.998
     In    11      Dxx-yy               1.997
     In    11      Dxy                  1.999
     In    11      S                    1.409
     In    11      Px                   0.468
     In    11      Py                   0.486
     In    11      Pz                   0.479
     In    11      S                   -0.502
     In    12      Dzz                  1.999
     In    12      Dzy                  1.997
     In    12      Dzx                  1.997
     In    12      Dxx-yy               1.997
     In    12      Dxy                  1.999
     In    12      S                    1.425
     In    12      Px                   0.481
     In    12      Py                   0.481
     In    12      Pz                   0.482
     In    12      S                   -0.530
  -------------------------------------------
                           Total:     216.000
  -------------------------------------------

     Atomic Populations (Mulliken)
     -----------------------------
Species          Ion     s       p       d       f      Total   Charge (e)
==========================================================================
  P               1     1.735   3.939   0.000   0.000   5.675    -0.675
  P               2     1.735   3.939   0.000   0.000   5.675    -0.675
  P               3     1.735   3.940   0.000   0.000   5.675    -0.675
  P               4     1.735   3.937   0.000   0.000   5.672    -0.672
  P               5     1.735   3.940   0.000   0.000   5.675    -0.675
  P               6     1.735   3.939   0.000   0.000   5.675    -0.675
  P               7     1.735   3.940   0.000   0.000   5.675    -0.675
  P               8     1.735   3.939   0.000   0.000   5.674    -0.674
  P               9     1.735   3.940   0.000   0.000   5.675    -0.675
  P              10     1.738   3.923   0.000   0.000   5.661    -0.661
  P              11     1.743   3.919   0.000   0.000   5.662    -0.662
  P              12     1.735   3.939   0.000   0.000   5.674    -0.674
  In              1     0.893   1.443   9.989   0.000  12.326     0.674
  In              2     0.897   1.443   9.989   0.000  12.330     0.670
  In              3     0.892   1.443   9.989   0.000  12.325     0.675
  In              4     0.893   1.443   9.989   0.000  12.325     0.675
  In              5     0.894   1.443   9.989   0.000  12.326     0.674
  In              6     0.893   1.443   9.989   0.000  12.326     0.674
  In              7     0.893   1.443   9.989   0.000  12.325     0.675
  In              8     0.897   1.449   9.989   0.000  12.335     0.665
  In              9     0.891   1.443   9.989   0.000  12.323     0.677
  In             10     0.904   1.446   9.989   0.000  12.339     0.661
  In             11     0.907   1.432   9.990   0.000  12.329     0.671
  In             12     0.895   1.443   9.989   0.000  12.327     0.673
==========================================================================

                 Bond                   Population      Length (A)
======================================================================
              P 8  -- In 2                   1.16        2.55506
              P 5  -- In 4                   1.16        2.55508
              P 7  -- In 7                   1.16        2.55510
              P 9  -- In 3                   1.16        2.55511
              P 4  -- In 2                   1.14        2.55532
              P 1  -- In 6                   1.16        2.55535
              P 12 -- In 9                   1.17        2.55539
              P 3  -- In 1                   1.16        2.55539
              P 4  -- In 8                   1.18        2.55541
              P 3  -- In 7                   1.16        2.55546
              P 2  -- In 12                  1.16        2.55547
              P 6  -- In 5                   1.16        2.55551
              P 9  -- In 4                   1.16        2.55560
              P 8  -- In 3                   1.16        2.55563
              P 2  -- In 9                   1.16        2.55571
              P 6  -- In 6                   1.16        2.55574
              P 1  -- In 1                   1.16        2.55575
              P 7  -- In 12                  1.16        2.55585
              P 10 -- In 10                  1.14        2.55589
              P 12 -- In 10                  1.15        2.55589
              P 5  -- In 5                   1.16        2.55599
              P 10 -- In 11                  1.17        2.56273
              P 11 -- In 8                   1.15        2.56909
              P 11 -- In 11                  1.12        2.57956
======================================================================

 Hirshfeld supercell size:           4           4           1
Standard grid dimensions: 180 180 360
Fine grid dimensions:     180 180 360


     Hirshfeld Analysis
     ------------------
Species   Ion     Hirshfeld Charge (e)
======================================
  P        1                -0.24
  P        2                -0.24
  P        3                -0.24
  P        4                -0.24
  P        5                -0.24
  P        6                -0.24
  P        7                -0.24
  P        8                -0.24
  P        9                -0.24
  P       10                -0.24
  P       11                -0.24
  P       12                -0.24
  In       1                 0.24
  In       2                 0.24
  In       3                 0.24
  In       4                 0.24
  In       5                 0.24
  In       6                 0.24
  In       7                 0.24
  In       8                 0.24
  In       9                 0.24
  In      10                 0.24
  In      11                 0.24
  In      12                 0.24
======================================

 
 A BibTeX formatted list of references used in this run has been written to 
 StackingFaultStructs_001_110_7.bib
 
Initialisation time =     23.17 s
Calculation time    =   3497.64 s
Finalisation time   =     62.80 s
Total time          =   3583.61 s
Peak Memory Use     = 9975160 kB
 
Overall parallel efficiency rating: Very good (83%)
 
Data was distributed by:-
k-point (84-way); efficiency rating: Very good (84%)
