 +-------------------------------------------------+
 |                                                 |
 |      CCC   AA    SSS  TTTTT  EEEEE  PPPP        |
 |     C     A  A  S       T    E      P   P       |
 |     C     AAAA   SS     T    EEE    PPPP        |
 |     C     A  A     S    T    E      P           |
 |      CCC  A  A  SSS     T    EEEEE  P           |
 |                                                 |
 +-------------------------------------------------+
 |                                                 |
 | Welcome to Academic Release CASTEP version 24.1 |
 | Ab Initio Total Energy Program                  |
 |                                                 |
 | Authors:                                        |
 | M. Segall, M. Probert, C. Pickard, P. Hasnip,   |
 | S. Clark, K. Refson, J. R. Yates,               |
 | A. Bartok-Partay, M. Payne                      |
 |                                                 |
 | Contributors:                                   |
 | P. Lindan, P. Haynes, J. White, V. Milman,      |
 | N. Govind, M. Gibson, P. Tulip, V. Cocula,      |
 | B. Montanari, D. Quigley, M. Glover,            |
 | L. Bernasconi, A. Perlov, M. Plummer,           |
 | E. McNellis, J. Meyer, J. Gale, D. Jochym       |
 | J. Aarons, B. Walker, R. Gillen, D. Jones       |
 | T. Green, I. J. Bush, C. J. Armstrong,          |
 | E. J. Higgins, E. L. Brown, M. S. McFly,        |
 | J. Wilkins, B-C. Shih, P. J. P. Byrne,          |
 | R. J. Maurer, J. C. Womack, J. Dziedzic,        |
 | L. LeBlanc, T. K. Stenczel, J. Kermode,         |
 | S. Sturniolo, B. Shi, B. Durham, M. Evans,      |
 | M. J. Smith, A. Tamerus, Z. Hawkhead,           |
 | V. Ravindran, T. Hollins, S. A. Joyce,          |
 | R. T. Strong, A. M. Reilly, S. J. Donaldson     |
 |                                                 |
 | Copyright (c) 2000 - 2023                       |
 |                                                 |
 |     Distributed under license from Cambridge    |
 |     Enterprise for academic use only.           |
 |                                                 |
 | Please cite                                     |
 |                                                 |
 |     "First principles methods using CASTEP"     |
 |                                                 |
 |         Zeitschrift fuer Kristallographie       |
 |           220(5-6) pp. 567-570 (2005)           |
 |                                                 |
 | S. J. Clark, M. D. Segall, C. J. Pickard,       |
 | P. J. Hasnip, M. J. Probert, K. Refson,         |
 | M. C. Payne                                     |
 |                                                 |
 |       in all publications arising from          |
 |              your use of CASTEP                 |
 |                                                 |
 +-------------------------------------------------+
 |                                                 |
 |              http://www.castep.org              |
 |                                                 |
 +-------------------------------------------------+



 Compiled for  GNU 11.2.0 on 04-04-2024 18:39:17
 from code version 6355fd106 Castep241_branch Thu Mar 7 17:56:19 2024 +0000
 Compiler: GNU Fortran 11.2.0; Optimisation: FAST
 Comms   : MPI VERSION : CRAY MPICH version 8.1.23.14 (ANL base 3.4a2)
 MATHLIBS: default (LAPACK version 3.10.1)
 FFT Lib : fftw3 version commercial-fftw-3.3.10-sse2-avx-avx2-avx2_128
 Fundamental constants values: CODATA 2018

 Run started: Wed, 30 Jul 2025 15:20:04 +0100

 Atomic calculation performed for P: 1s2 2s2 2p6 3s2 3p3

 Converged in 47 iterations to an ae energy of -9309.074 eV

   ============================================================                
   | Pseudopotential Report - Date of generation 30-07-2025   |                
   ------------------------------------------------------------                
   | Element: P Ionic charge:  5.00 Level of theory: RSCAN    |                
   | Atomic Solver: Koelling-Harmon                           |                
   |                                                          |                
   |               Reference Electronic Structure             |                
   |         Orbital         Occupation         Energy        |                
   |            3s              2.000           -0.535        |                
   |            3p              3.000           -0.209        |                
   |                                                          |                
   |                 Pseudopotential Definition               |                
   |        Beta     l      e      Rc     scheme   norm       |                
   |          1      0   -0.535   1.807     qc      0         |                
   |          2      0    0.250   1.807     qc      0         |                
   |          3      1   -0.209   1.807     qc      0         |                
   |          4      1    0.250   1.807     qc      0         |                
   |          5      2    0.000   1.807     qc      0         |                
   |          6      2    0.250   1.807     qc      0         |                
   |         loc     3    0.000   1.807     pn      0         |                
   |                                                          |                
   | Augmentation charge Rinner = 1.263                       |                
   | Partial core correction Rc = 1.263                       |                
   ------------------------------------------------------------                
   | "3|1.8|4|4|5|30:31:32"                                   |                
   ------------------------------------------------------------                
   |      Author: Chris J. Pickard, Cambridge University      |                
   ============================================================                
 Warning: otfg_output_psp cannot write out meta-GGA pseudopotentials presently.

 Atomic calculation performed for In:
 1s2 2s2 2p6 3s2 3p6 3d10 4s2 4p6 4d10 5s2 5p1

 Converged in 84 iterations to an ae energy of -160093.328 eV

   ============================================================                
   | Pseudopotential Report - Date of generation 30-07-2025   |                
   ------------------------------------------------------------                
   | Element: In Ionic charge: 13.00 Level of theory: RSCAN   |                
   | Atomic Solver: Koelling-Harmon                           |                
   |                                                          |                
   |               Reference Electronic Structure             |                
   |         Orbital         Occupation         Energy        |                
   |            4d             10.000           -0.711        |                
   |            5s              2.000           -0.313        |                
   |            5p              1.000           -0.095        |                
   |                                                          |                
   |                 Pseudopotential Definition               |                
   |        Beta     l      e      Rc     scheme   norm       |                
   |          1      0   -0.313   2.501     qc      0         |                
   |          2      0    0.250   2.501     qc      0         |                
   |          3      1   -0.095   2.501     qc      0         |                
   |          4      1    0.250   2.501     qc      0         |                
   |          5      2   -0.711   2.207     qc      0         |                
   |          6      2    0.250   2.207     qc      0         |                
   |         loc     3    0.000   2.501     pn      0         |                
   |                                                          |                
   | Augmentation charge Rinner = 1.504                       |                
   | Partial core correction Rc = 1.504                       |                
   ------------------------------------------------------------                
   | "3|2.5|2.5|1.5|7|8|9|50:51:42U2.2U2.2"                   |                
   ------------------------------------------------------------                
   |      Author: Chris J. Pickard, Cambridge University      |                
   ============================================================                
 Warning: otfg_output_psp cannot write out meta-GGA pseudopotentials presently.

 Pseudo atomic calculation performed for P 3s2 3p3

 Converged in 23 iterations to a total energy of -208.0292 eV

 Pseudo atomic calculation performed for In 4d10 5s2 5p1

 Converged in 42 iterations to a total energy of -1747.4501 eV
 Calculation parallelised over 108 processes.
 Data is distributed by G-vector(3-way) and k-point(36-way)
 Each process may use up to 16 threads.

 ************************************ Title ************************************
 

 ***************************** General Parameters ******************************
  
 output verbosity                               : normal  (1)
 write checkpoint data to                       : P_Vacancy_Migration_5->3_Singlepoints_5.check
 type of calculation                            : single point energy
 stress calculation                             : off
 density difference calculation                 : off
 electron localisation func (ELF) calculation   : off
 Hirshfeld analysis                             : on
 polarisation (Berry phase) analysis            : off
 molecular orbital projected DOS                : off
 deltaSCF calculation                           : off
 unlimited duration calculation
 timing information                             : on
 memory usage estimate                          : on
 write extra output files                       : on
 write final potential to formatted file        : off
 write final density to formatted file          : off
 write BibTeX reference list                    : on
 write OTFG pseudopotential files               : on
 write electrostatic potential file             : on
 write bands file                               : on
 checkpoint writing                             : off
  
 output         length unit                     : A
 output           mass unit                     : amu
 output           time unit                     : ps
 output         charge unit                     : e
 output           spin unit                     : hbar/2
 output         energy unit                     : eV
 output          force unit                     : eV/A
 output       velocity unit                     : A/ps
 output       pressure unit                     : GPa
 output     inv_length unit                     : 1/A
 output      frequency unit                     : cm-1
 output force constant unit                     : eV/A**2
 output         volume unit                     : A**3
 output   IR intensity unit                     : (D/A)**2/amu
 output         dipole unit                     : D
 output         efield unit                     : eV/A/e
 output        entropy unit                     : J/mol/K
 output    efield chi2 unit                     : pm/V
  
 wavefunctions paging                           : none
 random number generator seed                   :  152004370
 data distribution                              : optimal for this architecture
 optimization strategy                          : balance speed and memory

 *********************** Exchange-Correlation Parameters ***********************
  
 using functional                               : RSCAN
 relativistic treatment                         : Koelling-Harmon
 DFT+D: Semi-empirical dispersion correction    : off

 ************************* Pseudopotential Parameters **************************
  
 pseudopotential representation                 : reciprocal space
 <beta|phi> representation                      : reciprocal space
 spin-orbit coupling                            : off

 **************************** Basis Set Parameters *****************************
  
 plane wave basis set cut-off                   :   900.0000   eV
 size of standard grid                          :     2.0000
 size of   fine   gmax                          :    30.7390   1/A
 finite basis set correction                    : none

 **************************** Electronic Parameters ****************************
  
 number of  electrons                           :  571.0    
 net charge of system                           :  0.000    
 net spin   of system                           :  1.000    
 number of  up  spins                           :  286.0    
 number of down spins                           :  285.0    
 treating system as spin-polarized
 number of bands                                :        343

 ********************* Electronic Minimization Parameters **********************
  
 Method: Treating system as metallic with density mixing treatment of electrons,
         and number of  SD  steps               :          1
         and number of  CG  steps               :          4
  
 total energy / atom convergence tol.           : 0.1000E-07   eV
 eigen-energy convergence tolerance             : 0.2203E-08   eV
 max force / atom convergence tol.              : ignored
 convergence tolerance window                   :          3   cycles
 max. number of SCF cycles                      :        100
 number of fixed-spin iterations                :         10
 smearing scheme                                : Gaussian
 smearing width                                 : 0.2000       eV
 Fermi energy convergence tolerance             : 0.2721E-13   eV
 periodic dipole correction                     : NONE

 ************************** Density Mixing Parameters **************************
  
 density-mixing scheme                          : Pulay
 max. length of mixing history                  :         20
 charge density mixing amplitude                : 0.5000    
   spin density mixing amplitude                :  2.000    
 cut-off energy for mixing                      :  900.0       eV

 *********************** Population Analysis Parameters ************************
  
 Population analysis with cutoff                :  3.000       A
 Population analysis output                     : summary and pdos components

 *******************************************************************************
  

                           -------------------------------
                                      Unit Cell
                           -------------------------------
        Real Lattice(A)                      Reciprocal Lattice(1/A)
    11.8016820    -0.0000080    -0.0000080        0.532397442   0.000000361   0.000000361
    -0.0000080    11.8016820    -0.0000080        0.000000361   0.532397442   0.000000361
    -0.0000080    -0.0000080    11.8016820        0.000000361   0.000000361   0.532397442

                       Lattice parameters(A)       Cell Angles
                    a =     11.801682          alpha =   90.000078
                    b =     11.801682          beta  =   90.000078
                    c =     11.801682          gamma =   90.000078

                       Current cell volume =          1643.734705       A**3
                                   density =             2.819410   AMU/A**3
                                           =             4.681741     g/cm^3

                           -------------------------------
                                     Cell Contents
                           -------------------------------
                         Total number of ions in cell =   63
                      Total number of species in cell =    2
                        Max number of any one species =   32

            xxxxxxxxxxxxxxxxxxxxxxxxxxxxxxxxxxxxxxxxxxxxxxxxxxxxxxxxxxxx
            x  Element    Atom        Fractional coordinates of atoms  x
            x            Number           u          v          w      x
            x----------------------------------------------------------x
            x  P            1         0.128889   0.144543   0.383017   x 
            x  P            2         0.383017   0.144543   0.128889   x 
            x  P            3         0.117588   0.377738   0.117588   x 
            x  P            4         0.125187   0.122093   0.878318   x 
            x  P            5         0.380296   0.113181   0.635698   x 
            x  P            6         0.118577   0.382906   0.637783   x 
            x  P            7         0.373894   0.376487   0.870510   x 
            x  P            8         0.126584   0.621632   0.376238   x 
            x  P            9         0.376238   0.621632   0.126584   x 
            x  P           10         0.134107   0.878966   0.134107   x 
            x  P           11         0.361769   0.885252   0.361769   x 
            x  P           12         0.122166   0.628656   0.875868   x 
            x  P           13         0.375846   0.624318   0.619343   x 
            x  P           14         0.126654   0.872934   0.623021   x 
            x  P           15         0.375349   0.868116   0.880058   x 
            x  P           16         0.635698   0.113181   0.380296   x 
            x  P           17         0.878318   0.122093   0.125187   x 
            x  P           18         0.637783   0.382906   0.118577   x 
            x  P           19         0.870510   0.376487   0.373894   x 
            x  P           20         0.623344   0.121922   0.879417   x 
            x  P           21         0.879417   0.121922   0.623344   x 
            x  P           22         0.619824   0.371678   0.619824   x 
            x  P           23         0.870144   0.374277   0.870144   x 
            x  P           24         0.619343   0.624318   0.375846   x 
            x  P           25         0.875868   0.628656   0.122166   x 
            x  P           26         0.623021   0.872934   0.126654   x 
            x  P           27         0.880058   0.868116   0.375349   x 
            x  P           28         0.623650   0.622814   0.874039   x 
            x  P           29         0.874039   0.622814   0.623650   x 
            x  P           30         0.624092   0.875411   0.624092   x 
            x  P           31         0.873841   0.875439   0.873841   x 
            x  In           1         0.004621  -0.008319   0.004621   x 
            x  In           2         0.312564   0.282975   0.312564   x 
            x  In           3        -0.001386   0.253430   0.250317   x 
            x  In           4         0.250317   0.253430  -0.001386   x 
            x  In           5         0.007747  -0.001227   0.492892   x 
            x  In           6         0.248659  -0.008701   0.757565   x 
            x  In           7        -0.002402   0.246238   0.754562   x 
            x  In           8         0.244928   0.244401   0.540408   x 
            x  In           9        -0.006628   0.501109  -0.006628   x 
            x  In          10         0.244101   0.501331   0.244101   x 
            x  In          11         0.007002   0.748611   0.246404   x 
            x  In          12         0.246404   0.748611   0.007002   x 
            x  In          13        -0.000765   0.497936   0.497987   x 
            x  In          14         0.250508   0.508882   0.751691   x 
            x  In          15        -0.002223   0.750717   0.747197   x 
            x  In          16         0.254005   0.753409   0.493431   x 
            x  In          17         0.492892  -0.001227   0.007747   x 
            x  In          18         0.757565  -0.008701   0.248659   x 
            x  In          19         0.540408   0.244401   0.244928   x 
            x  In          20         0.754562   0.246238  -0.002402   x 
            x  In          21         0.493789  -0.008688   0.493789   x 
            x  In          22         0.749128   0.002334   0.749128   x 
            x  In          23         0.502148   0.247201   0.751675   x 
            x  In          24         0.751675   0.247201   0.502148   x 
            x  In          25         0.497987   0.497936  -0.000765   x 
            x  In          26         0.751691   0.508882   0.250508   x 
            x  In          27         0.493431   0.753409   0.254005   x 
            x  In          28         0.747197   0.750717  -0.002223   x 
            x  In          29         0.489107   0.489572   0.489107   x 
            x  In          30         0.744898   0.499493   0.744898   x 
            x  In          31         0.501521   0.748351   0.748196   x 
            x  In          32         0.748196   0.748351   0.501521   x 
            xxxxxxxxxxxxxxxxxxxxxxxxxxxxxxxxxxxxxxxxxxxxxxxxxxxxxxxxxxxx


                         No user defined ionic velocities

                           -------------------------------
                                   Details of Species
                           -------------------------------

                               Mass of species in AMU
                                    P   30.9737600
                                    In  114.8180000

                          Electric Quadrupole Moment (Barn)
                                    P    1.0000000 No Isotope Defined
                                    In    0.7700000 Isotope115

                          Files used for pseudopotentials:
                                    P 3|1.8|4|4|5|30:31:32
                                    In 3|2.5|2.5|1.5|7|8|9|50:51:42U2.2U2.2

                           -------------------------------
                              k-Points For BZ Sampling
                           -------------------------------
                       MP grid size for SCF calculation is  4  4  4
                            with an offset of   0.125  0.125  0.125
                       Number of kpoints used =            36

                           -------------------------------
                               Symmetry and Constraints
                           -------------------------------

                      Maximum deviation from symmetry =  0.00000         ANG

                      Number of symmetry operations   =           1
                      Number of ionic constraints     =           3
                      Point group of crystal =     1: C1, 1, 1
                      Space group of crystal =     8: Cm, C -2y

             Set iprint > 1 for details on symmetry rotations/translations

                         Centre of mass is constrained
             Set iprint > 1 for details of linear ionic constraints

                         Number of cell constraints= 0
                         Cell constraints are:  1 2 3 4 5 6

                         External pressure/stress (GPa)
                          0.00000   0.00000   0.00000
                                    0.00000   0.00000
                                              0.00000
 
+---------------- MEMORY AND SCRATCH DISK ESTIMATES PER PROCESS --------------+
|                                                     Memory          Disk    |
| Baseline code, static data and system overhead      368.0 MB         0.0 MB |
| BLAS internal memory storage                          0.0 MB         0.0 MB |
| Model and support data                             4302.1 MB         0.0 MB |
| Electronic energy minimisation requirements        1320.9 MB         0.0 MB |
| Force calculation requirements                      127.4 MB         0.0 MB |
|                                               ----------------------------- |
| Approx. total storage required per process         5991.0 MB         0.0 MB |
|                                                                             |
| Requirements will fluctuate during execution and may exceed these estimates |
+-----------------------------------------------------------------------------+
Calculating approximate eigenstates for fixed initial Hamiltonian
Cut-off for approx. calculation is   89.988 eV
Improving approx. states at cut-off of  450.000 eV
Resetting cut-off to  900.000 eV
Calculating total energy with cut-off of  900.000 eV.
------------------------------------------------------------------------ <-- SCF
SCF loop      Energy           Fermi           Energy gain       Timer   <-- SCF
                               energy          per atom          (sec)   <-- SCF
------------------------------------------------------------------------ <-- SCF
Initial  -6.28298458E+004  0.00000000E+000                       432.94  <-- SCF
      1  -6.25836565E+004  2.70860449E+000  -3.90776703E+000     886.77  <-- SCF
      2  -6.25839475E+004  2.70836839E+000   4.62006184E-003    1194.58  <-- SCF
      3  -6.26503071E+004  2.80726134E+000   1.05332639E+000    1535.89  <-- SCF
      4  -6.26623458E+004  2.84664269E+000   1.91090024E-001    2041.27  <-- SCF
      5  -6.26696292E+004  2.93796945E+000   1.15610670E-001    2386.46  <-- SCF
      6  -6.26583904E+004  3.08978519E+000  -1.78394949E-001    2735.96  <-- SCF
      7  -6.26570226E+004  3.14628071E+000  -2.17099976E-002    3089.98  <-- SCF
      8  -6.26568113E+004  3.17016965E+000  -3.35479672E-003    3472.82  <-- SCF
      9  -6.26577309E+004  3.17902804E+000   1.45970636E-002    3838.52  <-- SCF
     10  -6.26581871E+004  3.16464280E+000   7.24062983E-003    4183.74  <-- SCF
     11  -6.26582886E+004  3.15640850E+000   1.61141570E-003    4539.87  <-- SCF
     12  -6.26583219E+004  3.15315442E+000   5.28462631E-004    4883.80  <-- SCF
     13  -6.26583322E+004  3.15063280E+000   1.64131839E-004    5250.46  <-- SCF
     14  -6.26583341E+004  3.14945208E+000   3.02450327E-005    5624.93  <-- SCF
     15  -6.26583346E+004  3.14902915E+000   8.25266122E-006    5975.60  <-- SCF
     16  -6.26583351E+004  3.14857999E+000   7.02342773E-006    6327.93  <-- SCF
     17  -6.26583355E+004  3.14815337E+000   7.11550003E-006    6687.42  <-- SCF
     18  -6.26583358E+004  3.14803128E+000   4.09590622E-006    7031.18  <-- SCF
     19  -6.26583360E+004  3.14796100E+000   3.59157823E-006    7377.48  <-- SCF
     20  -6.26583361E+004  3.14786322E+000   1.73912127E-006    7722.51  <-- SCF
     21  -6.26583362E+004  3.14775424E+000   1.08756556E-006    8058.37  <-- SCF
     22  -6.26583362E+004  3.14765075E+000   5.98016415E-007    8410.76  <-- SCF
     23  -6.26583362E+004  3.14759091E+000   3.05287873E-007    8746.14  <-- SCF
     24  -6.26583362E+004  3.14757411E+000   9.34061706E-008    9071.23  <-- SCF
     25  -6.26583363E+004  3.14757377E+000   2.49128167E-008    9375.59  <-- SCF
     26  -6.26583363E+004  3.14757768E+000   4.92870564E-009    9660.25  <-- SCF
     27  -6.26583363E+004  3.14758281E+000   8.27487506E-009    9908.61  <-- SCF
     28  -6.26583362E+004  3.14758595E+000  -5.31666959E-008   10157.64  <-- SCF
     29  -6.26583363E+004  3.14758854E+000   3.02370090E-007   10410.68  <-- SCF
     30  -6.26583356E+004  3.14759053E+000  -1.06191912E-005   10656.75  <-- SCF
     31  -6.26583362E+004  3.14759114E+000   9.89125972E-006   10901.93  <-- SCF
     32  -6.26583362E+004  3.14759151E+000   1.79727167E-007   11147.27  <-- SCF
     33  -6.26583362E+004  3.14759151E+000   3.39499882E-008   11387.57  <-- SCF
     34  -6.26583362E+004  3.14759142E+000   2.32916255E-007   11634.17  <-- SCF
     35  -6.26583363E+004  3.14759130E+000   5.90497944E-008   11880.37  <-- SCF
     36  -6.26583363E+004  3.14759125E+000   6.62296416E-008   12121.36  <-- SCF
     37  -6.26583363E+004  3.14759120E+000  -8.20200415E-009   12361.76  <-- SCF
     38  -6.26583363E+004  3.14759118E+000  -6.87457505E-008   12605.63  <-- SCF
     39  -6.26583363E+004  3.14759117E+000  -7.10383361E-009   12854.42  <-- SCF
     40  -6.26583363E+004  3.14759117E+000   5.64013001E-009   13099.84  <-- SCF
     41  -6.26583363E+004  3.14759117E+000  -9.75566699E-009   13343.90  <-- SCF
     42  -6.26583363E+004  3.14759117E+000  -2.00689634E-008   13588.44  <-- SCF
     43  -6.26583363E+004  3.14759117E+000  -4.64586436E-009   13829.75  <-- SCF
     44  -6.26583362E+004  3.14759117E+000  -1.21861378E-008   14065.99  <-- SCF
     45  -6.26583362E+004  3.14759117E+000  -8.20770026E-009   14310.49  <-- SCF
     46  -6.26583362E+004  3.14759117E+000  -4.25420777E-009   14548.31  <-- SCF
     47  -6.26583362E+004  3.14759116E+000  -8.31769409E-009   14793.59  <-- SCF
     48  -6.26583362E+004  3.14759116E+000  -1.37610137E-009   15029.32  <-- SCF
     49  -6.26583362E+004  3.14759116E+000   5.61086380E-009   15268.33  <-- SCF
     50  -6.26583362E+004  3.14759116E+000   3.98649064E-009   15506.80  <-- SCF
     51  -6.26583362E+004  3.14759116E+000  -8.99238838E-009   15752.26  <-- SCF
     52  -6.26583362E+004  3.14759116E+000  -9.44768427E-011   15992.06  <-- SCF
     53  -6.26583362E+004  3.14759116E+000   1.96849671E-009   16243.33  <-- SCF
     54  -6.26583362E+004  3.14759116E+000  -1.49532683E-009   16497.22  <-- SCF
------------------------------------------------------------------------ <-- SCF
 
Integrated Spin Density     =    0.144391E-03 hbar/2
Integrated |Spin Density|   =    0.184170E-03 hbar/2
 
Final energy, E             =  -62658.15821704     eV
Final free energy (E-TS)    =  -62658.33624809     eV
(energies not corrected for finite basis set)
 
NB est. 0K energy (E-0.5TS)      =  -62658.24723256     eV
 

 ************************** Forces **************************
 *                                                          *
 *               Cartesian components (eV/A)                *
 * -------------------------------------------------------- *
 *                         x            y            z      *
 *                                                          *
 * P               1      0.60465      0.11672     -0.25703 *
 * P               2     -0.25703      0.11673      0.60466 *
 * P               3     -0.04798     -0.06747     -0.04798 *
 * P               4      0.05548      0.03963     -0.00109 *
 * P               5      0.05035      0.14562     -0.15464 *
 * P               6      0.24549      0.07924     -0.11003 *
 * P               7      0.02656      0.07569     -0.03836 *
 * P               8      0.01093     -0.08354      0.09474 *
 * P               9      0.09474     -0.08354      0.01093 *
 * P              10      0.11419      0.15407      0.11419 *
 * P              11     -0.01101      0.03513     -0.01101 *
 * P              12      0.06981     -0.05400     -0.08195 *
 * P              13     -0.15877     -0.17115     -0.03967 *
 * P              14      0.00299      0.00252      0.02158 *
 * P              15      0.02377      0.05601     -0.03051 *
 * P              16     -0.15464      0.14563      0.05034 *
 * P              17     -0.00110      0.03963      0.05547 *
 * P              18     -0.11004      0.07924      0.24549 *
 * P              19     -0.03836      0.07569      0.02656 *
 * P              20     -0.03767      0.01107     -0.02101 *
 * P              21     -0.02101      0.01106     -0.03767 *
 * P              22     -0.01713     -0.04301     -0.01713 *
 * P              23     -0.01993      0.01534     -0.01993 *
 * P              24     -0.03967     -0.17116     -0.15877 *
 * P              25     -0.08195     -0.05400      0.06981 *
 * P              26      0.02158      0.00252      0.00298 *
 * P              27     -0.03051      0.05601      0.02378 *
 * P              28     -0.01305     -0.01544      0.00178 *
 * P              29      0.00177     -0.01544     -0.01306 *
 * P              30      0.06619      0.05478      0.06619 *
 * P              31     -0.06851      0.05047     -0.06850 *
 * In              1      0.14222     -0.22668      0.14222 *
 * In              2     -0.47492     -0.72413     -0.47492 *
 * In              3     -0.07785     -0.02045      0.14003 *
 * In              4      0.14003     -0.02045     -0.07785 *
 * In              5      0.01730      0.06565      0.27293 *
 * In              6     -0.17809      0.03319     -0.01066 *
 * In              7      0.07818     -0.18334     -0.02657 *
 * In              8     -0.65980     -0.28234      0.29261 *
 * In              9     -0.00625      0.17718     -0.00625 *
 * In             10     -0.23906      0.22939     -0.23906 *
 * In             11      0.17170      0.19940     -0.40726 *
 * In             12     -0.40726      0.19940      0.17170 *
 * In             13     -0.10796     -0.06727     -0.05255 *
 * In             14      0.03020     -0.00598      0.13009 *
 * In             15     -0.01421      0.07197      0.11042 *
 * In             16      0.29446      0.22343     -0.15727 *
 * In             17      0.27293      0.06565      0.01730 *
 * In             18     -0.01067      0.03319     -0.17809 *
 * In             19      0.29261     -0.28235     -0.65979 *
 * In             20     -0.02657     -0.18334      0.07818 *
 * In             21     -0.22403     -0.31300     -0.22403 *
 * In             22      0.05262     -0.19528      0.05262 *
 * In             23      0.00781      0.10368      0.22868 *
 * In             24      0.22868      0.10368      0.00781 *
 * In             25     -0.05255     -0.06727     -0.10796 *
 * In             26      0.13009     -0.00598      0.03020 *
 * In             27     -0.15727      0.22343      0.29446 *
 * In             28      0.11042      0.07198     -0.01421 *
 * In             29      0.37466      0.10024      0.37466 *
 * In             30     -0.01715      0.00394     -0.01715 *
 * In             31      0.05220      0.03418     -0.02262 *
 * In             32     -0.02262      0.03418      0.05221 *
 *                                                          *
 ************************************************************

 Pseudo atomic calculation performed for P 3s2 3p3

 Converged in 23 iterations to a total energy of -208.0292 eV

 Pseudo atomic calculation performed for In 4d10 5s2 5p1

 Converged in 42 iterations to a total energy of -1747.4501 eV
Charge spilling parameter for spin component 1 = 0.18%
Charge spilling parameter for spin component 2 = 0.18%

                   Orbital Populations                  
  ---------------------------------------------------------------
     Ion    Atom   Orbital              Up        Down      Spin
  ---------------------------------------------------------------
      P     1      S                    0.884     0.884     0.000
      P     1      Px                   0.614     0.614    -0.000
      P     1      Py                   0.659     0.659    -0.000
      P     1      Pz                   0.663     0.663    -0.000
      P     2      S                    0.884     0.884    -0.000
      P     2      Px                   0.663     0.663    -0.000
      P     2      Py                   0.659     0.659     0.000
      P     2      Pz                   0.614     0.614     0.000
      P     3      S                    0.871     0.871    -0.000
      P     3      Px                   0.644     0.644    -0.000
      P     3      Py                   0.666     0.666    -0.000
      P     3      Pz                   0.644     0.644     0.000
      P     4      S                    0.869     0.869    -0.000
      P     4      Px                   0.655     0.655     0.000
      P     4      Py                   0.652     0.652     0.000
      P     4      Pz                   0.658     0.658     0.000
      P     5      S                    0.871     0.871    -0.000
      P     5      Px                   0.655     0.655     0.000
      P     5      Py                   0.644     0.644    -0.000
      P     5      Pz                   0.659     0.659     0.000
      P     6      S                    0.869     0.869    -0.000
      P     6      Px                   0.646     0.646    -0.000
      P     6      Py                   0.653     0.653    -0.000
      P     6      Pz                   0.660     0.660    -0.000
      P     7      S                    0.868     0.868    -0.000
      P     7      Px                   0.656     0.656    -0.000
      P     7      Py                   0.654     0.654    -0.000
      P     7      Pz                   0.656     0.656     0.000
      P     8      S                    0.869     0.869     0.000
      P     8      Px                   0.652     0.652     0.000
      P     8      Py                   0.650     0.650    -0.000
      P     8      Pz                   0.658     0.658     0.000
      P     9      S                    0.869     0.869    -0.000
      P     9      Px                   0.658     0.658     0.000
      P     9      Py                   0.650     0.650     0.000
      P     9      Pz                   0.652     0.652     0.000
      P    10      S                    0.899     0.899    -0.000
      P    10      Px                   0.626     0.626    -0.000
      P    10      Py                   0.635     0.635     0.000
      P    10      Pz                   0.626     0.626    -0.000
      P    11      S                    0.906     0.906    -0.000
      P    11      Px                   0.620     0.620    -0.000
      P    11      Py                   0.628     0.628     0.000
      P    11      Pz                   0.620     0.620    -0.000
      P    12      S                    0.868     0.868     0.000
      P    12      Px                   0.652     0.652    -0.000
      P    12      Py                   0.658     0.658    -0.000
      P    12      Pz                   0.654     0.654    -0.000
      P    13      S                    0.874     0.874    -0.000
      P    13      Px                   0.667     0.667     0.000
      P    13      Py                   0.644     0.644     0.000
      P    13      Pz                   0.641     0.641     0.000
      P    14      S                    0.869     0.869     0.000
      P    14      Px                   0.658     0.658     0.000
      P    14      Py                   0.657     0.657    -0.000
      P    14      Pz                   0.652     0.652    -0.000
      P    15      S                    0.872     0.872    -0.000
      P    15      Px                   0.661     0.661    -0.000
      P    15      Py                   0.649     0.649     0.000
      P    15      Pz                   0.649     0.649    -0.000
      P    16      S                    0.871     0.871    -0.000
      P    16      Px                   0.659     0.659     0.000
      P    16      Py                   0.644     0.644     0.000
      P    16      Pz                   0.655     0.655     0.000
      P    17      S                    0.869     0.869    -0.000
      P    17      Px                   0.658     0.658    -0.000
      P    17      Py                   0.652     0.652    -0.000
      P    17      Pz                   0.655     0.655     0.000
      P    18      S                    0.869     0.869     0.000
      P    18      Px                   0.660     0.660    -0.000
      P    18      Py                   0.653     0.653    -0.000
      P    18      Pz                   0.646     0.646    -0.000
      P    19      S                    0.868     0.868     0.000
      P    19      Px                   0.656     0.656     0.000
      P    19      Py                   0.654     0.654     0.000
      P    19      Pz                   0.656     0.656     0.000
      P    20      S                    0.871     0.871    -0.000
      P    20      Px                   0.650     0.650     0.000
      P    20      Py                   0.659     0.659     0.000
      P    20      Pz                   0.650     0.650     0.000
      P    21      S                    0.871     0.871    -0.000
      P    21      Px                   0.650     0.650     0.000
      P    21      Py                   0.659     0.659    -0.000
      P    21      Pz                   0.650     0.650     0.000
      P    22      S                    0.873     0.873    -0.000
      P    22      Px                   0.645     0.645     0.000
      P    22      Py                   0.665     0.665    -0.000
      P    22      Pz                   0.645     0.645     0.000
      P    23      S                    0.869     0.869    -0.000
      P    23      Px                   0.653     0.653     0.000
      P    23      Py                   0.658     0.658     0.000
      P    23      Pz                   0.653     0.653     0.000
      P    24      S                    0.874     0.874    -0.000
      P    24      Px                   0.641     0.641    -0.000
      P    24      Py                   0.644     0.644     0.000
      P    24      Pz                   0.667     0.667    -0.000
      P    25      S                    0.868     0.868    -0.000
      P    25      Px                   0.654     0.654    -0.000
      P    25      Py                   0.658     0.658    -0.000
      P    25      Pz                   0.652     0.652    -0.000
      P    26      S                    0.869     0.869     0.000
      P    26      Px                   0.652     0.652    -0.000
      P    26      Py                   0.657     0.657    -0.000
      P    26      Pz                   0.658     0.658     0.000
      P    27      S                    0.872     0.872     0.000
      P    27      Px                   0.649     0.649     0.000
      P    27      Py                   0.649     0.649    -0.000
      P    27      Pz                   0.661     0.661    -0.000
      P    28      S                    0.868     0.868    -0.000
      P    28      Px                   0.658     0.658    -0.000
      P    28      Py                   0.656     0.656     0.000
      P    28      Pz                   0.654     0.654     0.000
      P    29      S                    0.868     0.868    -0.000
      P    29      Px                   0.654     0.654    -0.000
      P    29      Py                   0.656     0.656     0.000
      P    29      Pz                   0.658     0.658    -0.000
      P    30      S                    0.869     0.869     0.000
      P    30      Px                   0.654     0.654    -0.000
      P    30      Py                   0.656     0.656    -0.000
      P    30      Pz                   0.654     0.654    -0.000
      P    31      S                    0.870     0.870     0.000
      P    31      Px                   0.653     0.653     0.000
      P    31      Py                   0.657     0.657    -0.000
      P    31      Pz                   0.653     0.653     0.000
     In     1      Dzz                  1.000     1.000     0.000
     In     1      Dzy                  0.999     0.999     0.000
     In     1      Dzx                  0.998     0.998     0.000
     In     1      Dxx-yy               1.000     1.000     0.000
     In     1      Dxy                  0.999     0.999     0.000
     In     1      S                    0.706     0.706     0.000
     In     1      Px                   0.238     0.238     0.000
     In     1      Py                   0.250     0.250    -0.000
     In     1      Pz                   0.238     0.238    -0.000
     In     1      S                   -0.244    -0.244     0.000
     In     2      Dzz                  0.998     0.998     0.000
     In     2      Dzy                  0.999     0.999     0.000
     In     2      Dzx                  0.999     0.999     0.000
     In     2      Dxx-yy               0.999     0.999     0.000
     In     2      Dxy                  0.999     0.999     0.000
     In     2      S                    0.729     0.729     0.000
     In     2      Px                   0.260     0.260     0.000
     In     2      Py                   0.300     0.300     0.000
     In     2      Pz                   0.260     0.260     0.000
     In     2      S                   -0.144    -0.144     0.000
     In     3      Dzz                  1.000     1.000    -0.000
     In     3      Dzy                  0.998     0.998    -0.000
     In     3      Dzx                  0.998     0.998    -0.000
     In     3      Dxx-yy               1.000     1.000    -0.000
     In     3      Dxy                  0.999     0.999    -0.000
     In     3      S                    0.708     0.708     0.000
     In     3      Px                   0.233     0.233    -0.000
     In     3      Py                   0.234     0.234     0.000
     In     3      Pz                   0.251     0.251    -0.000
     In     3      S                   -0.244    -0.244    -0.000
     In     4      Dzz                  1.000     1.000    -0.000
     In     4      Dzy                  0.999     0.999     0.000
     In     4      Dzx                  0.998     0.998    -0.000
     In     4      Dxx-yy               1.000     1.000    -0.000
     In     4      Dxy                  0.998     0.998    -0.000
     In     4      S                    0.708     0.708     0.000
     In     4      Px                   0.251     0.251     0.000
     In     4      Py                   0.234     0.234     0.000
     In     4      Pz                   0.233     0.233    -0.000
     In     4      S                   -0.244    -0.244    -0.000
     In     5      Dzz                  1.000     1.000     0.000
     In     5      Dzy                  0.998     0.998    -0.000
     In     5      Dzx                  0.999     0.999     0.000
     In     5      Dxx-yy               1.000     1.000     0.000
     In     5      Dxy                  0.999     0.999    -0.000
     In     5      S                    0.718     0.718    -0.000
     In     5      Px                   0.233     0.233    -0.000
     In     5      Py                   0.238     0.238    -0.000
     In     5      Pz                   0.230     0.230     0.000
     In     5      S                   -0.249    -0.249    -0.000
     In     6      Dzz                  1.000     1.000     0.000
     In     6      Dzy                  0.999     0.999    -0.000
     In     6      Dzx                  0.998     0.998    -0.000
     In     6      Dxx-yy               1.000     1.000     0.000
     In     6      Dxy                  0.998     0.998    -0.000
     In     6      S                    0.713     0.713    -0.000
     In     6      Px                   0.243     0.243    -0.000
     In     6      Py                   0.240     0.240     0.000
     In     6      Pz                   0.237     0.237     0.000
     In     6      S                   -0.278    -0.278    -0.000
     In     7      Dzz                  1.000     1.000     0.000
     In     7      Dzy                  0.998     0.998    -0.000
     In     7      Dzx                  0.999     0.999     0.000
     In     7      Dxx-yy               1.000     1.000     0.000
     In     7      Dxy                  0.998     0.998     0.000
     In     7      S                    0.708     0.708     0.000
     In     7      Px                   0.241     0.241     0.000
     In     7      Py                   0.245     0.245     0.000
     In     7      Pz                   0.236     0.236     0.000
     In     7      S                   -0.269    -0.269    -0.000
     In     8      Dzz                  0.999     0.999     0.000
     In     8      Dzy                  0.998     0.998    -0.000
     In     8      Dzx                  0.998     0.998    -0.000
     In     8      Dxx-yy               1.000     1.000     0.000
     In     8      Dxy                  0.998     0.998    -0.000
     In     8      S                    0.731     0.731     0.000
     In     8      Px                   0.265     0.265    -0.000
     In     8      Py                   0.242     0.242     0.000
     In     8      Pz                   0.240     0.240     0.000
     In     8      S                   -0.211    -0.211    -0.000
     In     9      Dzz                  1.000     1.000     0.000
     In     9      Dzy                  0.998     0.998    -0.000
     In     9      Dzx                  0.998     0.998    -0.000
     In     9      Dxx-yy               1.000     1.000     0.000
     In     9      Dxy                  0.998     0.998    -0.000
     In     9      S                    0.716     0.716    -0.000
     In     9      Px                   0.239     0.239    -0.000
     In     9      Py                   0.245     0.245     0.000
     In     9      Pz                   0.239     0.239    -0.000
     In     9      S                   -0.271    -0.271     0.000
     In    10      Dzz                  0.999     0.999     0.000
     In    10      Dzy                  0.998     0.998     0.000
     In    10      Dzx                  0.998     0.998    -0.000
     In    10      Dxx-yy               0.999     0.999     0.000
     In    10      Dxy                  0.998     0.998     0.000
     In    10      S                    0.732     0.732     0.000
     In    10      Px                   0.251     0.251     0.000
     In    10      Py                   0.272     0.272     0.000
     In    10      Pz                   0.251     0.251     0.000
     In    10      S                   -0.254    -0.254     0.000
     In    11      Dzz                  1.000     1.000    -0.000
     In    11      Dzy                  0.998     0.998     0.000
     In    11      Dzx                  0.998     0.998     0.000
     In    11      Dxx-yy               1.000     1.000    -0.000
     In    11      Dxy                  0.998     0.998    -0.000
     In    11      S                    0.705     0.705    -0.000
     In    11      Px                   0.238     0.238     0.000
     In    11      Py                   0.238     0.238     0.000
     In    11      Pz                   0.251     0.251    -0.000
     In    11      S                   -0.231    -0.231    -0.000
     In    12      Dzz                  1.000     1.000    -0.000
     In    12      Dzy                  0.998     0.998    -0.000
     In    12      Dzx                  0.998     0.998     0.000
     In    12      Dxx-yy               1.000     1.000    -0.000
     In    12      Dxy                  0.998     0.998     0.000
     In    12      S                    0.705     0.705    -0.000
     In    12      Px                   0.251     0.251    -0.000
     In    12      Py                   0.238     0.238     0.000
     In    12      Pz                   0.238     0.238     0.000
     In    12      S                   -0.231    -0.231    -0.000
     In    13      Dzz                  1.000     1.000     0.000
     In    13      Dzy                  0.998     0.998    -0.000
     In    13      Dzx                  0.998     0.998    -0.000
     In    13      Dxx-yy               1.000     1.000     0.000
     In    13      Dxy                  0.999     0.999    -0.000
     In    13      S                    0.709     0.709    -0.000
     In    13      Px                   0.241     0.241    -0.000
     In    13      Py                   0.235     0.235     0.000
     In    13      Pz                   0.240     0.240    -0.000
     In    13      S                   -0.277    -0.277     0.000
     In    14      Dzz                  1.000     1.000    -0.000
     In    14      Dzy                  0.998     0.998    -0.000
     In    14      Dzx                  0.998     0.998    -0.000
     In    14      Dxx-yy               1.000     1.000     0.000
     In    14      Dxy                  0.998     0.998    -0.000
     In    14      S                    0.708     0.708    -0.000
     In    14      Px                   0.251     0.251    -0.000
     In    14      Py                   0.238     0.238    -0.000
     In    14      Pz                   0.236     0.236    -0.000
     In    14      S                   -0.256    -0.256    -0.000
     In    15      Dzz                  1.000     1.000     0.000
     In    15      Dzy                  0.998     0.998    -0.000
     In    15      Dzx                  0.998     0.998    -0.000
     In    15      Dxx-yy               1.000     1.000    -0.000
     In    15      Dxy                  0.998     0.998    -0.000
     In    15      S                    0.708     0.708     0.000
     In    15      Px                   0.241     0.241    -0.000
     In    15      Py                   0.241     0.241    -0.000
     In    15      Pz                   0.240     0.240    -0.000
     In    15      S                   -0.268    -0.268    -0.000
     In    16      Dzz                  1.000     1.000     0.000
     In    16      Dzy                  0.998     0.998     0.000
     In    16      Dzx                  0.999     0.999    -0.000
     In    16      Dxx-yy               1.000     1.000    -0.000
     In    16      Dxy                  0.999     0.999     0.000
     In    16      S                    0.704     0.704     0.000
     In    16      Px                   0.247     0.247     0.000
     In    16      Py                   0.241     0.241    -0.000
     In    16      Pz                   0.239     0.239     0.000
     In    16      S                   -0.238    -0.238     0.000
     In    17      Dzz                  1.000     1.000     0.000
     In    17      Dzy                  0.999     0.999     0.000
     In    17      Dzx                  0.999     0.999     0.000
     In    17      Dxx-yy               1.000     1.000     0.000
     In    17      Dxy                  0.998     0.998    -0.000
     In    17      S                    0.718     0.718    -0.000
     In    17      Px                   0.230     0.230     0.000
     In    17      Py                   0.238     0.238    -0.000
     In    17      Pz                   0.233     0.233    -0.000
     In    17      S                   -0.249    -0.249     0.000
     In    18      Dzz                  1.000     1.000     0.000
     In    18      Dzy                  0.998     0.998    -0.000
     In    18      Dzx                  0.998     0.998    -0.000
     In    18      Dxx-yy               1.000     1.000     0.000
     In    18      Dxy                  0.999     0.999    -0.000
     In    18      S                    0.713     0.713     0.000
     In    18      Px                   0.237     0.237     0.000
     In    18      Py                   0.240     0.240     0.000
     In    18      Pz                   0.243     0.243     0.000
     In    18      S                   -0.278    -0.278    -0.000
     In    19      Dzz                  1.000     1.000     0.000
     In    19      Dzy                  0.998     0.998    -0.000
     In    19      Dzx                  0.998     0.998    -0.000
     In    19      Dxx-yy               0.999     0.999     0.000
     In    19      Dxy                  0.998     0.998     0.000
     In    19      S                    0.731     0.731     0.000
     In    19      Px                   0.240     0.240    -0.000
     In    19      Py                   0.242     0.242     0.000
     In    19      Pz                   0.265     0.265     0.000
     In    19      S                   -0.211    -0.211    -0.000
     In    20      Dzz                  1.000     1.000     0.000
     In    20      Dzy                  0.998     0.998     0.000
     In    20      Dzx                  0.999     0.999     0.000
     In    20      Dxx-yy               1.000     1.000     0.000
     In    20      Dxy                  0.998     0.998    -0.000
     In    20      S                    0.708     0.708    -0.000
     In    20      Px                   0.236     0.236     0.000
     In    20      Py                   0.245     0.245    -0.000
     In    20      Pz                   0.241     0.241    -0.000
     In    20      S                   -0.269    -0.269     0.000
     In    21      Dzz                  1.000     1.000    -0.000
     In    21      Dzy                  0.999     0.999     0.000
     In    21      Dzx                  0.998     0.998     0.000
     In    21      Dxx-yy               1.000     1.000    -0.000
     In    21      Dxy                  0.999     0.999     0.000
     In    21      S                    0.712     0.712    -0.000
     In    21      Px                   0.239     0.239    -0.000
     In    21      Py                   0.242     0.242    -0.000
     In    21      Pz                   0.239     0.239    -0.000
     In    21      S                   -0.246    -0.246     0.000
     In    22      Dzz                  1.000     1.000     0.000
     In    22      Dzy                  0.998     0.998    -0.000
     In    22      Dzx                  0.998     0.998     0.000
     In    22      Dxx-yy               1.000     1.000    -0.000
     In    22      Dxy                  0.998     0.998     0.000
     In    22      S                    0.707     0.707    -0.000
     In    22      Px                   0.241     0.241     0.000
     In    22      Py                   0.243     0.243    -0.000
     In    22      Pz                   0.241     0.241     0.000
     In    22      S                   -0.243    -0.243     0.000
     In    23      Dzz                  1.000     1.000     0.000
     In    23      Dzy                  0.998     0.998    -0.000
     In    23      Dzx                  0.999     0.999    -0.000
     In    23      Dxx-yy               1.000     1.000     0.000
     In    23      Dxy                  0.998     0.998    -0.000
     In    23      S                    0.707     0.707     0.000
     In    23      Px                   0.240     0.240     0.000
     In    23      Py                   0.243     0.243    -0.000
     In    23      Pz                   0.237     0.237    -0.000
     In    23      S                   -0.274    -0.274    -0.000
     In    24      Dzz                  1.000     1.000     0.000
     In    24      Dzy                  0.998     0.998    -0.000
     In    24      Dzx                  0.999     0.999    -0.000
     In    24      Dxx-yy               1.000     1.000     0.000
     In    24      Dxy                  0.998     0.998    -0.000
     In    24      S                    0.707     0.707     0.000
     In    24      Px                   0.237     0.237    -0.000
     In    24      Py                   0.243     0.243    -0.000
     In    24      Pz                   0.240     0.240     0.000
     In    24      S                   -0.274    -0.274    -0.000
     In    25      Dzz                  1.000     1.000     0.000
     In    25      Dzy                  0.999     0.999    -0.000
     In    25      Dzx                  0.998     0.998    -0.000
     In    25      Dxx-yy               1.000     1.000     0.000
     In    25      Dxy                  0.998     0.998     0.000
     In    25      S                    0.709     0.709     0.000
     In    25      Px                   0.240     0.240    -0.000
     In    25      Py                   0.235     0.235    -0.000
     In    25      Pz                   0.241     0.241    -0.000
     In    25      S                   -0.277    -0.277    -0.000
     In    26      Dzz                  1.000     1.000     0.000
     In    26      Dzy                  0.998     0.998    -0.000
     In    26      Dzx                  0.998     0.998    -0.000
     In    26      Dxx-yy               0.999     0.999    -0.000
     In    26      Dxy                  0.998     0.998    -0.000
     In    26      S                    0.708     0.708     0.000
     In    26      Px                   0.236     0.236     0.000
     In    26      Py                   0.238     0.238    -0.000
     In    26      Pz                   0.251     0.251     0.000
     In    26      S                   -0.256    -0.256    -0.000
     In    27      Dzz                  1.000     1.000    -0.000
     In    27      Dzy                  0.999     0.999     0.000
     In    27      Dzx                  0.999     0.999     0.000
     In    27      Dxx-yy               1.000     1.000     0.000
     In    27      Dxy                  0.998     0.998     0.000
     In    27      S                    0.704     0.704    -0.000
     In    27      Px                   0.239     0.239     0.000
     In    27      Py                   0.241     0.241     0.000
     In    27      Pz                   0.247     0.247     0.000
     In    27      S                   -0.238    -0.238    -0.000
     In    28      Dzz                  1.000     1.000     0.000
     In    28      Dzy                  0.998     0.998     0.000
     In    28      Dzx                  0.998     0.998    -0.000
     In    28      Dxx-yy               1.000     1.000     0.000
     In    28      Dxy                  0.998     0.998    -0.000
     In    28      S                    0.708     0.708     0.000
     In    28      Px                   0.240     0.240     0.000
     In    28      Py                   0.241     0.241     0.000
     In    28      Pz                   0.241     0.241    -0.000
     In    28      S                   -0.268    -0.268     0.000
     In    29      Dzz                  1.000     1.000    -0.000
     In    29      Dzy                  0.999     0.999     0.000
     In    29      Dzx                  0.999     0.999     0.000
     In    29      Dxx-yy               1.000     1.000     0.000
     In    29      Dxy                  0.999     0.999     0.000
     In    29      S                    0.729     0.729     0.000
     In    29      Px                   0.227     0.227    -0.000
     In    29      Py                   0.243     0.243     0.000
     In    29      Pz                   0.227     0.227     0.000
     In    29      S                   -0.264    -0.264     0.000
     In    30      Dzz                  1.000     1.000     0.000
     In    30      Dzy                  0.998     0.998    -0.000
     In    30      Dzx                  0.998     0.998    -0.000
     In    30      Dxx-yy               1.000     1.000     0.000
     In    30      Dxy                  0.998     0.998    -0.000
     In    30      S                    0.709     0.709     0.000
     In    30      Px                   0.239     0.239     0.000
     In    30      Py                   0.242     0.242     0.000
     In    30      Pz                   0.239     0.239     0.000
     In    30      S                   -0.225    -0.225    -0.000
     In    31      Dzz                  1.000     1.000     0.000
     In    31      Dzy                  0.999     0.999    -0.000
     In    31      Dzx                  0.998     0.998    -0.000
     In    31      Dxx-yy               1.000     1.000     0.000
     In    31      Dxy                  0.998     0.998     0.000
     In    31      S                    0.712     0.712    -0.000
     In    31      Px                   0.236     0.236    -0.000
     In    31      Py                   0.240     0.240    -0.000
     In    31      Pz                   0.240     0.240     0.000
     In    31      S                   -0.258    -0.258     0.000
     In    32      Dzz                  1.000     1.000     0.000
     In    32      Dzy                  0.998     0.998     0.000
     In    32      Dzx                  0.998     0.998    -0.000
     In    32      Dxx-yy               1.000     1.000    -0.000
     In    32      Dxy                  0.999     0.999     0.000
     In    32      S                    0.712     0.712    -0.000
     In    32      Px                   0.240     0.240     0.000
     In    32      Py                   0.240     0.240    -0.000
     In    32      Pz                   0.236     0.236     0.000
     In    32      S                   -0.258    -0.258     0.000
  ---------------------------------------------------------------
                           Total:     285.500   285.500     0.000
  ---------------------------------------------------------------

     Atomic Populations (Mulliken)
     -----------------------------
Species          Ion Spin      s       p       d       f      Total   Charge(e)   Spin(hbar/2)
==============================================================================================
  P               1   up:     0.884   1.935   0.000   0.000   2.819    -0.638       -0.000
                  1   dn:     0.884   1.935   0.000   0.000   2.819
  P               2   up:     0.884   1.935   0.000   0.000   2.819    -0.638       -0.000
                  2   dn:     0.884   1.935   0.000   0.000   2.819
  P               3   up:     0.871   1.955   0.000   0.000   2.826    -0.653       -0.000
                  3   dn:     0.871   1.955   0.000   0.000   2.826
  P               4   up:     0.869   1.964   0.000   0.000   2.833    -0.667        0.000
                  4   dn:     0.869   1.964   0.000   0.000   2.833
  P               5   up:     0.871   1.957   0.000   0.000   2.828    -0.656       -0.000
                  5   dn:     0.871   1.957   0.000   0.000   2.828
  P               6   up:     0.869   1.959   0.000   0.000   2.829    -0.657       -0.000
                  6   dn:     0.869   1.959   0.000   0.000   2.829
  P               7   up:     0.868   1.966   0.000   0.000   2.834    -0.668        0.000
                  7   dn:     0.868   1.966   0.000   0.000   2.834
  P               8   up:     0.869   1.961   0.000   0.000   2.830    -0.660        0.000
                  8   dn:     0.869   1.961   0.000   0.000   2.830
  P               9   up:     0.869   1.961   0.000   0.000   2.830    -0.660        0.000
                  9   dn:     0.869   1.961   0.000   0.000   2.830
  P              10   up:     0.899   1.887   0.000   0.000   2.786    -0.572       -0.000
                 10   dn:     0.899   1.887   0.000   0.000   2.786
  P              11   up:     0.906   1.869   0.000   0.000   2.775    -0.549       -0.000
                 11   dn:     0.906   1.869   0.000   0.000   2.775
  P              12   up:     0.868   1.965   0.000   0.000   2.833    -0.667       -0.000
                 12   dn:     0.868   1.965   0.000   0.000   2.833
  P              13   up:     0.874   1.951   0.000   0.000   2.826    -0.651        0.000
                 13   dn:     0.874   1.951   0.000   0.000   2.826
  P              14   up:     0.869   1.967   0.000   0.000   2.835    -0.671        0.000
                 14   dn:     0.869   1.967   0.000   0.000   2.835
  P              15   up:     0.872   1.960   0.000   0.000   2.832    -0.663       -0.000
                 15   dn:     0.872   1.960   0.000   0.000   2.832
  P              16   up:     0.871   1.957   0.000   0.000   2.828    -0.656        0.000
                 16   dn:     0.871   1.957   0.000   0.000   2.828
  P              17   up:     0.869   1.964   0.000   0.000   2.833    -0.667        0.000
                 17   dn:     0.869   1.964   0.000   0.000   2.833
  P              18   up:     0.869   1.959   0.000   0.000   2.829    -0.657       -0.000
                 18   dn:     0.869   1.959   0.000   0.000   2.829
  P              19   up:     0.868   1.966   0.000   0.000   2.834    -0.668        0.000
                 19   dn:     0.868   1.966   0.000   0.000   2.834
  P              20   up:     0.871   1.959   0.000   0.000   2.830    -0.659        0.000
                 20   dn:     0.871   1.958   0.000   0.000   2.830
  P              21   up:     0.871   1.959   0.000   0.000   2.830    -0.659        0.000
                 21   dn:     0.871   1.958   0.000   0.000   2.830
  P              22   up:     0.873   1.954   0.000   0.000   2.827    -0.655        0.000
                 22   dn:     0.873   1.954   0.000   0.000   2.827
  P              23   up:     0.869   1.964   0.000   0.000   2.833    -0.666        0.000
                 23   dn:     0.869   1.964   0.000   0.000   2.833
  P              24   up:     0.874   1.951   0.000   0.000   2.826    -0.651       -0.000
                 24   dn:     0.874   1.951   0.000   0.000   2.826
  P              25   up:     0.868   1.965   0.000   0.000   2.833    -0.667       -0.000
                 25   dn:     0.868   1.965   0.000   0.000   2.833
  P              26   up:     0.869   1.967   0.000   0.000   2.835    -0.671        0.000
                 26   dn:     0.869   1.967   0.000   0.000   2.835
  P              27   up:     0.872   1.960   0.000   0.000   2.832    -0.663        0.000
                 27   dn:     0.872   1.960   0.000   0.000   2.832
  P              28   up:     0.868   1.968   0.000   0.000   2.836    -0.672        0.000
                 28   dn:     0.868   1.968   0.000   0.000   2.836
  P              29   up:     0.868   1.968   0.000   0.000   2.836    -0.672       -0.000
                 29   dn:     0.868   1.968   0.000   0.000   2.836
  P              30   up:     0.869   1.964   0.000   0.000   2.833    -0.667       -0.000
                 30   dn:     0.869   1.964   0.000   0.000   2.833
  P              31   up:     0.870   1.963   0.000   0.000   2.833    -0.666        0.000
                 31   dn:     0.870   1.963   0.000   0.000   2.833
  In              1   up:     0.463   0.726   4.995   0.000   6.183     0.634        0.000
                  1   dn:     0.463   0.726   4.995   0.000   6.183
  In              2   up:     0.586   0.819   4.995   0.000   6.400     0.200        0.000
                  2   dn:     0.586   0.819   4.995   0.000   6.400
  In              3   up:     0.464   0.719   4.995   0.000   6.177     0.646       -0.000
                  3   dn:     0.464   0.719   4.995   0.000   6.177
  In              4   up:     0.464   0.719   4.995   0.000   6.177     0.646       -0.000
                  4   dn:     0.464   0.719   4.995   0.000   6.177
  In              5   up:     0.470   0.701   4.995   0.000   6.165     0.669       -0.000
                  5   dn:     0.470   0.701   4.995   0.000   6.165
  In              6   up:     0.435   0.720   4.994   0.000   6.149     0.702       -0.000
                  6   dn:     0.435   0.720   4.994   0.000   6.149
  In              7   up:     0.439   0.721   4.994   0.000   6.155     0.691        0.000
                  7   dn:     0.439   0.721   4.994   0.000   6.155
  In              8   up:     0.520   0.747   4.993   0.000   6.260     0.481        0.000
                  8   dn:     0.520   0.747   4.993   0.000   6.260
  In              9   up:     0.445   0.723   4.994   0.000   6.161     0.677       -0.000
                  9   dn:     0.445   0.723   4.994   0.000   6.161
  In             10   up:     0.478   0.775   4.993   0.000   6.246     0.508        0.000
                 10   dn:     0.478   0.775   4.993   0.000   6.246
  In             11   up:     0.474   0.727   4.994   0.000   6.196     0.608       -0.000
                 11   dn:     0.474   0.727   4.994   0.000   6.196
  In             12   up:     0.474   0.727   4.994   0.000   6.196     0.608       -0.000
                 12   dn:     0.474   0.727   4.994   0.000   6.196
  In             13   up:     0.432   0.715   4.995   0.000   6.142     0.716       -0.000
                 13   dn:     0.432   0.715   4.995   0.000   6.142
  In             14   up:     0.452   0.726   4.994   0.000   6.172     0.655       -0.000
                 14   dn:     0.452   0.726   4.994   0.000   6.172
  In             15   up:     0.441   0.722   4.995   0.000   6.157     0.685       -0.000
                 15   dn:     0.441   0.722   4.995   0.000   6.157
  In             16   up:     0.466   0.727   4.995   0.000   6.188     0.624        0.000
                 16   dn:     0.466   0.727   4.995   0.000   6.188
  In             17   up:     0.470   0.701   4.995   0.000   6.165     0.669        0.000
                 17   dn:     0.470   0.701   4.995   0.000   6.165
  In             18   up:     0.435   0.720   4.994   0.000   6.149     0.702        0.000
                 18   dn:     0.435   0.720   4.994   0.000   6.149
  In             19   up:     0.520   0.747   4.993   0.000   6.260     0.481        0.000
                 19   dn:     0.520   0.747   4.993   0.000   6.260
  In             20   up:     0.439   0.721   4.994   0.000   6.155     0.691        0.000
                 20   dn:     0.439   0.721   4.994   0.000   6.155
  In             21   up:     0.465   0.719   4.995   0.000   6.179     0.641       -0.000
                 21   dn:     0.465   0.719   4.995   0.000   6.179
  In             22   up:     0.464   0.725   4.995   0.000   6.183     0.633        0.000
                 22   dn:     0.464   0.725   4.995   0.000   6.183
  In             23   up:     0.433   0.721   4.994   0.000   6.148     0.703        0.000
                 23   dn:     0.433   0.721   4.995   0.000   6.148
  In             24   up:     0.433   0.721   4.994   0.000   6.148     0.703       -0.000
                 24   dn:     0.433   0.721   4.995   0.000   6.148
  In             25   up:     0.432   0.715   4.995   0.000   6.142     0.716       -0.000
                 25   dn:     0.432   0.715   4.995   0.000   6.142
  In             26   up:     0.452   0.726   4.994   0.000   6.172     0.655       -0.000
                 26   dn:     0.452   0.726   4.994   0.000   6.172
  In             27   up:     0.466   0.727   4.995   0.000   6.188     0.624        0.000
                 27   dn:     0.466   0.727   4.995   0.000   6.188
  In             28   up:     0.441   0.722   4.995   0.000   6.157     0.685        0.000
                 28   dn:     0.441   0.722   4.995   0.000   6.157
  In             29   up:     0.465   0.698   4.996   0.000   6.159     0.682        0.000
                 29   dn:     0.465   0.698   4.996   0.000   6.159
  In             30   up:     0.484   0.719   4.995   0.000   6.197     0.606        0.000
                 30   dn:     0.484   0.719   4.995   0.000   6.197
  In             31   up:     0.453   0.717   4.995   0.000   6.164     0.671       -0.000
                 31   dn:     0.453   0.717   4.995   0.000   6.164
  In             32   up:     0.453   0.717   4.995   0.000   6.164     0.671        0.000
                 32   dn:     0.453   0.717   4.995   0.000   6.164
==============================================================================================

                 Bond                   Population        Spin       Length (A)
================================================================================
              P 5  -- In 8                   0.77         0.00          2.49303
              P 16 -- In 19                  0.77         0.00          2.49303
              P 18 -- In 19                  0.77        -0.00          2.49321
              P 6  -- In 8                   0.77        -0.00          2.49321
              P 9  -- In 10                  0.73         0.00          2.52410
              P 8  -- In 10                  0.73        -0.00          2.52410
              P 10 -- In 12                  0.80         0.00          2.52453
              P 10 -- In 11                  0.80        -0.00          2.52453
              P 23 -- In 7                   0.68         0.00          2.53112
              P 23 -- In 20                  0.68         0.00          2.53112
              P 3  -- In 9                   0.65        -0.00          2.53337
              P 11 -- In 21                  0.81         0.00          2.53412
              P 27 -- In 18                  0.67         0.00          2.53747
              P 15 -- In 6                   0.67        -0.00          2.53747
              P 25 -- In 26                  0.64        -0.00          2.53771
              P 12 -- In 14                  0.64         0.00          2.53771
              P 10 -- In 1                   0.80         0.00          2.53773
              P 18 -- In 26                  0.60        -0.00          2.53807
              P 6  -- In 14                  0.60        -0.00          2.53807
              P 16 -- In 24                  0.65         0.00          2.53832
              P 5  -- In 23                  0.65         0.00          2.53832
              P 11 -- In 27                  0.78         0.00          2.54026
              P 11 -- In 16                  0.78        -0.00          2.54026
              P 8  -- In 13                  0.68        -0.00          2.54055
              P 9  -- In 25                  0.68        -0.00          2.54055
              P 1  -- In 3                   0.71         0.00          2.54318
              P 2  -- In 4                   0.71        -0.00          2.54319
              P 23 -- In 9                   0.63        -0.00          2.54370
              P 28 -- In 31                  0.66        -0.00          2.54522
              P 29 -- In 32                  0.66        -0.00          2.54522
              P 24 -- In 26                  0.63        -0.00          2.54630
              P 13 -- In 14                  0.63        -0.00          2.54630
              P 30 -- In 31                  0.68        -0.00          2.54680
              P 30 -- In 32                  0.68         0.00          2.54680
              P 29 -- In 30                  0.65         0.00          2.54726
              P 28 -- In 30                  0.65         0.00          2.54726
              P 21 -- In 7                   0.68         0.00          2.54870
              P 20 -- In 20                  0.68        -0.00          2.54870
              P 12 -- In 9                   0.67         0.00          2.54936
              P 25 -- In 9                   0.67        -0.00          2.54936
              P 20 -- In 23                  0.68        -0.00          2.55041
              P 21 -- In 24                  0.68        -0.00          2.55041
              P 19 -- In 13                  0.68         0.00          2.55088
              P 7  -- In 25                  0.68        -0.00          2.55088
              P 22 -- In 24                  0.65         0.00          2.55110
              P 22 -- In 23                  0.65        -0.00          2.55110
              P 7  -- In 4                   0.61         0.00          2.55378
              P 19 -- In 3                   0.61         0.00          2.55378
              P 19 -- In 26                  0.62         0.00          2.55502
              P 7  -- In 14                  0.62        -0.00          2.55502
              P 14 -- In 5                   0.67        -0.00          2.55603
              P 26 -- In 17                  0.67         0.00          2.55604
              P 25 -- In 28                  0.66         0.00          2.55658
              P 12 -- In 15                  0.66        -0.00          2.55658
              P 17 -- In 18                  0.68         0.00          2.55674
              P 4  -- In 6                   0.68         0.00          2.55674
              P 29 -- In 15                  0.65        -0.00          2.55674
              P 28 -- In 28                  0.65         0.00          2.55675
              P 18 -- In 20                  0.60         0.00          2.55721
              P 6  -- In 7                   0.60         0.00          2.55721
              P 31 -- In 15                  0.68         0.00          2.55730
              P 31 -- In 28                  0.68         0.00          2.55730
              P 14 -- In 15                  0.65        -0.00          2.55761
              P 26 -- In 28                  0.65         0.00          2.55761
              P 26 -- In 18                  0.67        -0.00          2.55848
              P 14 -- In 6                   0.67        -0.00          2.55848
              P 4  -- In 7                   0.68         0.00          2.55873
              P 17 -- In 20                  0.68         0.00          2.55873
              P 6  -- In 13                  0.65        -0.00          2.55902
              P 18 -- In 25                  0.65         0.00          2.55902
              P 25 -- In 11                  0.63        -0.00          2.55909
              P 12 -- In 12                  0.63        -0.00          2.55909
              P 27 -- In 11                  0.61        -0.00          2.55917
              P 15 -- In 12                  0.61        -0.00          2.55917
              P 16 -- In 18                  0.60        -0.00          2.55951
              P 5  -- In 6                   0.60        -0.00          2.55951
              P 23 -- In 30                  0.61         0.00          2.55996
              P 29 -- In 13                  0.65        -0.00          2.56017
              P 28 -- In 25                  0.65        -0.00          2.56017
              P 20 -- In 22                  0.61         0.00          2.56121
              P 21 -- In 22                  0.61         0.00          2.56121
              P 27 -- In 5                   0.65        -0.00          2.56376
              P 15 -- In 17                  0.65        -0.00          2.56376
              P 31 -- In 22                  0.63         0.00          2.56423
              P 3  -- In 4                   0.63        -0.00          2.56464
              P 3  -- In 3                   0.63        -0.00          2.56464
              P 9  -- In 12                  0.59         0.00          2.56617
              P 8  -- In 11                  0.59         0.00          2.56617
              P 19 -- In 24                  0.66        -0.00          2.56630
              P 7  -- In 23                  0.66        -0.00          2.56630
              P 3  -- In 10                  0.57        -0.00          2.56632
              P 14 -- In 16                  0.62         0.00          2.56664
              P 26 -- In 27                  0.62        -0.00          2.56664
              P 8  -- In 16                  0.62        -0.00          2.56765
              P 9  -- In 27                  0.62         0.00          2.56765
              P 24 -- In 27                  0.59         0.00          2.56842
              P 13 -- In 16                  0.59        -0.00          2.56842
              P 30 -- In 22                  0.61         0.00          2.56880
              P 17 -- In 3                   0.65        -0.00          2.56881
              P 4  -- In 4                   0.65        -0.00          2.56881
              P 30 -- In 21                  0.60         0.00          2.56916
              P 4  -- In 1                   0.61        -0.00          2.57201
              P 17 -- In 1                   0.61         0.00          2.57201
              P 22 -- In 30                  0.59         0.00          2.57546
              P 27 -- In 32                  0.63         0.00          2.57619
              P 15 -- In 31                  0.63         0.00          2.57619
              P 31 -- In 1                   0.60        -0.00          2.57804
              P 13 -- In 31                  0.62         0.00          2.57972
              P 24 -- In 32                  0.62         0.00          2.57972
              P 16 -- In 21                  0.60         0.00          2.58213
              P 5  -- In 21                  0.60         0.00          2.58213
              P 13 -- In 29                  0.68         0.00          2.58416
              P 24 -- In 29                  0.68        -0.00          2.58416
              P 2  -- In 17                  0.64         0.00          2.58553
              P 1  -- In 5                   0.64        -0.00          2.58553
              P 22 -- In 29                  0.65        -0.00          2.58758
              P 1  -- In 8                   0.61        -0.00          2.59122
              P 2  -- In 19                  0.61        -0.00          2.59122
              P 20 -- In 17                  0.58        -0.00          2.60312
              P 21 -- In 5                   0.58        -0.00          2.60312
             In 2  -- In 10                 -0.04         0.00          2.81894
              P 1  -- In 2                   0.36        -0.00          2.83888
              P 2  -- In 2                   0.36         0.00          2.83888
             In 2  -- In 19                 -0.09        -0.00          2.84162
             In 2  -- In 8                  -0.09         0.00          2.84162
================================================================================

 Hirshfeld supercell size:           2           2           2
Standard grid dimensions: 240 240 240
Fine grid dimensions:     240 240 240


     Hirshfeld Analysis
     ------------------
Species   Ion     Hirshfeld Charge (e)  Spin (hbar/2)
===================================================
  P        1                -0.26       -0.00
  P        2                -0.26       -0.00
  P        3                -0.23        0.00
  P        4                -0.24        0.00
  P        5                -0.22        0.00
  P        6                -0.23        0.00
  P        7                -0.24       -0.00
  P        8                -0.23        0.00
  P        9                -0.23        0.00
  P       10                -0.25       -0.00
  P       11                -0.24       -0.00
  P       12                -0.24        0.00
  P       13                -0.23        0.00
  P       14                -0.24        0.00
  P       15                -0.22        0.00
  P       16                -0.22        0.00
  P       17                -0.24        0.00
  P       18                -0.23        0.00
  P       19                -0.24       -0.00
  P       20                -0.24        0.00
  P       21                -0.24        0.00
  P       22                -0.23        0.00
  P       23                -0.23        0.00
  P       24                -0.23        0.00
  P       25                -0.24        0.00
  P       26                -0.24        0.00
  P       27                -0.22        0.00
  P       28                -0.24       -0.00
  P       29                -0.24       -0.00
  P       30                -0.24       -0.00
  P       31                -0.24       -0.00
  In       1                 0.22        0.00
  In       2                 0.13        0.00
  In       3                 0.23        0.00
  In       4                 0.23        0.00
  In       5                 0.26        0.00
  In       6                 0.24        0.00
  In       7                 0.24        0.00
  In       8                 0.21        0.00
  In       9                 0.24        0.00
  In      10                 0.18        0.00
  In      11                 0.22        0.00
  In      12                 0.22        0.00
  In      13                 0.24        0.00
  In      14                 0.22        0.00
  In      15                 0.24        0.00
  In      16                 0.22        0.00
  In      17                 0.26        0.00
  In      18                 0.24        0.00
  In      19                 0.21        0.00
  In      20                 0.24        0.00
  In      21                 0.23        0.00
  In      22                 0.23       -0.00
  In      23                 0.23        0.00
  In      24                 0.23        0.00
  In      25                 0.24        0.00
  In      26                 0.22        0.00
  In      27                 0.22        0.00
  In      28                 0.24        0.00
  In      29                 0.22        0.00
  In      30                 0.24        0.00
  In      31                 0.24        0.00
  In      32                 0.24        0.00
===================================================

 
 A BibTeX formatted list of references used in this run has been written to 
 P_Vacancy_Migration_5->3_Singlepoints_5.bib
 
Initialisation time =     30.59 s
Calculation time    =  16733.91 s
Finalisation time   =    157.58 s
Total time          =  16922.09 s
Peak Memory Use     = 9571036 kB
 
Overall parallel efficiency rating: Terrible (30%)
 
Data was distributed by:-
G-vector (3-way); efficiency rating: Terrible (33%)
k-point (36-way); efficiency rating: Good (76%)
