 +-------------------------------------------------+
 |                                                 |
 |      CCC   AA    SSS  TTTTT  EEEEE  PPPP        |
 |     C     A  A  S       T    E      P   P       |
 |     C     AAAA   SS     T    EEE    PPPP        |
 |     C     A  A     S    T    E      P           |
 |      CCC  A  A  SSS     T    EEEEE  P           |
 |                                                 |
 +-------------------------------------------------+
 |                                                 |
 | Welcome to Academic Release CASTEP version 20.11|          
 | Ab Initio Total Energy Program                  |
 |                                                 |
 | Authors:                                        |
 | M. Segall, M. Probert, C. Pickard, P. Hasnip,   |
 | S. Clark, K. Refson, J. R. Yates, M. Payne      |
 |                                                 |
 | Contributors:                                   |
 | P. Lindan, P. Haynes, J. White, V. Milman,      |
 | N. Govind, M. Gibson, P. Tulip, V. Cocula,      |
 | B. Montanari, D. Quigley, M. Glover,            |
 | L. Bernasconi, A. Perlov, M. Plummer,           |
 | E. McNellis, J. Meyer, J. Gale, D. Jochym       |
 | J. Aarons, B. Walker, R. Gillen, D. Jones       |
 | T. Green, I. J. Bush, C. J. Armstrong,          |
 | E. J. Higgins, E. L. Brown, M. S. McFly,        |
 | J. Wilkins, B-C. Shih, P. J. P. Byrne,          |
 | R. J. Maurer, J. C. Womack, J. Dziedzic,        |
 | J. R. Kermode, A. Bartok-Partay                 |
 |                                                 |
 | Copyright (c) 2000 - 2020                       |
 |                                                 |
 |     Distributed under license from Cambridge    |
 |     Enterprise for academic use only.           |
 |                                                 |
 | Please cite                                     |
 |                                                 |
 |     "First principles methods using CASTEP"     |
 |                                                 |
 |         Zeitschrift fuer Kristallographie       |
 |           220(5-6) pp. 567-570 (2005)           |
 |                                                 |
 | S. J. Clark, M. D. Segall, C. J. Pickard,       |
 | P. J. Hasnip, M. J. Probert, K. Refson,         |
 | M. C. Payne                                     |
 |                                                 |
 |       in all publications arising from          |
 |              your use of CASTEP                 |
 |                                                 |
 +-------------------------------------------------+
 |                                                 |
 |              http://www.castep.org              |
 |                                                 |
 +-------------------------------------------------+
 
 
 
 Compiled for linux_x86_64_ifort on Wed, 25 Aug 2021 18:50:38 +0100
 from code version e772bf432+  HEAD  Sat Apr 3 17:41:32 2021 +0100
 Compiler: Intel Fortran 19.0.5.281; Optimisation: fast
 MATHLIBS: Intel MKL(2019.0.5) (LAPACK version 3.7.0)
 FFT Lib : mkl
 Fundamental constants values: CODATA 2014
 
 Run started: Fri, 16 Dec 2022 15:00:16 +0000
 
 Atomic calculation performed for P: 1s2 2s2 2p6 3s2 3p3
 
 Exceeded max iterations: converged to -0.000003405 eV
 The ae energy is -9309.074 eV
 
   ============================================================                
   | Pseudopotential Report - Date of generation 16-12-2022   |                
   ------------------------------------------------------------                
   | Element: P Ionic charge:  5.00 Level of theory: RSCAN    |                
   | Atomic Solver: Koelling-Harmon                           |                
   |                                                          |                
   |               Reference Electronic Structure             |                
   |         Orbital         Occupation         Energy        |                
   |            3s              2.000           -0.535        |                
   |            3p              3.000           -0.209        |                
   |                                                          |                
   |                 Pseudopotential Definition               |                
   |        Beta     l      e      Rc     scheme   norm       |                
   |          1      0   -0.535   1.807     qc      0         |                
   |          2      0    0.250   1.807     qc      0         |                
   |          3      1   -0.209   1.807     qc      0         |                
   |          4      1    0.250   1.807     qc      0         |                
   |          5      2    0.000   1.807     qc      0         |                
   |          6      2    0.250   1.807     qc      0         |                
   |         loc     3    0.000   1.807     pn      0         |                
   |                                                          |                
   | Augmentation charge Rinner = 1.263                       |                
   | Partial core correction Rc = 1.263                       |                
   ------------------------------------------------------------                
   | "3|1.8|4|4|5|30:31:32"                                   |                
   ------------------------------------------------------------                
   |      Author: Chris J. Pickard, Cambridge University      |                
   ============================================================                
 Warning: ion_atom_output_psp cannot write out meta-GGA pseudopotentials present
 ly.
 
 Atomic calculation performed for In:
 1s2 2s2 2p6 3s2 3p6 3d10 4s2 4p6 4d10 5s2 5p1
 
 Exceeded max iterations: converged to -0.000725459 eV
 The ae energy is -160093.321 eV
 
   ============================================================                
   | Pseudopotential Report - Date of generation 16-12-2022   |                
   ------------------------------------------------------------                
   | Element: In Ionic charge: 13.00 Level of theory: RSCAN   |                
   | Atomic Solver: Koelling-Harmon                           |                
   |                                                          |                
   |               Reference Electronic Structure             |                
   |         Orbital         Occupation         Energy        |                
   |            4d             10.000           -0.711        |                
   |            5s              2.000           -0.313        |                
   |            5p              1.000           -0.095        |                
   |                                                          |                
   |                 Pseudopotential Definition               |                
   |        Beta     l      e      Rc     scheme   norm       |                
   |          1      0   -0.313   2.501     qc      0         |                
   |          2      0    0.250   2.501     qc      0         |                
   |          3      1   -0.095   2.501     qc      0         |                
   |          4      1    0.250   2.501     qc      0         |                
   |          5      2   -0.711   2.207     qc      0         |                
   |          6      2    0.250   2.207     qc      0         |                
   |         loc     3    0.000   2.501     pn      0         |                
   |                                                          |                
   | Augmentation charge Rinner = 1.504                       |                
   | Partial core correction Rc = 1.504                       |                
   ------------------------------------------------------------                
   | "3|2.5|2.5|1.5|7|8|9|50:51:42U2.2U2.2"                   |                
   ------------------------------------------------------------                
   |      Author: Chris J. Pickard, Cambridge University      |                
   ============================================================                
 Warning: ion_atom_output_psp cannot write out meta-GGA pseudopotentials present
 ly.
 
 Pseudo atomic calculation performed for P 3s2 3p3
 
 Converged in 23 iterations to a total energy of -208.0292 eV
 
 Pseudo atomic calculation performed for In 4d10 5s2 5p1
 
 Converged in 42 iterations to a total energy of -1747.4504 eV
 Calculation parallelised over 32 processes.
 Data is distributed by k-point(32-way)

 ************************************ Title ************************************
 

 ***************************** General Parameters ******************************
  
 output verbosity                               : normal  (1)
 write checkpoint data to                       : WZ_EOS_0.9177.check
 type of calculation                            : single point energy
 stress calculation                             : on
 density difference calculation                 : off
 electron localisation func (ELF) calculation   : off
 Hirshfeld analysis                             : off
 molecular orbital projected DOS                : off
 deltaSCF calculation                           : off
 unlimited duration calculation
 timing information                             : on
 memory usage estimate                          : on
 write extra output files                       : on
 write final potential to formatted file        : off
 write final density to formatted file          : off
 write BibTeX reference list                    : on
 write OTFG pseudopotential files               : on
 write electrostatic potential file             : on
 write bands file                               : on
 checkpoint writing                             : off
  
 output         length unit                     : A
 output           mass unit                     : amu
 output           time unit                     : ps
 output         charge unit                     : e
 output           spin unit                     : hbar/2
 output         energy unit                     : eV
 output          force unit                     : eV/A
 output       velocity unit                     : A/ps
 output       pressure unit                     : GPa
 output     inv_length unit                     : 1/A
 output      frequency unit                     : cm-1
 output force constant unit                     : eV/A**2
 output         volume unit                     : A**3
 output   IR intensity unit                     : (D/A)**2/amu
 output         dipole unit                     : D
 output         efield unit                     : eV/A/e
 output        entropy unit                     : J/mol/K
 output    efield chi2 unit                     : pm/V
  
 wavefunctions paging                           : none
 random number generator seed                   : randomised (150016611)
 data distribution                              : optimal for this architecture
 optimization strategy                          : balance speed and memory

 *********************** Exchange-Correlation Parameters ***********************
  
 using functional                               : RSCAN
 relativistic treatment                         : Koelling-Harmon
 DFT+D: Semi-empirical dispersion correction    : off

 ************************* Pseudopotential Parameters **************************
  
 pseudopotential representation                 : reciprocal space
 <beta|phi> representation                      : reciprocal space
 spin-orbit coupling                            : off

 **************************** Basis Set Parameters *****************************
  
 plane wave basis set cut-off                   :   900.0000   eV
 size of standard grid                          :     1.7500
 size of   fine   gmax                          :    26.8966   1/A
 finite basis set correction                    : automatic
 number of sample energies                      :          3
           sample  spacing                      :     5.0000   eV

 **************************** Electronic Parameters ****************************
  
 number of  electrons                           :  36.00    
 net charge of system                           :  0.000    
 treating system as non-spin-polarized
 number of bands                                :         22

 ********************* Electronic Minimization Parameters **********************
  
 Method: Treating system as metallic with density mixing treatment of electrons,
         and number of  SD  steps               :          1
         and number of  CG  steps               :          4
  
 total energy / atom convergence tol.           : 0.1000E-07   eV
 eigen-energy convergence tolerance             : 0.2222E-08   eV
 max force / atom convergence tol.              : ignored
 convergence tolerance window                   :          3   cycles
 max. number of SCF cycles                      :         30
 number of fixed-spin iterations                :         10
 smearing scheme                                : Gaussian
 smearing width                                 : 0.2000       eV
 Fermi energy convergence tolerance             : 0.2721E-13   eV
 periodic dipole correction                     : NONE

 ************************** Density Mixing Parameters **************************
  
 density-mixing scheme                          : Broyden
 max. length of mixing history                  :         20
 charge density mixing amplitude                : 0.8000    
 cut-off energy for mixing                      :  900.0       eV

 *********************** Population Analysis Parameters ************************
  
 Population analysis with cutoff                :  3.000       A
 Population analysis output                     : summary and pdos components

 *******************************************************************************
  
 
                           -------------------------------
                                      Unit Cell
                           -------------------------------
        Real Lattice(A)                      Reciprocal Lattice(1/A)
     3.8220390    -0.0000400     0.0000000        1.643925492  -0.949098205   0.000000000
     1.9109850     3.3100020     0.0000000        0.000019866   1.898230679   0.000000000
     0.0000000     0.0000000     6.2766140        0.000000000   0.000000000   1.001046951
 
                       Lattice parameters(A)       Cell Angles
                    a =      3.822039          alpha =   90.000000
                    b =      3.822038          beta  =   90.000000
                    c =      6.276614          gamma =   60.001191
 
                       Current cell volume =            79.405652       A**3
                                   density =             3.672075   AMU/A**3
                                           =             6.097624     g/cm^3
 
                           -------------------------------
                                     Cell Contents
                           -------------------------------
                         Total number of ions in cell =    4
                      Total number of species in cell =    2
                        Max number of any one species =    2
 
            xxxxxxxxxxxxxxxxxxxxxxxxxxxxxxxxxxxxxxxxxxxxxxxxxxxxxxxxxxxx
            x  Element    Atom        Fractional coordinates of atoms  x
            x            Number           u          v          w      x
            x----------------------------------------------------------x
            x  P            1         0.333329   0.333331  -0.000013   x 
            x  P            2         0.666669   0.666671   0.499987   x 
            x  In           1         0.333331   0.333333   0.374443   x 
            x  In           2         0.666667   0.666669   0.874443   x 
            xxxxxxxxxxxxxxxxxxxxxxxxxxxxxxxxxxxxxxxxxxxxxxxxxxxxxxxxxxxx
 
 
                         No user defined ionic velocities
 
                           -------------------------------
                                   Details of Species
                           -------------------------------
 
                               Mass of species in AMU
                                    P   30.9737600
                                    In  114.8180000
 
                          Electric Quadrupole Moment (Barn)
                                    P    1.0000000 No Isotope Defined
                                    In    0.7700000 Isotope115
 
                          Files used for pseudopotentials:
                                    P 3|1.8|4|4|5|30:31:32
                                    In 3|2.5|2.5|1.5|7|8|9|50:51:42U2.2U2.2
 
                           -------------------------------
                              k-Points For BZ Sampling
                           -------------------------------
                       MP grid size for SCF calculation is 11 11  7
                            with an offset of   0.045  0.045  0.071
                       Number of kpoints used =           424
 
                           -------------------------------
                               Symmetry and Constraints
                           -------------------------------
 
                      Maximum deviation from symmetry =  0.00000         ANG
 
                      Number of symmetry operations   =           1
                      Number of ionic constraints     =           3
                      Point group of crystal =     1: C1, 1, 1
                      Space group of crystal =   186: P6_3mc, P 6c -2c
 
             Set iprint > 1 for details on symmetry rotations/translations
 
                         Centre of mass is constrained
             Set iprint > 1 for details of linear ionic constraints
 
                         Number of cell constraints= 0
                         Cell constraints are:  1 2 3 4 5 6
 
                         External pressure/stress (GPa)
                          0.00000   0.00000   0.00000
                                    0.00000   0.00000
                                              0.00000
  
+---------------- MEMORY AND SCRATCH DISK ESTIMATES PER PROCESS --------------+
|                                                     Memory          Disk    |
| Baseline code, static data and system overhead      394.0 MB         0.0 MB |
| BLAS internal memory storage                          0.0 MB         0.0 MB |
| Model and support data                              228.9 MB       372.4 MB |
| Electronic energy minimisation requirements          71.7 MB         0.0 MB |
| Force calculation requirements                       10.1 MB         0.0 MB |
| Stress calculation requirements                      11.2 MB         0.0 MB |
|                                               ----------------------------- |
| Approx. total storage required per process          694.6 MB       372.4 MB |
|                                                                             |
| Requirements will fluctuate during execution and may exceed these estimates |
+-----------------------------------------------------------------------------+
Calculating finite basis set correction with  3 cut-off energies.
Calculating total energy with cut-off of  890.000 eV.
------------------------------------------------------------------------ <-- SCF
SCF loop      Energy           Fermi           Energy gain       Timer   <-- SCF
                               energy          per atom          (sec)   <-- SCF
------------------------------------------------------------------------ <-- SCF
Initial  -3.10452405E+003  0.00000000E+000                        19.52  <-- SCF
      1  -3.81700054E+003  6.59171201E+000   1.78119123E+002      36.97  <-- SCF
      2  -3.90944223E+003  5.21039540E+000   2.31104229E+001      48.38  <-- SCF
      3  -3.91166638E+003  5.57289542E+000   5.56036970E-001      60.69  <-- SCF
      4  -3.92850260E+003  6.17936245E+000   4.20905591E+000      75.66  <-- SCF
      5  -3.92851012E+003  6.17915277E+000   1.87988767E-003      90.77  <-- SCF
      6  -3.92894685E+003  6.24497192E+000   1.09182353E-001     105.62  <-- SCF
      7  -3.92803191E+003  6.45147042E+000  -2.28737047E-001     120.17  <-- SCF
      8  -3.92815469E+003  6.50863109E+000   3.06952365E-002     135.44  <-- SCF
      9  -3.92815423E+003  6.51568688E+000  -1.15002592E-004     151.25  <-- SCF
     10  -3.92815458E+003  6.52352952E+000   8.85594311E-005     166.16  <-- SCF
     11  -3.92815460E+003  6.52675646E+000   3.98466198E-006     181.98  <-- SCF
     12  -3.92815460E+003  6.52622109E+000   1.18491711E-007     195.95  <-- SCF
     13  -3.92815460E+003  6.52624068E+000   2.41569649E-009     206.57  <-- SCF
     14  -3.92815460E+003  6.52623612E+000   1.73008262E-009     216.76  <-- SCF
------------------------------------------------------------------------ <-- SCF
 
Final energy, E             =  -3928.154596816     eV
Final free energy (E-TS)    =  -3928.154596816     eV
(energies not corrected for finite basis set)
 
NB est. 0K energy (E-0.5TS)      =  -3928.154596816     eV
 
Calculating total energy with cut-off of  895.000 eV.
------------------------------------------------------------------------ <-- SCF
SCF loop      Energy           Fermi           Energy gain       Timer   <-- SCF
                               energy          per atom          (sec)   <-- SCF
------------------------------------------------------------------------ <-- SCF
Initial  -3.92815460E+003  0.00000000E+000                       220.77  <-- SCF
      1  -3.92815461E+003  6.52624146E+000   2.41607700E-006     234.47  <-- SCF
      2  -3.92815461E+003  6.52624146E+000   9.99611883E-011     244.58  <-- SCF
      3  -3.92815461E+003  6.52623798E+000   7.99496158E-010     254.71  <-- SCF
      4  -3.92815461E+003  6.52623723E+000   5.45242845E-011     264.90  <-- SCF
------------------------------------------------------------------------ <-- SCF
 
Final energy, E             =  -3928.154606496     eV
Final free energy (E-TS)    =  -3928.154606496     eV
(energies not corrected for finite basis set)
 
NB est. 0K energy (E-0.5TS)      =  -3928.154606496     eV
 
Calculating total energy with cut-off of  900.000 eV.
------------------------------------------------------------------------ <-- SCF
SCF loop      Energy           Fermi           Energy gain       Timer   <-- SCF
                               energy          per atom          (sec)   <-- SCF
------------------------------------------------------------------------ <-- SCF
Initial  -3.92815461E+003  0.00000000E+000                       268.96  <-- SCF
      1  -3.92815461E+003  6.52623680E+000   1.99908630E-006     282.88  <-- SCF
      2  -3.92815461E+003  6.52623680E+000   1.21809572E-011     292.98  <-- SCF
      3  -3.92815461E+003  6.52623714E+000   6.39210229E-010     304.00  <-- SCF
      4  -3.92815461E+003  6.52623635E+000   3.01623702E-011     314.13  <-- SCF
------------------------------------------------------------------------ <-- SCF
 
Final energy, E             =  -3928.154614508     eV
Final free energy (E-TS)    =  -3928.154614508     eV
(energies not corrected for finite basis set)
 
NB est. 0K energy (E-0.5TS)      =  -3928.154614508     eV
 
 For future reference: finite basis dEtot/dlog(Ecut) =      -0.001582eV
 Total energy corrected for finite basis set =   -3928.154614 eV
 
 ************************** Forces **************************
 *                                                          *
 *               Cartesian components (eV/A)                *
 * -------------------------------------------------------- *
 *                         x            y            z      *
 *                                                          *
 * P               1      0.00001      0.00000      0.09555 *
 * P               2     -0.00001     -0.00000      0.09555 *
 * In              1      0.00002      0.00001     -0.09555 *
 * In              2     -0.00002     -0.00001     -0.09555 *
 *                                                          *
 ************************************************************
 
 ***************** Stress Tensor *****************
 *                                               *
 *          Cartesian components (GPa)           *
 * --------------------------------------------- *
 *             x             y             z     *
 *                                               *
 *  x    -30.919387      0.000670     -0.000000  *
 *  y      0.000670    -30.920175     -0.000001  *
 *  z     -0.000000     -0.000001    -31.280190  *
 *                                               *
 *  Pressure:   31.0399                          *
 *                                               *
 *************************************************
 
 Pseudo atomic calculation performed for P 3s2 3p3
 
 Converged in 23 iterations to a total energy of -208.0292 eV
 
 Pseudo atomic calculation performed for In 4d10 5s2 5p1
 
 Converged in 42 iterations to a total energy of -1747.4504 eV
Charge spilling parameter for spin component 1 = 0.19%
 
            Orbital Populations       
     Ion    Atom   Orbital             Charge
  -------------------------------------------
      P     1      S                    1.659
      P     1      Px                   1.361
      P     1      Py                   1.361
      P     1      Pz                   1.356
      P     2      S                    1.659
      P     2      Px                   1.361
      P     2      Py                   1.361
      P     2      Pz                   1.356
     In     1      Dzz                  1.993
     In     1      Dzy                  1.996
     In     1      Dzx                  1.996
     In     1      Dxx-yy               1.994
     In     1      Dxy                  1.994
     In     1      S                    1.548
     In     1      Px                   0.527
     In     1      Py                   0.527
     In     1      Pz                   0.516
     In     1      S                   -0.829
     In     2      Dzz                  1.993
     In     2      Dzy                  1.996
     In     2      Dzx                  1.996
     In     2      Dxx-yy               1.994
     In     2      Dxy                  1.994
     In     2      S                    1.548
     In     2      Px                   0.527
     In     2      Py                   0.527
     In     2      Pz                   0.516
     In     2      S                   -0.829
  -------------------------------------------
                           Total:      36.000
  -------------------------------------------
 
     Atomic Populations (Mulliken)
     -----------------------------
Species          Ion     s      p      d      f     Total  Charge (e)
=====================================================================
  P               1     1.66   4.08   0.00   0.00   5.74    -0.74
  P               2     1.66   4.08   0.00   0.00   5.74    -0.74
  In              1     0.72   1.57   9.97   0.00  12.26     0.74
  In              2     0.72   1.57   9.97   0.00  12.26     0.74
=====================================================================
 
                 Bond                   Population      Length (A)
======================================================================
               P 2 -- In 1                   2.28        2.34314
               P 1 -- In 2                   2.28        2.34314
               P 1 -- In 1                   0.17        2.35032
               P 2 -- In 2                   0.17        2.35032
======================================================================
 
 
 A BibTeX formatted list of references used in this run has been written to 
 WZ_EOS_0.9177.bib
 
Initialisation time =     16.14 s
Calculation time    =    324.45 s
Finalisation time   =      0.16 s
Total time          =    340.75 s
Peak Memory Use     = 1451200 kB
  
Overall parallel efficiency rating: Excellent (94%)                             
  
Data was distributed by:-
k-point (32-way); efficiency rating: Excellent (95%)                            
  
Parallel notes:
1) Calculation only took 340.6 s, so efficiency estimates may be inaccurate.    
