65
Lattice="11.80255 0.0 0.0 0.0 11.80255 0.0 0.0 0.0 11.80255" Properties=species:S:1:pos:R:3:mulliken_charges:R:1 fermi_energy=4.781312370495001 core_to_fermi_energy=16.851734769525017 config_type=Interstitial energy=-64625.80711945557 pbc="T T T"
P        1.47531875       1.47531875       4.45247823      -0.63200000
P        4.45247823       1.47531875       1.47531875      -0.63200000
P        1.47531875       4.45247823       1.47531875      -0.63200000
P        4.42626130       4.42626130       4.42626130      -0.67300000
P        1.47531875       1.47531875      10.30070927      -0.63200000
P        4.43057164       1.47531875       7.37659375      -0.67100000
P        1.47531875       4.43057164       7.37659375      -0.67100000
P        4.54565603       4.54565603      10.20753147      -0.67000000
P        1.47531875       7.37659375       4.43057164      -0.67100000
P        4.43057164       7.37659375       1.47531875      -0.67100000
P        1.47531875      10.30070927       1.47531875      -0.63200000
P        4.54565603      10.20753147       4.54565603      -0.67000000
P        1.47531875       7.37659375      10.32261586      -0.67100000
P        4.43625816       7.37659375       7.37659375      -0.67400000
P        1.47531875      10.32261586       7.37659375      -0.67100000
P        4.42626130      10.32692620      10.32692620      -0.67300000
P        7.37659375       1.47531875       4.43057164      -0.67100000
P       10.30070927       1.47531875       1.47531875      -0.63200000
P        7.37659375       4.43057164       1.47531875      -0.67100000
P       10.20753147       4.54565603       4.54565603      -0.67000000
P        7.37659375       1.47531875      10.32261586      -0.67100000
P       10.32261586       1.47531875       7.37659375      -0.67100000
P        7.37659375       4.43625816       7.37659375      -0.67400000
P       10.32692620       4.42626130      10.32692620      -0.67300000
P        7.37659375       7.37659375       4.43625816      -0.67400000
P       10.32261586       7.37659375       1.47531875      -0.67100000
P        7.37659375      10.32261586       1.47531875      -0.67100000
P       10.32692620      10.32692620       4.42626130      -0.67300000
P        7.37659375       7.37659375      10.31692934      -0.67400000
P       10.31692934       7.37659375       7.37659375      -0.67400000
P        7.37659375      10.31692934       7.37659375      -0.67400000
P       10.20753147      10.20753147      10.20753147      -0.67000000
In      -0.16755979      -0.16755979      -0.16755979       0.61300000
In       3.11819729      -0.16755979       3.11819729       0.61300000
In      -0.16755979       3.11819729       3.11819729       0.61300000
In       3.11819729       3.11819729      -0.16755979       0.61300000
In      -0.00651635      -0.00651635       5.91313712       0.66000000
In       2.95715385      -0.00651635       8.84005038       0.66000000
In      -0.00651635       2.95715385       8.84005038       0.66100000
In       2.95715385       2.95715385       5.91313712       0.66000000
In      -0.00651635       5.91313712      -0.00651635       0.66000000
In       2.95715385       5.91313712       2.95715385       0.66000000
In      -0.00651635       8.84005038       2.95715385       0.66100000
In       2.95715385       8.84005038      -0.00651635       0.66100000
In       0.01726178       5.93761798       5.93761798       0.65700000
In       2.93337572       5.93761798       8.81556952       0.65700000
In       0.01726178       8.81556952       8.81556952       0.65700000
In       2.93337572       8.81556952       5.93761798       0.65700000
In       5.91313712      -0.00651635      -0.00651635       0.66000000
In       8.84005038      -0.00651635       2.95715385       0.66000000
In       5.91313712       2.95715385       2.95715385       0.66000000
In       8.84005038       2.95715385      -0.00651635       0.66100000
In       5.93761798       0.01726178       5.93761798       0.65700000
In       8.81556952       0.01726178       8.81556952       0.65700000
In       5.93761798       2.93337572       8.81556952       0.65700000
In       8.81556952       2.93337572       5.93761798       0.65700000
In       5.93761798       5.93761798       0.01726178       0.65700000
In       8.81556952       5.93761798       2.93337572       0.65700000
In       5.93761798       8.81556952       2.93337572       0.65700000
In       8.81556952       8.81556952       0.01726178       0.65700000
In       5.89954919       5.89954919       5.89954919       0.66500000
In       8.85363831       5.89954919       8.85363831       0.66500000
In       5.89954919       8.85363831       8.85363831       0.66500000
In       8.85363831       8.85363831       5.89954919       0.66500000
In       1.47531875       1.47531875       1.47531875       0.34500000
65
Lattice="11.80255 0.0 0.0 0.0 11.80255 0.0 0.0 0.0 11.80255" Properties=species:S:1:pos:R:3:mulliken_charges:R:1 fermi_energy=4.781312370495001 core_to_fermi_energy=16.851734769525017 config_type=Interstitial energy=-64625.79876140018 pbc="T T T"
P        1.50866571       1.44197179       4.44638362      -0.63200000
P        4.47210760       1.46997615       1.47650234      -0.63200000
P        1.50866571       4.43985743       1.44849798      -0.63200000
P        4.43306095       4.42545850       4.43198469      -0.67300000
P        1.48066135       1.46997615      10.28760609      -0.63200000
P        4.44383702       1.46003073       7.36917444      -0.67100000
P        1.48509458       4.41833719       7.37441650      -0.67100000
P        4.57742372       4.53748560      10.18228997      -0.67000000
P        1.48509458       7.36789031       4.42486338      -0.67100000
P        4.44383702       7.36264825       1.46655692      -0.67100000
P        1.48066135      10.28107990       1.47650234      -0.63200000
P        4.57742372      10.17576378       4.54401179      -0.67000000
P        1.49060677       7.36264825      10.31587667      -0.67100000
P        4.45292372       7.36900064       7.37552684      -0.67400000
P        1.49060677      10.30935048       7.36917444      -0.67100000
P        4.42363440      10.32955310      10.33607929      -0.67300000
P        7.38529719       1.46554292       4.42486338      -0.67100000
P       10.31333007       1.44197179       1.44849798      -0.63200000
P        7.38529719       4.41833719       1.47206911      -0.67100000
P       10.26928548       4.48390202       4.49042821      -0.67000000
P        7.39053925       1.46003073      10.31587667      -0.67100000
P       10.33485031       1.46554292       7.37441650      -0.67100000
P        7.40494464       4.41916100       7.35476905      -0.67400000
P       10.32772900       4.42545850      10.32665274      -0.67300000
P        7.40494464       7.34824286       4.42568719      -0.67400000
P       10.33485031       7.36789031       1.47206911      -0.67100000
P        7.39053925      10.30935048       1.46655692      -0.67100000
P       10.32772900      10.32012655       4.43198469      -0.67300000
P        7.38418686       7.36900064      10.30678997      -0.67400000
P       10.33402650       7.34824286       7.35476905      -0.67400000
P        7.38418686      10.30026378       7.37552684      -0.67400000
P       10.21570190      10.17576378      10.18228997      -0.67000000
In      -0.17169076      -0.19658967      -0.19006348       0.61300000
In       3.14722717      -0.19658967       3.12885445       0.61300000
In      -0.09794858       3.04858608       3.05511227       0.61300000
In       3.14722717       3.12232826      -0.19006348       0.61300000
In       0.00660123      -0.01532380       5.91219236       0.66000000
In       2.96406511      -0.01342761       8.83430580       0.66000000
In      -0.00696441       2.95760191       8.84099156       0.66100000
In       2.96596130       2.94403627       5.91219236       0.66000000
In       0.00660123       5.90566617      -0.00879761       0.66000000
In       2.96596130       5.90566617       2.95056246       0.66000000
In      -0.00696441       8.83446537       2.96412811       0.66100000
In       2.96406511       8.82777961      -0.00690142       0.66100000
In       0.02823045       5.90305865       5.90958484       0.65700000
In       2.94823668       5.92669953       8.80626627       0.65700000
In       0.03479444       8.78801993       8.79454612       0.65700000
In       2.94823668       8.79974008       5.93322572       0.65700000
In       5.92540789      -0.01342761      -0.00690142       0.66000000
In       8.84752133      -0.01532380       2.95056246       0.66000000
In       5.91872213       2.95760191       2.96412811       0.66000000
In       8.84752133       2.94403627      -0.00879761       0.66100000
In       5.95344742       0.00240082       5.93322572       0.65700000
In       8.82648797       0.00240082       8.80626627       0.65700000
In       5.96516757       2.91584306       8.79454612       0.65700000
In       8.85012885       2.92240705       5.90958484       0.65700000
In       5.95344742       5.92669953       0.00892701       0.65700000
In       8.85012885       5.90305865       2.92893324       0.65700000
In       5.96516757       8.78801993       2.92236925       0.65700000
In       8.82648797       8.79974008       0.00892701       0.65700000
In       5.91802518       5.89214484       5.89867103       0.66500000
In       8.86104266       5.89214484       8.84168851       0.66500000
In       5.89807300       8.85511450       8.86164069       0.66500000
In       8.86104266       8.83516232       5.89867103       0.66500000
In       1.54710998       1.40352752       1.41005371       0.34500000
65
Lattice="11.80255 0.0 0.0 0.0 11.80255 0.0 0.0 0.0 11.80255" Properties=species:S:1:pos:R:3:mulliken_charges:R:1 fermi_energy=4.781312370495001 core_to_fermi_energy=16.851734769525017 config_type=Interstitial energy=-64625.762687579045 pbc="T T T"
P        1.53316832       1.41746918       4.45620860      -0.63200000
P        4.48989228       1.47778944       1.48744564      -0.63200000
P        1.53316832       4.44655239       1.42712539      -0.63200000
P        4.43415046       4.43392464       4.44358085      -0.67300000
P        1.47284806       1.47778944      10.27295142      -0.63200000
P        4.44741741       1.45269415       7.36842564      -0.67100000
P        1.48616038       4.41768782       7.37577317      -0.67100000
P        4.59991501       4.53828727      10.16292869      -0.67000000
P        1.48616038       7.36611697       4.42734402      -0.67100000
P        4.44741741       7.35876943       1.46235035      -0.67100000
P        1.47284806      10.26329522       1.48744564      -0.63200000
P        4.59991501      10.15327249       4.54794348      -0.67000000
P        1.49794335       7.35876943      10.31542629      -0.67100000
P        4.46096056       7.37045126       7.38010746      -0.67400000
P        1.49794335      10.30577009       7.36842564      -0.67100000
P        4.41199770      10.34118980      10.35084601      -0.67300000
P        7.38707053       1.46447712       4.42734402      -0.67100000
P       10.30663511       1.41746918       1.42712539      -0.63200000
P        7.38707053       4.41768782       1.47413332      -0.67100000
P       10.33784542       4.41534208       4.42499828      -0.67000000
P        7.39441807       1.45269415      10.31542629      -0.67100000
P       10.33549968       1.46447712       7.37577317      -0.67100000
P        7.42502916       4.41010581       7.33781455      -0.67400000
P       10.31926286       4.43392464      10.32869324      -0.67300000
P        7.42502916       7.32815834       4.41976202      -0.67400000
P       10.33549968       7.36611697       1.47413332      -0.67100000
P        7.39441807      10.30577009       1.46235035      -0.67100000
P       10.31926286      10.31903704       4.44358085      -0.67300000
P        7.38273624       7.37045126      10.30188315      -0.67400000
P       10.34308169       7.32815834       7.33781455      -0.67400000
P        7.38273624      10.29222694       7.38010746      -0.67400000
P       10.21490023      10.15327249      10.16292869      -0.67000000
In      -0.19976118      -0.21069048      -0.20103427       0.61300000
In       3.16132798      -0.21069048       3.16005488       0.61300000
In      -0.01477935       2.96541685       2.97507306       0.61300000
In       3.16132798       3.15039868      -0.20103427       0.61300000
In       0.00822773      -0.01784158       5.91831049       0.66000000
In       2.96072859      -0.01009109       8.83859828       0.66000000
In      -0.01871353       2.96935103       8.84051648       0.66100000
In       2.96847908       2.94240977       5.91831049       0.66000000
In       0.00822773       5.90865428      -0.00818537       0.66000000
In       2.96847908       5.90865428       2.95206597       0.66000000
In      -0.01871353       8.83086027       2.97900724       0.66100000
In       2.96072859       8.82894207      -0.00043488       0.66100000
In       0.02571344       5.87216938       5.88182558       0.65700000
In       2.95416155       5.92536126       8.80248378       0.65700000
In       0.04490663       8.76989287       8.77954907       0.65700000
In       2.95416155       8.79282758       5.93501746       0.65700000
In       5.92424543      -0.01009109      -0.00043488       0.66000000
In       8.84453322      -0.01784158       2.95206597       0.66000000
In       5.92232723       2.96935103       2.97900724       0.66000000
In       8.84453322       2.94240977      -0.00818537       0.66100000
In       5.96035992      -0.00352405       5.93501746       0.65700000
In       8.82782624      -0.00352405       8.80248378       0.65700000
In       5.98329463       2.90573087       8.77954907       0.65700000
In       8.88101812       2.92492406       5.88182558       0.65700000
In       5.96035992       5.92536126       0.00613216       0.65700000
In       8.88101812       5.87216938       2.93458027       0.65700000
In       5.98329463       8.76989287       2.91538708       0.65700000
In       8.82782624       8.79282758       0.00613216       0.65700000
In       5.92888753       5.89445706       5.90411327       0.66500000
In       8.85873044       5.89445706       8.83395617       0.66500000
In       5.88839243       8.86479507       8.87445128       0.66500000
In       8.85873044       8.82429997       5.90411327       0.66500000
In       1.64334358       1.30729392       1.31695012       0.34500000
65
Lattice="11.80255 0.0 0.0 0.0 11.80255 0.0 0.0 0.0 11.80255" Properties=species:S:1:pos:R:3:mulliken_charges:R:1 fermi_energy=4.781312370495001 core_to_fermi_energy=16.851734769525017 config_type=Interstitial energy=-64625.694047479665 pbc="T T T"
P        1.54171468       1.40892282       4.47334575      -0.63200000
P        4.50705160       1.49090163       1.50118445      -0.63200000
P        1.54171468       4.46306292       1.41920564      -0.63200000
P        4.43252778       4.44420074       4.45448356      -0.67300000
P        1.45973587       1.49090163      10.25641872      -0.63200000
P        4.44613619       1.45215242       7.36858519      -0.67100000
P        1.48190895       4.42341279       7.37560719      -0.67100000
P        4.60723170       4.54220403      10.15623862      -0.67000000
P        1.48190895       7.36532437       4.43369561      -0.67100000
P        4.44613619       7.35830237       1.46243524      -0.67100000
P        1.45973587      10.24613590       1.50118445      -0.63200000
P        4.60723170      10.14595580       4.55248685      -0.67000000
P        1.49848508       7.35830237      10.31733413      -0.67100000
P        4.46198541       7.37657950       7.38686232      -0.67400000
P        1.49848508      10.30705131       7.36858519      -0.67100000
P        4.40058646      10.35260104      10.36288386      -0.67300000
P        7.38786313       1.46872855       4.43369561      -0.67100000
P       10.29012458       1.40892282       1.41920564      -0.63200000
P        7.38786313       4.42341279       1.47901137      -0.67100000
P       10.39444132       4.35874618       4.36902900      -0.67000000
P        7.39488513       1.45215242      10.31733413      -0.67100000
P       10.32977471       1.46872855       7.37560719      -0.67100000
P        7.43223405       4.40817097       7.33123627      -0.67400000
P       10.30898676       4.44420074      10.33094254      -0.67300000
P        7.43223405       7.32095345       4.41845379      -0.67400000
P       10.32977471       7.36532437       1.47901137      -0.67100000
P        7.39488513      10.30705131       1.46243524      -0.67100000
P       10.30898676      10.32065972       4.45448356      -0.67300000
P        7.37660800       7.37657950      10.30148491      -0.67400000
P       10.34501653       7.32095345       7.33123627      -0.67400000
P        7.37660800      10.29120209       7.38686232      -0.67400000
P       10.21098347      10.14595580      10.15623862      -0.67000000
In      -0.24315064      -0.20505808      -0.19477526       0.61300000
In       3.15569558      -0.20505808       3.20407096       0.61300000
In       0.06238157       2.88825593       2.89853875       0.61300000
In       3.15569558       3.19378814      -0.19477526       0.61300000
In       0.00241416      -0.01697885       5.92520690       0.66000000
In       2.95381002      -0.00317252       8.84179543       0.66000000
In      -0.03409053       2.98472803       8.83633110       0.66100000
In       2.96761635       2.94822334       5.92520690       0.66000000
In       0.00241416       5.91492408      -0.00669603       0.66000000
In       2.96761635       5.91492408       2.95850616       0.66000000
In      -0.03409053       8.82604828       2.99501085       0.66100000
In       2.95381002       8.83151261       0.00711030       0.66100000
In       0.01290313       5.85223325       5.86251607       0.65700000
In       2.95389716       5.92723552       8.80063316       0.65700000
In       0.04841319       8.76577228       8.77605510       0.65700000
In       2.95389716       8.79035034       5.93751834       0.65700000
In       5.92167489      -0.00317252       0.00711030       0.66000000
In       8.83826342      -0.01697885       2.95850616       0.66000000
In       5.92713922       2.98472803       2.99501085       0.66000000
In       8.83826342       2.94822334      -0.00669603       0.66100000
In       5.96283716      -0.00325966       5.93751834       0.65700000
In       8.82595198      -0.00325966       8.80063316       0.65700000
In       5.98741522       2.90222431       8.77605510       0.65700000
In       8.90095425       2.93773437       5.86251607       0.65700000
In       5.96283716       5.92723552       0.00702316       0.65700000
In       8.90095425       5.85223325       2.94801719       0.65700000
In       5.98741522       8.76577228       2.91250713       0.65700000
In       8.82595198       8.79035034       0.00702316       0.65700000
In       5.93204121       5.90182567       5.91210850       0.66500000
In       8.85136183       5.90182567       8.83142911       0.66500000
In       5.87712034       8.87606716       8.88634998       0.66500000
In       8.85136183       8.82114629       5.91210850       0.66500000
In       1.76216487       1.18847263       1.19875545       0.34500000
65
Lattice="11.80255 0.0 0.0 0.0 11.80255 0.0 0.0 0.0 11.80255" Properties=species:S:1:pos:R:3:mulliken_charges:R:1 fermi_energy=4.781312370495001 core_to_fermi_energy=16.851734769525017 config_type=Interstitial energy=-64625.56552291741 pbc="T T T"
P        1.53566681       1.41497069       4.47741777      -0.63200000
P        4.53223169       1.50536376       1.51563289      -0.63200000
P        1.53566681       4.46714864       1.42523981      -0.63200000
P        4.43225440       4.45143896       4.46170809      -0.67300000
P        1.44527374       1.50536376      10.23122494      -0.63200000
P        4.44725393       1.45452096       7.36326152      -0.67100000
P        1.48058101       4.42832065       7.37026790      -0.67100000
P        4.60022883       4.53890244      10.16322780      -0.67000000
P        1.48058101       7.35999878       4.43858978      -0.67100000
P        4.44725393       7.35299239       1.46479009      -0.67100000
P        1.44527374      10.22095581       1.51563289      -0.63200000
P        4.60022883      10.15295867       4.54917156      -0.67000000
P        1.49611654       7.35299239      10.31620269      -0.67100000
P        4.46136739       7.38300615       7.39327527      -0.67400000
P        1.49611654      10.30593357       7.36326152      -0.67100000
P        4.38931258      10.36387492      10.37414405      -0.67300000
P        7.39318872       1.47005649       4.43858978      -0.67100000
P       10.28603886       1.41497069       1.42523981      -0.63200000
P        7.39318872       4.42832065       1.48032562      -0.67100000
P       10.41914108       4.33404642       4.34431555      -0.67000000
P        7.40019511       1.45452096      10.31620269      -0.67100000
P       10.32486685       1.47005649       7.37026790      -0.67100000
P        7.42999263       4.40938740       7.33346400      -0.67400000
P       10.30174854       4.45143896      10.33120223      -0.67300000
P        7.42999263       7.32319487       4.41965653      -0.67400000
P       10.32486685       7.35999878       1.48032562      -0.67100000
P        7.40019511      10.30593357       1.46479009      -0.67100000
P       10.30174854      10.32093310       4.46170809      -0.67300000
P        7.37018135       7.38300615      10.30208924      -0.67400000
P       10.34380010       7.32319487       7.33346400      -0.67400000
P        7.37018135      10.29182011       7.39327527      -0.67400000
P       10.21428506      10.15295867      10.16322780      -0.67000000
In      -0.27667018      -0.18549259      -0.17522347       0.61300000
In       3.13613009      -0.18549259       3.23757681       0.61300000
In       0.10681275       2.84382475       2.85409388       0.61300000
In       3.13613009       3.22730768      -0.17522347       0.61300000
In      -0.00163549      -0.01618171       5.92540564       0.66000000
In       2.94773835       0.00289915       8.83024426       0.66000000
In      -0.05174398       3.00238148       8.82141395       0.66100000
In       2.96681921       2.95227299       5.92540564       0.66000000
In      -0.00163549       5.91513652      -0.00591258       0.66000000
In       2.96681921       5.91513652       2.96254211       0.66000000
In      -0.05174398       8.81114482       3.01265061       0.66100000
In       2.94773835       8.81997513       0.01316828       0.66100000
In       0.00236227       5.84643595       5.85670507       0.65700000
In       2.95492045       5.92524256       8.79864774       0.65700000
In       0.04796864       8.77051490       8.78078402       0.65700000
In       2.95492045       8.78837862       5.93551168       0.65700000
In       5.93321237       0.00289915       0.01316828       0.66000000
In       8.83805098      -0.01618171       2.96254211       0.66000000
In       5.94204268       3.00238148       3.01265061       0.66000000
In       8.83805098       2.95227299      -0.00591258       0.66100000
In       5.96480888      -0.00428295       5.93551168       0.65700000
In       8.82794494      -0.00428295       8.79864774       0.65700000
In       5.98267260       2.90266886       8.78078402       0.65700000
In       8.90675155       2.94827523       5.85670507       0.65700000
In       5.96480888       5.92524256       0.00598618       0.65700000
In       8.90675155       5.84643595       2.95854435       0.65700000
In       5.98267260       8.77051490       2.91293799       0.65700000
In       8.82794494       8.78837862       0.00598618       0.65700000
In       5.93132503       5.90909712       5.91936624       0.66500000
In       8.84409038       5.90909712       8.83213160       0.66500000
In       5.86554854       8.88763896       8.89790808       0.66500000
In       8.84409038       8.82186247       5.91936624       0.66500000
In       1.88985842       1.06077908       1.07104820       0.34500000
65
Lattice="11.80255 0.0 0.0 0.0 11.80255 0.0 0.0 0.0 11.80255" Properties=species:S:1:pos:R:3:mulliken_charges:R:1 fermi_energy=4.781312370495001 core_to_fermi_energy=16.851734769525017 config_type=Interstitial energy=-64625.37663190372 pbc="T T T"
P        1.52588647       1.42475103       4.47701603      -0.63200000
P        4.55656086       1.52076875       1.53103780      -0.63200000
P        1.52588647       4.46674698       1.43502008      -0.63200000
P        4.43298682       4.45582837       4.46609742      -0.67300000
P        1.42986875       1.52076875      10.20689569      -0.63200000
P        4.45003217       1.45639629       7.35658555      -0.67100000
P        1.48267333       4.43064547       7.36479283      -0.67100000
P        4.58837088       4.52994652      10.17508567      -0.67000000
P        1.48267333       7.35452378       4.44091453      -0.67100000
P        4.45003217       7.34631650       1.46666534      -0.67100000
P        1.42986875      10.19662664       1.53103780      -0.63200000
P        4.58837088      10.16481662       4.54021557      -0.67000000
P        1.49424121       7.34631650      10.31342438      -0.67100000
P        4.46116875       7.38686700       7.39713605      -0.67400000
P        1.49424121      10.30315533       7.35658555      -0.67100000
P        4.37879396      10.37439354      10.38466259      -0.67300000
P        7.39866372       1.46796417       4.44091453      -0.67100000
P       10.28644052       1.42475103       1.43502008      -0.63200000
P        7.39866372       4.43064547       1.47823322      -0.67100000
P       10.42077605       4.33241145       4.34268050      -0.67000000
P        7.40687100       1.45639629      10.31342438      -0.67100000
P       10.32254203       1.46796417       7.36479283      -0.67100000
P        7.42666394       4.41040866       7.33679261      -0.67400000
P       10.29735913       4.45582837      10.33046973      -0.67300000
P        7.42666394       7.32652356       4.42067771      -0.67400000
P       10.32254203       7.35452378       1.47823322      -0.67100000
P        7.40687100      10.30315533       1.46666534      -0.67100000
P       10.29735913      10.32020068       4.46609742      -0.67300000
P        7.36632050       7.38686700      10.30228780      -0.67400000
P       10.34277884       7.32652356       7.33679261      -0.67400000
P        7.36632050      10.29201875       7.39713605      -0.67400000
P       10.22324098      10.16481662      10.17508567      -0.67000000
In      -0.29000628      -0.16333914      -0.15307009       0.61300000
In       3.11397664      -0.16333914       3.25091283       0.61300000
In       0.12144658       2.82919092       2.83945997       0.61300000
In       3.11397664       3.24064378      -0.15307009       0.61300000
In      -0.00244970      -0.01666695       5.92250117       0.66000000
In       2.94099524       0.00964226       8.81877463       0.66000000
In      -0.06776212       3.01839962       8.80317620       0.66100000
In       2.96730445       2.95308720       5.92250117       0.66000000
In      -0.00244970       5.91223212      -0.00639790       0.66000000
In       2.96730445       5.91223212       2.96335625       0.66000000
In      -0.06776212       8.79290714       3.02866867       0.66100000
In       2.94099524       8.80850558       0.01991132       0.66100000
In      -0.00072242       5.84706701       5.85733606       0.65700000
In       2.95776208       5.92194988       8.79841037       0.65700000
In       0.04594656       8.77602628       8.78629533       0.65700000
In       2.95776208       8.78814132       5.93221893       0.65700000
In       5.94468192       0.00964226       0.01991132       0.66000000
In       8.84095538      -0.01666695       2.96335625       0.66000000
In       5.96028036       3.01839962       3.02866867       0.66000000
In       8.84095538       2.95308720      -0.00639790       0.66100000
In       5.96504618      -0.00712458       5.93221893       0.65700000
In       8.83123762      -0.00712458       8.79841037       0.65700000
In       5.97716122       2.90469094       8.78629533       0.65700000
In       8.90612049       2.95135992       5.85733606       0.65700000
In       5.96504618       5.92194988       0.00314447       0.65700000
In       8.90612049       5.84706701       2.96162897       0.65700000
In       5.97716122       8.77602628       2.91495999       0.65700000
In       8.83123762       8.78814132       0.00314447       0.65700000
In       5.93038277       5.91326451       5.92353356       0.66500000
In       8.83992299       5.91326451       8.83307378       0.66500000
In       5.85803066       8.89515684       8.90542590       0.66500000
In       8.83992299       8.82280473       5.92353356       0.66500000
In       2.01224961       0.93838789       0.94865695       0.34500000
65
Lattice="11.80255 0.0 0.0 0.0 11.80255 0.0 0.0 0.0 11.80255" Properties=species:S:1:pos:R:3:mulliken_charges:R:1 fermi_energy=4.781312370495001 core_to_fermi_energy=16.851734769525017 config_type=Interstitial energy=-64625.16919004994 pbc="T T T"
P        1.51711147       1.43352603       4.47672977      -0.63200000
P        4.57091560       1.53468679       1.54495637      -0.63200000
P        1.51711147       4.46646019       1.44379561      -0.63200000
P        4.43362770       4.45836045       4.46863003      -0.67300000
P        1.41595071       1.53468679      10.19254148      -0.63200000
P        4.45119722       1.45727883       7.35419736      -0.67100000
P        1.48511518       4.43148174       7.36127491      -0.67100000