65
Lattice="11.80255 0.0 0.0 0.0 11.80255 0.0 0.0 0.0 11.80255" Properties=species:S:1:pos:R:3:mulliken_charges:R:1:energies:R:1:forces:R:3 fermi_energy=4.781312370495001 core_to_fermi_energy=16.851734769525017 config_type=Interstitial energy=-64625.83202998626 free_energy=-64625.83202998626 stress="-0.00906126734105244 -0.00021005647722527421 -0.00021149036061152723 -0.00021005647722527421 -0.009061129550474115 0.0002122412430289894 -0.00021149036061152723 0.0002122412430289894 -0.009060899138670022" pbc="T T T"
P        1.47531875       1.47531875       4.45186868      -0.63200000    -211.93222636      -0.00318415       0.00315160      -0.00118740
P        4.45186868       1.47531875       1.47531875      -0.63200000    -210.01704244      -0.01087402      -0.01139769      -0.01119928
P        1.47531875       4.45186868       1.47531875      -0.63200000    -211.93227710      -0.00367284      -0.00084201       0.00361039
P        4.42618428       4.42618428       4.42618428      -0.67300000    -212.11211923       0.00058550      -0.00827890      -0.00828885
P        1.47531875       1.47531875      10.30131882      -0.63200000    -210.01708018       0.01072759      -0.01061151       0.01012618
P        4.43043410       1.47531875       7.37659375      -0.67100000    -211.92291464       0.00127705       0.00068984       0.00311882
P        1.47531875       4.43043410       7.37659375      -0.67100000    -212.11240376       0.00005652       0.00134349       0.00116881
P        4.54585744       4.54585744      10.20733006      -0.67000000    -211.92795896      -0.00368338       0.00647246       0.00362652
P        1.47531875       7.37659375       4.43043410      -0.67100000    -212.11242618      -0.00006278       0.00107480       0.00124035
P        4.43043410       7.37659375       1.47531875      -0.67100000    -211.92291270       0.00131438       0.00306573       0.00073982
P        1.47531875      10.30131882       1.47531875      -0.63200000    -210.01705692       0.01122434       0.01060218      -0.01091554
P        4.54585744      10.20733006       4.54585744      -0.67000000    -211.92808495      -0.00258272       0.00257384       0.00719328
P        1.47531875       7.37659375      10.32275340      -0.67100000    -211.92288146      -0.00062028       0.00303871      -0.00137278
P        4.43625299       7.37659375       7.37659375      -0.67400000    -212.10868024       0.00210559      -0.00542145      -0.00585486
P        1.47531875      10.32275340       7.37659375      -0.67100000    -211.92290256      -0.00063538      -0.00130406       0.00309112
P        4.42618428      10.32700322      10.32700322      -0.67300000    -210.03637305       0.01674034      -0.01675804      -0.01677166
P        7.37659375       1.47531875       4.43043410      -0.67100000    -212.11242702      -0.00103283       0.00016753       0.00120423
P       10.30131882       1.47531875       1.47531875      -0.63200000    -211.93230542       0.00065711       0.00393100       0.00389730
P        7.37659375       4.43043410       1.47531875      -0.67100000    -212.11240659      -0.00101957       0.00123900       0.00026048
P       10.20733006       4.54585744       4.54585744      -0.67000000    -212.14855295      -0.01528677       0.01521247       0.01511878
P        7.37659375       1.47531875      10.32275340      -0.67100000    -211.92287714      -0.00300226       0.00063178      -0.00138416
P       10.32275340       1.47531875       7.37659375      -0.67100000    -212.11238849      -0.00135398      -0.00000081       0.00117651
P        7.37659375       4.43625299       7.37659375      -0.67400000    -212.14849406      -0.00711729       0.00176386       0.00708924
P       10.32700322       4.42618428      10.32700322      -0.67300000    -212.11212297       0.00836872      -0.00837143      -0.00048599
P        7.37659375       7.37659375       4.43625299      -0.67400000    -212.14853681      -0.00724341       0.00724458       0.00186742
P       10.32275340       7.37659375       1.47531875      -0.67100000    -212.11239436      -0.00129393       0.00109425       0.00018742
P        7.37659375      10.32275340       1.47531875      -0.67100000    -211.92289954      -0.00301827      -0.00136636       0.00071915
P       10.32700322      10.32700322       4.42618428      -0.67300000    -212.11212104       0.00828760      -0.00055827      -0.00834667
P        7.37659375       7.37659375      10.31693451      -0.67400000    -212.10863289       0.00548533      -0.00579136      -0.00192607
P       10.31693451       7.37659375       7.37659375      -0.67400000    -212.14847167      -0.00167290       0.00700883       0.00699893
P        7.37659375      10.31693451       7.37659375      -0.67400000    -212.10866245       0.00527865      -0.00205339      -0.00600317
P       10.20733006      10.20733006      10.20733006      -0.67000000    -211.92788483      -0.00605422       0.00428522       0.00427208
In      -0.16784666      -0.16784666      -0.16784666       0.61300000   -1753.40383837       0.01066259       0.00888172       0.00901846
In       3.11848416      -0.16784666       3.11848416       0.61300000   -1753.40366927      -0.01075456       0.01083538      -0.01194585
In      -0.16784666       3.11848416       3.11848416       0.61300000   -1752.91008770      -0.01947020       0.01940797       0.01930677
In       3.11848416       3.11848416      -0.16784666       0.61300000   -1753.40377582      -0.00951562      -0.01113572       0.00973300
In      -0.00638400      -0.00638400       5.91292216       0.66000000   -1752.87223749      -0.00030454       0.00057294       0.00194507
In       2.95702150      -0.00638400       8.84026534       0.66000000   -1753.38562151       0.00932957      -0.00934298      -0.00627128
In      -0.00638400       2.95702150       8.84026534       0.66100000   -1752.91506758       0.01120233      -0.01124649       0.00358154
In       2.95702150       2.95702150       5.91292216       0.66000000   -1752.87224053      -0.00055933       0.00032375       0.00194557
In      -0.00638400       5.91292216      -0.00638400       0.66000000   -1752.87224345      -0.00027915       0.00188291       0.00052564
In       2.95702150       5.91292216       2.95702150       0.66000000   -1752.87224869      -0.00053381       0.00192189       0.00029357
In      -0.00638400       8.84026534       2.95702150       0.66100000   -1752.91506157       0.01112109       0.00347634      -0.01119133
In       2.95702150       8.84026534      -0.00638400       0.66100000   -1753.38560571       0.00923258      -0.00607339      -0.00927899
In       0.01730453       5.93765579       5.93765579       0.65700000   -1752.88486195      -0.00149588       0.00729130       0.00729964
In       2.93333297       5.93765579       8.81553171       0.65700000   -1752.87390418      -0.00327266       0.00043053      -0.00019515
In       0.01730453       8.81553171       8.81553171       0.65700000   -1752.90419684      -0.00326113       0.00917274       0.00918979
In       2.93333297       8.81553171       5.93765579       0.65700000   -1752.87391391      -0.00307166      -0.00027229       0.00060210
In       5.91292216      -0.00638400      -0.00638400       0.66000000   -1753.38559648       0.00596660      -0.00918035      -0.00922903
In       8.84026534      -0.00638400       2.95702150       0.66000000   -1752.87225259      -0.00188861       0.00050942       0.00028340
In       5.91292216       2.95702150       2.95702150       0.66000000   -1752.91505634      -0.00341722      -0.01109918      -0.01114239
In       8.84026534       2.95702150      -0.00638400       0.66100000   -1752.87224794      -0.00188123       0.00026740       0.00050472
In       5.93765579       0.01730453       5.93765579       0.65700000   -1752.87390897       0.00034387       0.00293197       0.00067554
In       8.81553171       0.01730453       8.81553171       0.65700000   -1752.87389053      -0.00041770       0.00328972      -0.00019502
In       5.93765579       2.93333297       8.81553171       0.65700000   -1752.90421221      -0.00926241       0.00328686       0.00927133
In       8.81553171       2.93333297       5.93765579       0.65700000   -1752.88486929      -0.00719893       0.00141374       0.00722498
In       5.93765579       5.93765579       0.01730453       0.65700000   -1752.87389048       0.00036468       0.00067448       0.00291417
In       8.81553171       5.93765579       2.93333297       0.65700000   -1752.88488445      -0.00710742       0.00709913       0.00127284
In       5.93765579       8.81553171       2.93333297       0.65700000   -1752.90423861      -0.00942235       0.00942589       0.00332889
In       8.81553171       8.81553171       0.01730453       0.65700000   -1752.87388412      -0.00055339      -0.00028730       0.00306066
In       5.89953997       5.89953997       5.89953997       0.66500000   -1752.87862548      -0.00146882      -0.00846093      -0.00837563
In       8.85364753       5.89953997       8.85364753       0.66500000   -1752.87857484       0.00835477      -0.00831797       0.00142503
In       5.89953997       8.85364753       8.85364753       0.66500000   -1752.91832319       0.01352559      -0.01348737      -0.01344002
In       8.85364753       8.85364753       5.89953997       0.66500000   -1752.87860660       0.00843814       0.00146249      -0.00832869
In       1.47531875       1.47531875       1.47531875       0.34500000   -1753.27387438       0.00789709      -0.00749047      -0.00677972
65
Lattice="11.80255 0.0 0.0 0.0 11.80255 0.0 0.0 0.0 11.80255" Properties=species:S:1:pos:R:3:mulliken_charges:R:1:energies:R:1:forces:R:3 fermi_energy=4.781312370495001 core_to_fermi_energy=16.851734769525017 config_type=Interstitial energy=-64625.83202998626 free_energy=-64625.83202998626 stress="-0.00906126734105244 -0.00021005647722527421 -0.00021149036061152723 -0.00021005647722527421 -0.009061129550474115 0.0002122412430289894 -0.00021149036061152723 0.0002122412430289894 -0.009060899138670022" pbc="T T T"
P        1.50250521       1.44813013       4.47586482      -0.63200000    -211.93222636      -0.00318415       0.00315160      -0.00118740
P        4.44857824       1.51088288       1.50680851      -0.63200000    -210.01704244      -0.01087402      -0.01139769      -0.01119928
P        1.50247577       4.47997018       1.44407398      -0.63200000    -211.93227710      -0.00367284      -0.00084201       0.00361039
P        4.39197776       4.47142442       4.46734018      -0.67300000    -212.11211923       0.00058550      -0.00827890      -0.00828885
P        1.43971945       1.51092353      10.30046714      -0.63200000    -210.01708018       0.01072759      -0.01061151       0.01012618
P        4.41253330       1.48590459       7.38936385      -0.67100000    -211.92291464       0.00127705       0.00068984       0.00311882
P        1.44943734       4.45095211       7.40254498      -0.67100000    -212.11240376       0.00005652       0.00134349       0.00116881
P        4.57218050       4.57100482      10.17692075      -0.67000000    -211.92795896      -0.00368338       0.00647246       0.00362652
P        1.44943071       7.40662330       4.44686258      -0.67100000    -212.11242618      -0.00006278       0.00107480       0.00124035
P        4.41253584       7.39344331       1.48182426      -0.67100000    -211.92291270       0.00131438       0.00306573       0.00073982
P        1.43974515      10.30458814       1.50682314      -0.63200000    -210.01705692       0.01122434       0.01060218      -0.01091554
P        4.57225183      10.18093571       4.56696887      -0.67000000    -211.92808495      -0.00258272       0.00257384       0.00719328
P        1.46473653       7.39344257      10.33656488      -0.67100000    -211.92288146      -0.00062028       0.00303871      -0.00137278
P        4.42720546       7.40428580       7.40017703      -0.67400000    -212.10868024       0.00210559      -0.00542145      -0.00585486
P        1.46473620      10.34065275       7.38936219      -0.67100000    -211.92290256      -0.00063538      -0.00130406       0.00309112
P        4.37858952      10.37459565      10.37050988      -0.67300000    -210.03637305       0.01674034      -0.01675804      -0.01677166
P        7.34656639       1.50121247       4.44686061      -0.67100000    -212.11242702      -0.00103283       0.00016753       0.00120423
P       10.27320601       1.44817710       1.44409126      -0.63200000    -211.93230542       0.00065711       0.00393100       0.00389730
P        7.34656731       4.45094607       1.49713443      -0.67100000    -212.11240659      -0.00101957       0.00123900       0.00026048
P       10.30648569       4.44669756       4.44260903      -0.67000000    -212.14855295      -0.01528677       0.01521247       0.01511878
P        7.35974778       1.48590167      10.33656409      -0.67100000    -211.92287714      -0.00300226       0.00063178      -0.00138416
P       10.30223508       1.50120353       7.40254559      -0.67100000    -212.11238849      -0.00135398      -0.00000081       0.00117651
P        7.39620064       4.44398289       7.35290166      -0.67400000    -212.14849406      -0.00711729       0.00176386       0.00708924
P       10.28176895       4.47141841      10.35713186      -0.67300000    -212.11212297       0.00836872      -0.00837143      -0.00048599
P        7.39619398       7.35699374       4.43990505      -0.67400000    -212.14853681      -0.00724341       0.00724458       0.00186742
P       10.30223849       7.40662470       1.49713035      -0.67100000    -212.11239436      -0.00129393       0.00109425       0.00018742
P        7.35974734      10.34064846       1.48182314      -0.67100000    -211.92289954      -0.00301827      -0.00136636       0.00071915
P       10.28176352      10.36121123       4.46733633      -0.67300000    -212.11212104       0.00828760      -0.00055827      -0.00834667
P        7.34890494       7.40426403      10.32190885      -0.67400000    -212.10863289       0.00548533      -0.00579136      -0.00192607
P       10.30921017       7.35698068       7.35289653      -0.67400000    -212.14847167      -0.00167290       0.00700883       0.00699893
P        7.34889319      10.32598489       7.40016814      -0.67400000    -212.10866245       0.00527865      -0.00205339      -0.00600317
P       10.18221041      10.18104630      10.17696264      -0.67000000    -211.92788483      -0.00605422       0.00428522       0.00427208
In      -0.23188241      -0.18222530      -0.18630244       0.61300000   -1753.40383837       0.01066259       0.00888172       0.00901846
In       3.13272664      -0.18208523       3.17833098       0.61300000   -1753.40366927      -0.01075456       0.01083538      -0.01194585
In      -0.04721314       2.99784724       2.99375821       0.61300000   -1752.91008770      -0.01947020       0.01940797       0.01930677
In       3.13281552       3.18248120      -0.18625126       0.61300000   -1753.40377582      -0.00951562      -0.01113572       0.00973300
In      -0.02547121       0.02077630       5.94326602       0.66000000   -1752.87223749      -0.00030454       0.00057294       0.00194507
In       2.92609092       0.02454572       8.86138398       0.66000000   -1753.38562151       0.00932957      -0.00934298      -0.00627128
In      -0.05493145       3.00556620       8.87243124       0.66100000   -1752.91506758       0.01120233      -0.01124649       0.00358154
In       2.92986219       2.97611002       5.94326593       0.66000000   -1752.87224053      -0.00055933       0.00032375       0.00194557
In      -0.02546953       5.94734670       0.01669039       0.66000000   -1752.87224345      -0.00027915       0.00188291       0.00052564
In       2.92986308       5.94734933       2.97202395       0.66000000   -1752.87224869      -0.00053381       0.00192189       0.00029357
In      -0.05493682       8.87650860       3.00148681       0.66100000   -1752.91506157       0.01112109       0.00347634      -0.01119133
In       2.92608400       8.86547474       0.02046679       0.66100000   -1753.38560571       0.00923258      -0.00607339      -0.00927899
In      -0.00441535       5.90277275       5.89868974       0.65700000   -1752.88486195      -0.00149588       0.00729130       0.00729964
In       2.92152614       5.95959811       8.82459365       0.65700000   -1752.87390418      -0.00327266       0.00043053      -0.00019515
In       0.01215494       8.79681379       8.79273152       0.65700000   -1752.90419684      -0.00326113       0.00917274       0.00918979
In       2.92153843       8.82867188       5.95552693       0.65700000   -1752.87391391      -0.00307166      -0.00027229       0.00060210
In       5.88770925       0.02455742       0.02047060       0.66000000   -1753.38559648       0.00596660      -0.00918035      -0.00922903
In       8.80583983       0.02077327       2.97202329       0.66000000   -1752.87225259      -0.00188861       0.00050942       0.00028340
In       5.87668227       3.00557613       3.00149005       0.66000000   -1752.91505634      -0.00341722      -0.01109918      -0.01114239
In       8.80584018       2.97610612       0.01668938       0.66100000   -1752.87224794      -0.00188123       0.00026740       0.00050472
In       5.92451974       0.02909062       5.95553127       0.65700000   -1752.87390897       0.00034387       0.00293197       0.00067554
In       8.79359141       0.02911291       8.82459461       0.65700000   -1752.87389053      -0.00041770       0.00328972      -0.00019502
In       5.95636915       2.93848419       8.79273547       0.65700000   -1752.90421221      -0.00926241       0.00328686       0.00927133
In       8.85042018       2.95504840       5.89868566       0.65700000   -1752.88486929      -0.00719893       0.00141374       0.00722498
In       5.92451974       5.95961335       0.02500607       0.65700000   -1752.87389048       0.00036468       0.00067448       0.00291417
In       8.85042448       5.90276249       2.95095685       0.65700000   -1752.88488445      -0.00710742       0.00709913       0.00127284
In       5.95636074       8.79682702       2.93440314       0.65700000   -1752.90423861      -0.00942235       0.00942589       0.00332889
In       8.79358299       8.82867328       0.02501537       0.65700000   -1752.87388412      -0.00055339      -0.00028730       0.00306066
In       5.89496838       5.92788630       5.92380719       0.66500000   -1752.87862548      -0.00146882      -0.00846093      -0.00837563
In       8.82529511       5.92789414       8.85413375       0.66500000   -1752.87857484       0.00835477      -0.00831797       0.00142503
In       5.85474209       8.89844742       8.89436621       0.66500000   -1752.91832319       0.01352559      -0.01348737      -0.01344002
In       8.82529967       8.85821917       5.92380968       0.66500000   -1752.87860660       0.00843814       0.00146249      -0.00832869
In       1.60231582       1.34836083       1.34434556       0.34500000   -1753.27387438       0.00789709      -0.00749047      -0.00677972
65
Lattice="11.80255 0.0 0.0 0.0 11.80255 0.0 0.0 0.0 11.80255" Properties=species:S:1:pos:R:3:mulliken_charges:R:1:energies:R:1:forces:R:3 fermi_energy=4.781312370495001 core_to_fermi_energy=16.851734769525017 config_type=Interstitial energy=-64625.83202998626 free_energy=-64625.83202998626 stress="-0.00906126734105244 -0.00021005647722527421 -0.00021149036061152723 -0.00021005647722527421 -0.009061129550474115 0.0002122412430289894 -0.00021149036061152723 0.0002122412430289894 -0.009060899138670022" pbc="T T T"
P        1.50292457       1.44775046       4.51367559      -0.63200000    -211.93222636      -0.00318415       0.00315160      -0.00118740
P        4.46846389       1.55227179       1.54433286      -0.63200000    -210.01704244      -0.01087402      -0.01139769      -0.01119928
P        1.50342549       4.52108712       1.43950151      -0.63200000    -211.93227710      -0.00367284      -0.00084201       0.00361039
P        4.37991849       4.50637804       4.49860708      -0.67300000    -212.11211923       0.00058550      -0.00827890      -0.00828885
P        1.39896512       1.55157997      10.27793851      -0.63200000    -210.01708018       0.01072759      -0.01061151       0.01012618
P        4.40015610       1.49803083       7.39150940      -0.67100000    -211.92291464       0.00127705       0.00068984       0.00311882
P        1.42756320       4.47222334       7.40480182      -0.67100000    -212.11240376       0.00005652       0.00134349       0.00116881
P        4.56742305       4.58249511      10.17802859      -0.67000000    -211.92795896      -0.00368338       0.00647246       0.00362652
P        1.42767599       7.41267345       4.46454261      -0.67100000    -212.11242618      -0.00006278       0.00107480       0.00124035
P        4.40011285       7.39936164       1.49019332      -0.67100000    -211.92291270       0.00131438       0.00306573       0.00073982
P        1.39852758      10.28508383       1.54408399      -0.63200000    -210.01705692       0.01122434       0.01060218      -0.01091554
P        4.56620907      10.18697849       4.57390240      -0.67000000    -211.92808495      -0.00258272       0.00257384       0.00719328
P        1.45254576       7.39937432      10.34534774      -0.67100000    -211.92288146      -0.00062028       0.00303871      -0.00137278
P        4.41613583       7.43294990       7.42559653      -0.67400000    -212.10868024       0.00210559      -0.00542145      -0.00585486
P        1.45255154      10.35305680       7.39153774      -0.67100000    -211.92290256      -0.00063538      -0.00130406       0.00309112
P        4.33382829      10.41939953      10.41165467      -0.67300000    -210.03637305       0.01674034      -0.01675804      -0.01677166
P        7.34047756       1.52286556       4.46457616      -0.67100000    -212.11242702      -0.00103283       0.00016753       0.00120423
P       10.23229356       1.44695107       1.43920752      -0.63200000    -211.93230542       0.00065711       0.00393100       0.00389730
P        7.34046190       4.47232624       1.51498908      -0.67100000    -212.11240659      -0.00101957       0.00123900       0.00026048
P       10.40268040       4.35058023       4.34288235      -0.67000000    -212.14855295      -0.01528677       0.01521247       0.01511878
P        7.35376551       1.49808042      10.34536116      -0.67100000    -211.92287714      -0.00300226       0.00063178      -0.00138416
P       10.28097018       1.52301768       7.40479138      -0.67100000    -212.11238849      -0.00135398      -0.00000081       0.00117651
P        7.39945975       4.45129176       7.34597399      -0.67400000    -212.14849406      -0.00711729       0.00176386       0.00708924
P       10.24671034       4.50648020      10.36539073      -0.67300000    -212.11212297       0.00836872      -0.00837143      -0.00048599
P        7.39957310       7.35361147       4.44341193      -0.67400000    -212.14853681      -0.00724341       0.00724458       0.00186742
P       10.28091202       7.41264959       1.51505862      -0.67100000    -212.11239436      -0.00129393       0.00109425       0.00018742
P        7.35377297      10.35312988       1.49021252      -0.67100000    -211.92289954      -0.00301827      -0.00136636       0.00071915
P       10.24680280      10.37324446       4.49867270      -0.67300000    -212.11212104       0.00828760      -0.00055827      -0.00834667
P        7.32018322       7.43332051      10.32909360      -0.67400000    -212.10863289       0.00548533      -0.00579136      -0.00192607
P       10.30180184       7.35383369       7.34606124      -0.67400000    -212.14847167      -0.00167290       0.00700883       0.00699893
P        7.32038307      10.33700400       7.42574790      -0.67400000    -212.10866245       0.00527865      -0.00205339      -0.00600317
P       10.17022117      10.18509636      10.17731571      -0.67000000    -211.92788483      -0.00605422       0.00428522       0.00427208
In      -0.32000397      -0.16172226      -0.16961403       0.61300000   -1753.40383837       0.01066259       0.00888172       0.00901846
In       3.11467783      -0.16410607       3.26465300       0.61300000   -1753.40366927      -0.01075456       0.01083538      -0.01194585
In       0.08266659       2.86802949       2.86034019       0.61300000   -1752.91008770      -0.01947020       0.01940797       0.01930677
In       3.11316519       3.27130095      -0.17048506       0.61300000   -1753.40377582      -0.00951562      -0.01113572       0.00973300
In      -0.05023294       0.03196518       5.96115308       0.66000000   -1752.87223749      -0.00030454       0.00057294       0.00194507
In       2.89662410       0.05402878       8.86354002       0.66000000   -1753.38562151       0.00932957      -0.00934298      -0.00627128
In      -0.09949709       3.05018218       8.86781277       0.66100000   -1752.91506758       0.01120233      -0.01124649       0.00358154
In       2.91865630       3.00084883       5.96115457       0.66000000   -1752.87224053      -0.00055933       0.00032375       0.00194557
In      -0.05026147       5.96898444       0.02422277       0.66000000   -1752.87224345      -0.00027915       0.00188291       0.00052564
In       2.91864101       5.96893970       2.99310919       0.66000000   -1752.87224869      -0.00053381       0.00192189       0.00029357
In      -0.09940579       8.87570080       3.04232883       0.66100000   -1752.91506157       0.01112109       0.00347634      -0.01119133
In       2.89674192       8.87119987       0.04616758       0.66100000   -1753.38560571       0.00923258      -0.00607339      -0.00927899
In      -0.04240409       5.87561095       5.86781911       0.65700000   -1752.88486195      -0.00149588       0.00729130       0.00729964
In       2.91197176       5.97249879       8.82529355       0.65700000   -1752.87390418      -0.00327266       0.00043053      -0.00019515
In       0.00826410       8.80030034       8.79249582       0.65700000   -1752.90419684      -0.00326113       0.00917274       0.00918979
In       2.91176259       8.83316667       5.96450561       0.65700000   -1752.87391391      -0.00307166      -0.00027229       0.00060210
In       5.88204808       0.05382965       0.04610273       0.66000000   -1753.38559648       0.00596660      -0.00918035      -0.00922903
In       8.78422026       0.03201669       2.99312037       0.66000000   -1752.87225259      -0.00188861       0.00050942       0.00028340
In       5.87743008       3.05001328       3.04227364       0.66000000   -1752.91505634      -0.00341722      -0.01109918      -0.01114239
In       8.78421430       3.00091519       0.02423990       0.66100000   -1752.87224794      -0.00188123       0.00026740       0.00050472
In       5.91995154       0.03901941       5.96443179       0.65700000   -1752.87390897       0.00034387       0.00293197       0.00067554
In       8.78065521       0.03864005       8.82527714       0.65700000   -1752.87389053      -0.00041770       0.00328972      -0.00019502
In       5.95296551       2.94234634       8.79242871       0.65700000   -1752.90421221      -0.00926241       0.00328686       0.00927133
In       8.87748488       2.99311813       5.86788846       0.65700000   -1752.88486929      -0.00719893       0.00141374       0.00722498
In       5.91995154       5.97223928       0.03125392       0.65700000   -1752.87389048       0.00036468       0.00067448       0.00291417
In       8.87741180       5.87578544       2.98547170       0.65700000   -1752.88488445      -0.00710742       0.00709913       0.00127284
In       5.95310869       8.80007514       2.93452132       0.65700000   -1752.90423861      -0.00942235       0.00942589       0.00332889
In       8.78079838       8.83314281       0.03109560       0.65700000   -1752.87388412      -0.00055339      -0.00028730       0.00306066
In       5.89084819       5.96069386       5.95283566       0.66500000   -1752.87862548      -0.00146882      -0.00846093      -0.00837563
In       8.79259809       5.96056038       8.85458854       0.66500000   -1752.87857484       0.00835477      -0.00831797       0.00142503
In       5.80816538       8.94498862       8.93716621       0.66500000   -1752.91832319       0.01352559      -0.01348737      -0.01344002
In       8.79252054       8.86233937       5.95279315       0.66500000   -1752.87860660       0.00843814       0.00146249      -0.00832869
In       1.81778726       1.13218476       1.12323999       0.34500000   -1753.27387438       0.00789709      -0.00749047      -0.00677972
65
Lattice="11.80255 0.0 0.0 0.0 11.80255 0.0 0.0 0.0 11.80255" Properties=species:S:1:pos:R:3:mulliken_charges:R:1:energies:R:1:forces:R:3 fermi_energy=4.781312370495001 core_to_fermi_energy=16.851734769525017 config_type=Interstitial energy=-64625.83202998626 free_energy=-64625.83202998626 stress="-0.00906126734105244 -0.00021005647722527421 -0.00021149036061152723 -0.00021005647722527421 -0.009061129550474115 0.0002122412430289894 -0.00021149036061152723 0.0002122412430289894 -0.009060899138670022" pbc="T T T"
P        1.47077457       1.47992578       4.51843179      -0.63200000    -211.93222636      -0.00318415       0.00315160      -0.00118740
P        4.52328813       1.59373822       1.58494288      -0.63200000    -210.01704244      -0.01087402      -0.01139769      -0.01119928
P        1.47161390       4.52634344       1.47061097      -0.63200000    -211.93227710      -0.00367284      -0.00084201       0.00361039
P        4.38654402       4.51995064       4.51143675      -0.67300000    -212.11211923       0.00058550      -0.00827890      -0.00828885
P        1.35790361       1.59257902      10.22303733      -0.63200000    -210.01708018       0.01072759      -0.01061151       0.01012618