63
Lattice="11.8016818 -7.6e-06 -7.6e-06 -7.6e-06 11.8016818 -7.8e-06 -7.6e-06 -7.8e-06 11.8016816" Properties=species:S:1:pos:R:3:mulliken_charges:R:1 virial="-0.001343979365248383 3.847269175329341e-05 3.847269175329341e-05 3.847269175329341e-05 -0.001345261788306826 3.847269175329341e-05 3.847269175329341e-05 3.847269175329341e-05 -0.0013426969421899398" fermi_energy=3.4539138232004998 core_to_fermi_energy=15.43004959127955 config_type=Accurate_Bulk pbc="T T T"
P        1.48570140       1.48570138       4.43319684      -0.67500000
P        4.43319677       1.48570143       1.48570157      -0.67500000
P        1.48570140       4.43319677       1.48570151      -0.67500000
P        4.52324513       4.52324511       4.52324516      -0.67500000
In       0.00000342       0.00000333       0.00000333       0.67500000
In       2.95679317       0.00056146       2.95679284       0.67500000
In       0.00056155       2.95679309       2.95679282       0.67500000
In       2.95679316       2.95679310       0.00056145       0.67500000
P        1.47614133       1.47614121      10.32552765      -0.67500000
P        4.42624678       1.48443403       7.37542197      -0.67500000
P        1.48443406       4.42624666       7.37542195      -0.67500000
P        4.42624629       4.42624617      10.31722693      -0.67500000
In      -0.00000100      -0.00000118       5.90083955       0.67500000
In       2.95679016      -0.00056476       8.84488760       0.67500000
In      -0.00056451       2.95678995       8.84488754       0.67500000
In       3.00312422       3.00312405       5.87472845       0.67500000
P        1.48443406       7.37542220       4.42624669      -0.67500000
P        4.42624677       7.37542221       1.48443414      -0.67500000
P        1.47614133      10.32552794       1.47614130      -0.67500000
P        4.42624630      10.31722721       4.42624621      -0.67500000
In      -0.00000100       5.90083964      -0.00000118       0.67500000
In       3.00312423       5.87472857       3.00312385       0.67500000
In      -0.00056451       8.84488747       2.95678969       0.67500000
In       2.95679014       8.84488755      -0.00056476       0.67500000
P        1.48569328       7.36847400      10.31596757      -0.67500000
P        4.52323626       7.27842497       7.27842471      -0.67500000
P        1.48569328      10.31596789       7.36847371      -0.67500000
P        4.43318591      10.31596391      10.31596358      -0.67500000
In      -0.00000653       5.90083538       5.90083529       0.67500000
In       3.00312048       5.92694341       8.79855129       0.67500000
In       0.00054857       8.84488119       8.84488125       0.67500000
In       3.00312048       8.79855131       5.92694332       0.67500000
P        7.37542226       1.48443410       4.42624677      -0.67500000
P       10.32552793       1.47614137       1.47614147      -0.67500000
P        7.37542226       4.42624673       1.48443419      -0.67500000
P       10.31722719       4.42624626       4.42624629      -0.67500000
In       5.90083962      -0.00000107      -0.00000108       0.67500000
In       8.84488752      -0.00056459       2.95678987       0.67500000
In       5.87472863       3.00312413       3.00312394       0.67500000
In       8.84488753       2.95679013      -0.00056459       0.67500000
P        7.36847416       1.48569315      10.31596768      -0.67500000
P       10.31596800       1.48569321       7.36847386      -0.67500000
P        7.27842513       4.52323612       7.27842482      -0.67500000
P       10.31596406       4.43318576      10.31596369      -0.67500000
In       5.90083544      -0.00000666       5.90083539       0.67500000
In       8.84488136       0.00054831       8.84488139       0.67500000
In       5.92694358       3.00312025       8.79855134       0.67500000
In       8.79855141       3.00312035       5.92694344       0.67500000
P        7.27842513       7.27842509       4.52323618      -0.67500000
P       10.31596800       7.36847414       1.48569335      -0.67500000
P        7.36847416      10.31596801       1.48569328      -0.67500000
P       10.31596406      10.31596401       4.43318584      -0.67500000
In       5.90083544       5.90083547      -0.00000667       0.67500000
In       8.79855141       5.92694352       3.00312015       0.67500000
In       5.92694358       8.79855135       3.00312006       0.67500000
In       8.84488136       8.84488134       0.00054829       0.67500000
P        7.37541634       7.37541620      10.31722198      -0.67500000
P       10.31722230       7.37541619       7.37541597      -0.67500000
P        7.37541632      10.31722226       7.37541594      -0.67500000
P       10.32551558      10.32551543      10.32551514      -0.67500000
In       8.79854443       5.87472033       8.79854426       0.67500000
In       5.87472050       8.79854422       8.79854421       0.67500000
In       8.79854442       8.79854428       5.87472021       0.67500000
63
Lattice="11.8016818 -7.6e-06 -7.6e-06 -7.6e-06 11.8016818 -7.8e-06 -7.6e-06 -7.8e-06 11.8016816" Properties=species:S:1:pos:R:3:mulliken_charges:R:1 virial="-0.001343979365248383 3.847269175329341e-05 3.847269175329341e-05 3.847269175329341e-05 -0.001345261788306826 3.847269175329341e-05 3.847269175329341e-05 3.847269175329341e-05 -0.0013426969421899398" fermi_energy=3.4539138232004998 core_to_fermi_energy=15.43004959127955 config_type=Accurate_Bulk pbc="T T T"
P        1.52119257       1.52119251       4.45374759      -0.67500000
P        4.45374771       1.52119255       1.52119252      -0.67500000
P        1.52119257       4.45374768       1.52119248      -0.67500000
P        4.60276489       4.60276492       4.60276489      -0.67500000
In       0.00772994       0.00772993       0.00772993       0.67500000
In       2.97057589       0.02192206       2.97057581       0.67500000
In       0.02192212       2.97057584       2.97057578       0.67500000
In       2.97057589       2.97057586       0.02192207       0.67500000
P        1.48917242       1.48917224      10.34329897      -0.67500000
P        4.43659072       1.48949418       7.38158565      -0.67500000
P        1.48949423       4.43659060       7.38158560      -0.67500000
P        4.42997798       4.42997783      10.31834980      -0.67500000
In       0.02658146       0.02658131       5.91058789       0.67500000
In       2.96639117       0.01120347       8.85910888       0.67500000
In       0.01120363       2.96639096       8.85910884       0.67500000
In       3.04979882       3.04979873       5.88659928       0.67500000
P        1.48949424       7.38158571       4.43659053      -0.67500000
P        4.43659072       7.38158576       1.48949418      -0.67500000
P        1.48917243      10.34329914       1.48917221      -0.67500000
P        4.42997798      10.31834997       4.42997775      -0.67500000
In       0.02658145       5.91058799       0.02658129       0.67500000
In       3.04979884       5.88659937       3.04979872       0.67500000
In       0.01120364       8.85910898       2.96639090       0.67500000
In       2.96639118       8.85910901       0.01120348       0.67500000
P        1.49377281       7.38283147      10.32820211      -0.67500000
P        4.52536091       7.28669018       7.28669003      -0.67500000
P        1.49377279      10.32820229       7.38283135      -0.67500000
P        4.44713471      10.33630606      10.33630590      -0.67500000
In      -0.00121510       5.90500220       5.90500211       0.67500000
In       3.00257311       5.93811451       8.80708211       0.67500000
In       0.00415912       8.85039503       8.85039489       0.67500000
In       3.00257309       8.80708228       5.93811441       0.67500000
P        7.38158574       1.48949423       4.43659065      -0.67500000
P       10.34329916       1.48917242       1.48917238      -0.67500000
P        7.38158573       4.43659073       1.48949423      -0.67500000
P       10.31835001       4.42997793       4.42997786      -0.67500000
In       5.91058800       0.02658139       0.02658137       0.67500000
In       8.85910902       0.01120363       2.96639108       0.67500000
In       5.88659938       3.04979884       3.04979881       0.67500000
In       8.85910901       2.96639115       0.01120363       0.67500000
P        7.38283164       1.49377261      10.32820224      -0.67500000
P       10.32820241       1.49377262       7.38283151      -0.67500000
P        7.28669043       4.52536080       7.28669026      -0.67500000
P       10.33630629       4.44713449      10.33630608      -0.67500000
In       5.90500230      -0.00121518       5.90500221       0.67500000
In       8.85039519       0.00415892       8.85039505       0.67500000
In       5.93811470       3.00257295       8.80708221       0.67500000
In       8.80708242       3.00257297       5.93811456       0.67500000
P        7.28669049       7.28669046       4.52536071      -0.67500000
P       10.32820242       7.38283163       1.49377259      -0.67500000
P        7.38283165      10.32820242       1.49377256      -0.67500000
P       10.33630632      10.33630629       4.44713439      -0.67500000
In       5.90500229       5.90500230      -0.00121517       0.67500000
In       8.80708242       5.93811466       3.00257293       0.67500000
In       5.93811471       8.80708239       3.00257289       0.67500000
In       8.85039519       8.85039519       0.00415891       0.67500000
P        7.38097361       7.38097345      10.32022492      -0.67500000
P       10.32022521       7.38097353       7.38097341      -0.67500000
P        7.38097362      10.32022509       7.38097334      -0.67500000
P       10.33248160      10.33248143      10.33248125      -0.67500000
In       8.80947540       5.87491662       8.80947515       0.67500000
In       5.87491678       8.80947509       8.80947495       0.67500000
In       8.80947547       8.80947536       5.87491652       0.67500000
63
Lattice="11.8016818 -7.6e-06 -7.6e-06 -7.6e-06 11.8016818 -7.8e-06 -7.6e-06 -7.8e-06 11.8016816" Properties=species:S:1:pos:R:3:mulliken_charges:R:1 virial="-0.001343979365248383 3.847269175329341e-05 3.847269175329341e-05 3.847269175329341e-05 -0.001345261788306826 3.847269175329341e-05 3.847269175329341e-05 3.847269175329341e-05 -0.0013426969421899398" fermi_energy=3.4539138232004998 core_to_fermi_energy=15.43004959127955 config_type=Accurate_Bulk pbc="T T T"
P        1.55113183       1.55113176       4.46869253      -0.67500000
P        4.46869279       1.55113172       1.55113169      -0.67500000
P        1.55113180       4.46869267       1.55113171      -0.67500000
P        4.69799696       4.69799774       4.69799809      -0.67500000
In       0.00446623       0.00446626       0.00446628       0.67500000
In       2.97328161       0.03686756       2.97328142       0.67500000
In       0.03686758       2.97328159       2.97328150       0.67500000
In       2.97328154       2.97328145       0.03686759       0.67500000
P        1.49134453       1.49134427      10.35020566      -0.67500000
P        4.43498355       1.48316351       7.37821425      -0.67500000
P        1.48316317       4.43498337       7.37821429      -0.67500000
P        4.42249217       4.42249206      10.31104343      -0.67500000
In       0.03675789       0.03675748       5.89942041       0.67500000
In       2.96141546       0.00895003       8.85952220       0.67500000
In       0.00895004       2.96141499       8.85952224       0.67500000
In       3.09964884       3.09964903       5.89086457       0.67500000
P        1.48316323       7.37821431       4.43498334      -0.67500000
P        4.43498363       7.37821422       1.48316377      -0.67500000
P        1.49134459      10.35020583       1.49134426      -0.67500000
P        4.42249218      10.31104358       4.42249203      -0.67500000
In       0.03675779       5.89942044       0.03675722       0.67500000
In       3.09964899       5.89086440       3.09964929       0.67500000
In       0.00895020       8.85952229       2.96141489       0.67500000
In       2.96141557       8.85952221       0.00895026       0.67500000
P        1.48569323       7.38296055      10.32753410      -0.67500000
P        4.51661565       7.25934222       7.25934210      -0.67500000
P        1.48569313      10.32753424       7.38296040      -0.67500000
P        4.44797445      10.33347616      10.33347608      -0.67500000
In      -0.01190874       5.89883824       5.89883817       0.67500000
In       2.99158262       5.93838463       8.80549371       0.67500000
In      -0.00913067       8.84159892       8.84159884       0.67500000
In       2.99158260       8.80549384       5.93838456       0.67500000
P        7.37821404       1.48316374       4.43498359      -0.67500000
P       10.35020586       1.49134462       1.49134454      -0.67500000
P        7.37821399       4.43498369       1.48316394      -0.67500000
P       10.31104356       4.42249219       4.42249215      -0.67500000
In       5.89942031       0.03675729       0.03675713       0.67500000
In       8.85952209       0.00895060       2.96141526       0.67500000
In       5.89086388       3.09964951       3.09964962       0.67500000
In       8.85952204       2.96141547       0.00895068       0.67500000
P        7.38296077       1.48569279      10.32753442      -0.67500000
P       10.32753446       1.48569256       7.38296057      -0.67500000
P        7.25934369       4.51661541       7.25934356      -0.67500000
P       10.33347685       4.44797400      10.33347693      -0.67500000
In       5.89883826      -0.01190869       5.89883826       0.67500000
In       8.84159899      -0.00913111       8.84159903       0.67500000
In       5.93838499       2.99158240       8.80549412       0.67500000
In       8.80549423       2.99158241       5.93838489       0.67500000
P        7.25934439       7.25934438       4.51661529      -0.67500000
P       10.32753456       7.38296071       1.48569241      -0.67500000
P        7.38296077      10.32753466       1.48569254      -0.67500000
P       10.33347723      10.33347739       4.44797377      -0.67500000
In       5.89883826       5.89883832      -0.01190861       0.67500000
In       8.80549440       5.93838507       2.99158235       0.67500000
In       5.93838510       8.80549442       2.99158232       0.67500000
In       8.84159901       8.84159913      -0.00913123       0.67500000
P        7.37151685       7.37151677      10.30428480      -0.67500000
P       10.30428528       7.37151700       7.37151691      -0.67500000
P        7.37151692      10.30428505       7.37151674      -0.67500000
P       10.32783456      10.32783432      10.32783412      -0.67500000
In       8.79022535       5.85665415       8.79022512       0.67500000
In       5.85665413       8.79022404       8.79022390       0.67500000
In       8.79022595       8.79022586       5.85665414       0.67500000
63
Lattice="11.8016818 -7.6e-06 -7.6e-06 -7.6e-06 11.8016818 -7.8e-06 -7.6e-06 -7.8e-06 11.8016816" Properties=species:S:1:pos:R:3:mulliken_charges:R:1 virial="-0.001343979365248383 3.847269175329341e-05 3.847269175329341e-05 3.847269175329341e-05 -0.001345261788306826 3.847269175329341e-05 3.847269175329341e-05 3.847269175329341e-05 -0.0013426969421899398" fermi_energy=3.4539138232004998 core_to_fermi_energy=15.43004959127955 config_type=Accurate_Bulk pbc="T T T"
P        1.57231146       1.57231140       4.47999787      -0.67500000
P        4.47999798       1.57231060       1.57231058      -0.67500000
P        1.57231117       4.47999796       1.57231109      -0.67500000
P        4.80666375       4.80666867       4.80667113      -0.67500000
In       0.00349731       0.00349743       0.00349750       0.67500000
In       2.97291648       0.04494305       2.97291639       0.67500000
In       0.04494309       2.97291671       2.97291665       0.67500000
In       2.97291633       2.97291629       0.04494307       0.67500000
P        1.49161933       1.49161907      10.35200515      -0.67500000
P        4.43536209       1.47979743       7.37761471      -0.67500000
P        1.47979576       4.43536167       7.37761513      -0.67500000
P        4.41858855       4.41858850      10.30829204      -0.67500000
In       0.04060480       0.04060364       5.89098477       0.67500000
In       2.96028543       0.00682603       8.85963759       0.67500000
In       0.00682547       2.96028440       8.85963787       0.67500000
In       3.14526888       3.14527014       5.89514714       0.67500000
P        1.47979589       7.37761499       4.43536179      -0.67500000
P        4.43536243       7.37761434       1.47979843      -0.67500000
P        1.49161949      10.35200536       1.49161916      -0.67500000
P        4.41858861      10.30829216       4.41858856      -0.67500000
In       0.04060436       5.89098460       0.04060267       0.67500000
In       3.14526933       5.89514619       3.14527125       0.67500000
In       0.00682580       8.85963784       2.96028426       0.67500000
In       2.96028579       8.85963738       0.00682672       0.67500000
P        1.48319690       7.38202471      10.32756924      -0.67500000
P        4.51478688       7.22600974       7.22600972      -0.67500000
P        1.48319666      10.32756928       7.38202448      -0.67500000
P        4.45195480      10.32504430      10.32504439      -0.67500000
In      -0.01789037       5.89694885       5.89694888       0.67500000
In       2.98717245       5.93877780       8.80524517       0.67500000
In      -0.01293908       8.83906363       8.83906365       0.67500000
In       2.98717256       8.80524521       5.93877780       0.67500000
P        7.37761405       1.47979786       4.43536256      -0.67500000
P       10.35200545       1.49161970       1.49161962      -0.67500000
P        7.37761381       4.43536279       1.47979874      -0.67500000
P       10.30829210       4.41858880       4.41858879      -0.67500000
In       5.89098407       0.04060246       0.04060192       0.67500000
In       8.85963720       0.00682712       2.96028510       0.67500000
In       5.89514416       3.14527153       3.14527219       0.67500000
In       8.85963703       2.96028559       0.00682748       0.67500000
P        7.38202513       1.48319575      10.32757017      -0.67500000
P       10.32756993       1.48319509       7.38202466      -0.67500000
P        7.22601544       4.51478624       7.22601563      -0.67500000
P       10.32504645       4.45195396      10.32504699      -0.67500000
In       5.89694872      -0.01789019       5.89694899       0.67500000
In       8.83906360      -0.01293985       8.83906395       0.67500000
In       5.93877878       2.98717197       8.80524667       0.67500000
In       8.80524652       2.98717235       5.93877887       0.67500000
P        7.22601841       7.22601861       4.51478589      -0.67500000
P       10.32757035       7.38202491       1.48319457      -0.67500000
P        7.38202515      10.32757064       1.48319498      -0.67500000
P       10.32504772      10.32504818       4.45195353      -0.67500000
In       5.89694872       5.89694896      -0.01789004       0.67500000
In       8.80524725       5.93877936       2.98717215       0.67500000
In       5.93877927       8.80524744       2.98717188       0.67500000
In       8.83906367       8.83906400      -0.01294015       0.67500000
P        7.36814885       7.36814880      10.29608317      -0.67500000
P       10.29608408       7.36814933       7.36814926      -0.67500000
P        7.36814901      10.29608355       7.36814889      -0.67500000
P       10.32673973      10.32673937      10.32673910      -0.67500000
In       8.76671268       5.84896805       8.76671232       0.67500000
In       5.84896768       8.76670827       8.76670809       0.67500000
In       8.76671481       8.76671464       5.84896823       0.67500000
63
Lattice="11.8016818 -7.6e-06 -7.6e-06 -7.6e-06 11.8016818 -7.8e-06 -7.6e-06 -7.8e-06 11.8016816" Properties=species:S:1:pos:R:3:mulliken_charges:R:1 virial="-0.001343979365248383 3.847269175329341e-05 3.847269175329341e-05 3.847269175329341e-05 -0.001345261788306826 3.847269175329341e-05 3.847269175329341e-05 3.847269175329341e-05 -0.0013426969421899398" fermi_energy=3.4539138232004998 core_to_fermi_energy=15.43004959127955 config_type=Accurate_Bulk pbc="T T T"
P        1.58366969       1.58366964       4.48634433      -0.67500000
P        4.48634235       1.58366481       1.58366479      -0.67500000
P        1.58366803       4.48634371       1.58366798      -0.67500000
P        4.92451072       4.92453628       4.92454929      -0.67500000
In       0.00161618       0.00161651       0.00161668       0.67500000
In       2.97022009       0.04851839       2.97022121       0.67500000
In       0.04851866       2.97022107       2.97022142       0.67500000
In       2.97021997       2.97022074       0.04851830       0.67500000
P        1.49016898       1.49016907      10.35130181      -0.67500000
P        4.43656120       1.47318968       7.37733933      -0.67500000
P        1.47318490       4.43656009       7.37734067      -0.67500000
P        4.41378549       4.41378540      10.30407943      -0.67500000
In       0.03887251       0.03886996       5.88418232       0.67500000
In       2.95727303       0.00439178       8.85908452       0.67500000
In       0.00439002       2.95727142       8.85908515       0.67500000
In       3.17722881       3.17723243       5.90666864       0.67500000
P        1.47318483       7.37734062       4.43656067      -0.67500000
P        4.43656237       7.37733856       1.47319209      -0.67500000
P        1.49016921      10.35130205       1.49016939      -0.67500000
P        4.41378573      10.30407949       4.41378561      -0.67500000
In       0.03887123       5.88418188       0.03886742       0.67500000
In       3.17722780       5.90666680       3.17723328       0.67500000
In       0.00439015       8.85908525       2.95727126       0.67500000
In       2.95727366       8.85908426       0.00439287       0.67500000
P        1.48351798       7.37850324      10.32445345      -0.67500000
P        4.52242561       7.18686557       7.18686594      -0.67500000
P        1.48351754      10.32445335       7.37850285      -0.67500000
P        4.45265240      10.31483577      10.31483592      -0.67500000
In      -0.02509264       5.89353560       5.89353591       0.67500000
In       2.98617235       5.93651565       8.80149880       0.67500000
In      -0.01356956       8.83748220       8.83748235       0.67500000
In       2.98617303       8.80149869       5.93651590       0.67500000
P        7.37733892       1.47318954       4.43656306      -0.67500000
P       10.35130222       1.49016989       1.49016998      -0.67500000
P        7.37733820       4.43656364       1.47319201      -0.67500000
P       10.30407933       4.41378622       4.41378619      -0.67500000
In       5.88418081       0.03886626       0.03886501       0.67500000
In       8.85908452       0.00439226       2.95727263       0.67500000
In       5.90666303       3.17722952       3.17723138       0.67500000
In       8.85908416       2.95727342       0.00439324       0.67500000
P        7.37850404       1.48351540      10.32445575      -0.67500000
P       10.32445509       1.48351416       7.37850312      -0.67500000
P        7.18688357       4.52242373       7.18688487      -0.67500000
P       10.31484063       4.45265142      10.31484137      -0.67500000
In       5.89353500      -0.02509270       5.89353612       0.67500000
In       8.83748220      -0.01357042       8.83748294       0.67500000
In       5.93651849       2.98617136       8.80150270       0.67500000
In       8.80150213       2.98617342       5.93651932       0.67500000
P        7.18689321       7.18689414       4.52242276      -0.67500000
P       10.32445621       7.37850357       1.48351290      -0.67500000
P        7.37850410      10.32445677       1.48351371      -0.67500000
P       10.31484336      10.31484395       4.45265093      -0.67500000
In       5.89353505       5.89353585      -0.02509267       0.67500000
In       8.80150409       5.93652077       2.98617295       0.67500000
In       5.93652019       8.80150456       2.98617157       0.67500000
In       8.83748242       8.83748300      -0.01357076       0.67500000
P        7.36587741       7.36587685      10.29155688      -0.67500000
P       10.29155797       7.36587813       7.36587780      -0.67500000
P        7.36587783      10.29155733       7.36587693      -0.67500000
P       10.32521379      10.32521332      10.32521300      -0.67500000
In       8.74600480       5.84641937       8.74600386       0.67500000
In       5.84641942       8.74599486       8.74599448       0.67500000
In       8.74600957       8.74600901       5.84641932       0.67500000
63
Lattice="11.8016818 -7.6e-06 -7.6e-06 -7.6e-06 11.8016818 -7.8e-06 -7.6e-06 -7.8e-06 11.8016816" Properties=species:S:1:pos:R:3:mulliken_charges:R:1 virial="-0.001343979365248383 3.847269175329341e-05 3.847269175329341e-05 3.847269175329341e-05 -0.001345261788306826 3.847269175329341e-05 3.847269175329341e-05 3.847269175329341e-05 -0.0013426969421899398" fermi_energy=3.4539138232004998 core_to_fermi_energy=15.43004959127955 config_type=Accurate_Bulk pbc="T T T"
P        1.58119437       1.58119407       4.48409684      -0.67500000
P        4.48409146       1.58118217       1.58118203      -0.67500000
P        1.58119033       4.48409507       1.58118989      -0.67500000
P        5.05669693       5.05677093       5.05680871      -0.67500000
In       0.00163979       0.00164035       0.00164064       0.67500000
In       2.96878650       0.04834718       2.96878944       0.67500000
In       0.04834775       2.96878833       2.96878930       0.67500000
In       2.96878655       2.96878852       0.04834694       0.67500000
P        1.48987640       1.48987681      10.34964760      -0.67500000
P        4.43938008       1.46960522       7.37533921      -0.67500000
P        1.46959776       4.43937821       7.37534118      -0.67500000
P        4.41306097       4.41306078      10.30269562      -0.67500000
In       0.03508236       0.03507856       5.88410867       0.67500000
In       2.95704049       0.00462633       8.85925554       0.67500000
In       0.00462381       2.95703915       8.85925605       0.67500000
In       3.17389160       3.17389646       5.91986164       0.67500000
P        1.46959726       7.37534160       4.43937940      -0.67500000
P        4.43938222       7.37533861       1.46960855      -0.67500000
P        1.48987665      10.34964784       1.48987732      -0.67500000
P        4.41306130      10.30269532       4.41306104      -0.67500000
In       0.03508032       5.88410808       0.03507462       0.67500000
In       3.17388285       5.91986108       3.17389021       0.67500000
In       0.00462328       8.85925651       2.95703900       0.67500000
In       2.95704099       8.85925570       0.00462717       0.67500000
P        1.48853487       7.37588760      10.32075398      -0.67500000
P        4.53776307       7.15172145       7.15172253      -0.67500000
P        1.48853426      10.32075375       7.37588720      -0.67500000
P        4.45299180      10.30872834      10.30872845      -0.67500000
In      -0.03113429       5.89353772       5.89353834       0.67500000
In       2.99072021       5.93157229       8.79535602       0.67500000
In      -0.01076143       8.83907867       8.83907891       0.67500000
In       2.99072168       8.79535591       5.93157292       0.67500000
P        7.37534021       1.46960379       4.43938370      -0.67500000
P       10.34964799       1.48987771       1.48987797      -0.67500000
P        7.37533917       4.43938466       1.46960762      -0.67500000
P       10.30269447       4.41306188       4.41306179      -0.67500000
In       5.88410674       0.03507262       0.03507073       0.67500000
In       8.85925659       0.00462489       2.95704012       0.67500000
In       5.91985979       3.17387067       3.17387318       0.67500000
In       8.85925629       2.95704077       0.00462625       0.67500000
P        7.37588844       1.48853084      10.32075791      -0.67500000
P       10.32075687       1.48852908       7.37588748      -0.67500000
P        7.15175900       4.53775984       7.15176239      -0.67500000
P       10.30873532       4.45299123      10.30873594      -0.67500000
In       5.89353644      -0.03113422       5.89353846       0.67500000
In       8.83907881      -0.01076184       8.83907981       0.67500000
In       5.93157835       2.99071942       8.79536147       0.67500000
In       8.79536090       2.99072385       5.93158029       0.67500000
P        7.15177934       7.15178165       4.53775817      -0.67500000
P       10.32075883       7.37588795       1.48852708      -0.67500000
P        7.37588851      10.32075964       1.48852823      -0.67500000
P       10.30873910      10.30873961       4.45299094      -0.67500000
In       5.89353644       5.89353784      -0.03113412       0.67500000
In       8.79536366       5.93158338       2.99072348       0.67500000
In       5.93158206       8.79536412       2.99072053       0.67500000
In       8.83907919       8.83907994      -0.01076195       0.67500000
P        7.36684477       7.36684310      10.29194622      -0.67500000
P       10.29194613       7.36684575       7.36684485      -0.67500000
P        7.36684565      10.29194626       7.36684309      -0.67500000
P       10.32580287      10.32580242      10.32580210      -0.67500000
In       8.73861442       5.85107207       8.73861295       0.67500000
In       5.85107541       8.73860178       8.73860123       0.67500000
In       8.73862039       8.73861948       5.85107034       0.67500000
63