63
Lattice="11.8016818 -7.6e-06 -7.6e-06 -7.6e-06 11.8016818 -7.8e-06 -7.6e-06 -7.8e-06 11.8016816" Properties=species:S:1:pos:R:3:mulliken_charges:R:1:energies:R:1:forces:R:3 virial="-0.001343979365248383 3.847269175329341e-05 3.847269175329341e-05 3.847269175329341e-05 -0.001345261788306826 3.847269175329341e-05 3.847269175329341e-05 3.847269175329341e-05 -0.0013426969421899398" fermi_energy=3.4539138232004998 core_to_fermi_energy=15.43004959127955 config_type=Accurate_Bulk energy=-61124.33731546228 free_energy=-61124.33731546228 stress="0.0037951690770214215 0.00014519674686062415 -3.2698293485771155e-06 0.00014519674686062415 0.0037951690824236137 -3.2785417147318305e-06 -3.2698293485771155e-06 -3.2785417147318305e-06 0.0037179847361912014" pbc="T T T"
P        1.48570140       1.48570138       4.43319684      -0.67500000    -211.45095380      -0.00018807      -0.00018808      -0.00521600
P        4.43319677       1.48570143       1.48570157      -0.67500000    -212.14361407      -0.00282860       0.00765039       0.00801390
P        1.48570140       4.43319677       1.48570151      -0.67500000    -212.14361409       0.00765040      -0.00282861       0.00801389
P        4.52324513       4.52324511       4.52324516      -0.67500000    -211.44805594       0.02411219       0.02411219       0.04610163
In       0.00000342       0.00000333       0.00000333       0.67500000   -1752.95738424      -0.00704956      -0.00704956       0.00213953
In       2.95679317       0.00056146       2.95679284       0.67500000   -1752.86620635      -0.00640373      -0.00370397      -0.00614785
In       0.00056155       2.95679309       2.95679282       0.67500000   -1752.86620634      -0.00370397      -0.00640373      -0.00614786
In       2.95679316       2.95679310       0.00056145       0.67500000   -1752.96919051      -0.00264329      -0.00264328      -0.00133989
P        1.47614133       1.47614121      10.32552765      -0.67500000    -212.12912151      -0.00524497      -0.00524497       0.00464425
P        4.42624678       1.48443403       7.37542197      -0.67500000    -211.45811024      -0.01488601      -0.01155431      -0.01043980
P        1.48443406       4.42624666       7.37542195      -0.67500000    -211.45811018      -0.01155431      -0.01488601      -0.01043980
P        4.42624629       4.42624617      10.31722693      -0.67500000    -212.16025046      -0.00340586      -0.00340585      -0.00583281
In      -0.00000100      -0.00000118       5.90083955       0.67500000   -1752.90172828       0.00418757       0.00418756       0.00385583
In       2.95679016      -0.00056476       8.84488760       0.67500000   -1752.87134419      -0.00301604      -0.00702016       0.00821647
In      -0.00056451       2.95678995       8.84488754       0.67500000   -1752.87134417      -0.00702016      -0.00301604       0.00821648
In       3.00312422       3.00312405       5.87472845       0.67500000   -1752.84660232       0.05023933       0.05023932      -0.00591714
P        1.48443406       7.37542220       4.42624669      -0.67500000    -212.14449507       0.00028828      -0.00386339       0.00410983
P        4.42624677       7.37542221       1.48443414      -0.67500000    -212.02145833      -0.00683594      -0.01378199       0.00351337
P        1.47614133      10.32552794       1.47614130      -0.67500000    -211.99909948      -0.00484548      -0.00887820      -0.00200861
P        4.42624630      10.31722721       4.42624621      -0.67500000    -212.13027469      -0.00483577      -0.00192037      -0.00534241
In      -0.00000100       5.90083964      -0.00000118       0.67500000   -1752.96161281       0.01789723       0.00221110       0.00034749
In       3.00312423       5.87472857       3.00312385       0.67500000   -1752.88891827       0.00683907      -0.01638412       0.02192789
In      -0.00056451       8.84488747       2.95678969       0.67500000   -1752.96933510      -0.00122220      -0.00468672       0.00542491
In       2.95679014       8.84488755      -0.00056476       0.67500000   -1752.93014491      -0.00450156      -0.01354437       0.00137427
P        1.48569328       7.36847400      10.31596757      -0.67500000    -212.02158470       0.01336702      -0.01285898      -0.01774371
P        4.52323626       7.27842497       7.27842471      -0.67500000    -212.12167668       0.01053364       0.01012361      -0.00214633
P        1.48569328      10.31596789       7.36847371      -0.67500000    -212.14380519      -0.00223192      -0.00231167       0.00289842
P        4.43318591      10.31596391      10.31596358      -0.67500000    -211.99983641      -0.00299810       0.00394581       0.01690754
In      -0.00000653       5.90083538       5.90083529       0.67500000   -1752.87681849      -0.00692168      -0.00142333      -0.00307258
In       3.00312048       5.92694341       8.79855129       0.67500000   -1752.89243209       0.01004668      -0.01680293      -0.02726567
In       0.00054857       8.84488119       8.84488125       0.67500000   -1752.96604506       0.00134010      -0.00621269       0.00173485
In       3.00312048       8.79855131       5.92694332       0.67500000   -1752.97876103      -0.00167856       0.00095988       0.00130624
P        7.37542226       1.48443410       4.42624677      -0.67500000    -212.14449506      -0.00386340       0.00028827       0.00410983
P       10.32552793       1.47614137       1.47614147      -0.67500000    -211.99909948      -0.00887820      -0.00484548      -0.00200861
P        7.37542226       4.42624673       1.48443419      -0.67500000    -212.02145833      -0.01378200      -0.00683594       0.00351337
P       10.31722719       4.42624626       4.42624629      -0.67500000    -212.13027470      -0.00192038      -0.00483577      -0.00534240
In       5.90083962      -0.00000107      -0.00000108       0.67500000   -1752.96161278       0.00221110       0.01789723       0.00034750
In       8.84488752      -0.00056459       2.95678987       0.67500000   -1752.96933509      -0.00468672      -0.00122220       0.00542491
In       5.87472863       3.00312413       3.00312394       0.67500000   -1752.88891828      -0.01638411       0.00683906       0.02192789
In       8.84488753       2.95679013      -0.00056459       0.67500000   -1752.93014490      -0.01354436      -0.00450156       0.00137427
P        7.36847416       1.48569315      10.31596768      -0.67500000    -212.02158470      -0.01285899       0.01336701      -0.01774371
P       10.31596800       1.48569321       7.36847386      -0.67500000    -212.14380519      -0.00231168      -0.00223192       0.00289843
P        7.27842513       4.52323612       7.27842482      -0.67500000    -212.12167668       0.01012360       0.01053364      -0.00214634
P       10.31596406       4.43318576      10.31596369      -0.67500000    -211.99983641       0.00394581      -0.00299809       0.01690754
In       5.90083544      -0.00000666       5.90083539       0.67500000   -1752.87681852      -0.00142332      -0.00692168      -0.00307258
In       8.84488136       0.00054831       8.84488139       0.67500000   -1752.96604504      -0.00621267       0.00134010       0.00173485
In       5.92694358       3.00312025       8.79855134       0.67500000   -1752.89243210      -0.01680293       0.01004668      -0.02726567
In       8.79855141       3.00312035       5.92694344       0.67500000   -1752.97876103       0.00095988      -0.00167855       0.00130624
P        7.27842513       7.27842509       4.52323618      -0.67500000    -211.97110443       0.02953235       0.02953235      -0.03048870
P       10.31596800       7.36847414       1.48569335      -0.67500000    -211.99647811       0.00802842      -0.00046776      -0.00799251
P        7.36847416      10.31596801       1.48569328      -0.67500000    -211.99647810      -0.00046777       0.00802842      -0.00799251
P       10.31596406      10.31596401       4.43318584      -0.67500000    -212.01955209       0.00508590       0.00508590       0.00328566
In       5.90083544       5.90083547      -0.00000667       0.67500000   -1752.96958472      -0.00230085      -0.00230085      -0.00363790
In       8.79855141       5.92694352       3.00312015       0.67500000   -1752.96675737       0.00880569      -0.00858867      -0.01843171
In       5.92694358       8.79855135       3.00312006       0.67500000   -1752.96675736      -0.00858867       0.00880568      -0.01843171
In       8.84488136       8.84488134       0.00054829       0.67500000   -1752.95795182      -0.00062941      -0.00062942      -0.00025273
P        7.37541634       7.37541620      10.31722198      -0.67500000    -211.99551832      -0.00065958      -0.00065958       0.00160191
P       10.31722230       7.37541619       7.37541597      -0.67500000    -212.00330400      -0.00095693      -0.00438822       0.00455936
P        7.37541632      10.31722226       7.37541594      -0.67500000    -212.00330400      -0.00438823      -0.00095693       0.00455936
P       10.32551558      10.32551543      10.32551514      -0.67500000    -211.99523120      -0.00321369      -0.00321369      -0.00361263
In       8.79854443       5.87472033       8.79854426       0.67500000   -1752.95973592       0.00851514      -0.00558654       0.01373308
In       5.87472050       8.79854422       8.79854421       0.67500000   -1752.95973590      -0.00558654       0.00851513       0.01373308
In       8.79854442       8.79854428       5.87472021       0.67500000   -1752.94138883       0.00976688       0.00976687       0.00771613
63
Lattice="11.8016818 -7.6e-06 -7.6e-06 -7.6e-06 11.8016818 -7.8e-06 -7.6e-06 -7.8e-06 11.8016816" Properties=species:S:1:pos:R:3:mulliken_charges:R:1:energies:R:1:forces:R:3 virial="-0.001343979365248383 3.847269175329341e-05 3.847269175329341e-05 3.847269175329341e-05 -0.001345261788306826 3.847269175329341e-05 3.847269175329341e-05 3.847269175329341e-05 -0.0013426969421899398" fermi_energy=3.4539138232004998 core_to_fermi_energy=15.43004959127955 config_type=Accurate_Bulk energy=-61124.33731546228 free_energy=-61124.33731546228 stress="0.0037951690770214215 0.00014519674686062415 -3.2698293485771155e-06 0.00014519674686062415 0.0037951690824236137 -3.2785417147318305e-06 -3.2698293485771155e-06 -3.2785417147318305e-06 0.0037179847361912014" pbc="T T T"
P        1.55500052       1.55500047       4.47955893      -0.67500000    -211.45095380      -0.00018807      -0.00018808      -0.00521600
P        4.43816920       1.47675323       1.47395727      -0.67500000    -212.14361407      -0.00282860       0.00765039       0.00801390
P        1.47675323       4.43816919       1.47395722      -0.67500000    -212.14361409       0.00765040      -0.00282861       0.00801389
P        4.58191361       4.58191358       4.42879161      -0.67500000    -211.44805594       0.02411219       0.02411219       0.04610163
In       0.02134263       0.02134261       0.00029850       0.67500000   -1752.95738424      -0.00704956      -0.00704956       0.00213953
In       2.96712621       0.02944413       2.99097477       0.67500000   -1752.86620635      -0.00640373      -0.00370397      -0.00614785
In       0.02944419       2.96712616       2.99097472       0.67500000   -1752.86620634      -0.00370397      -0.00640373      -0.00614786
In       2.96309810       2.96309808       0.00492168       0.67500000   -1752.96919051      -0.00264329      -0.00264328      -0.00133989
P        1.49163264       1.49163247      10.31265970      -0.67500000    -212.12912151      -0.00524497      -0.00524497       0.00464425
P        4.46578944       1.52485563       7.37841896      -0.67500000    -211.45811024      -0.01488601      -0.01155431      -0.01043980
P        1.52485573       4.46578933       7.37841890      -0.67500000    -211.45811018      -0.01155431      -0.01488601      -0.01043980
P        4.43830152       4.43830136      10.34095443      -0.67500000    -212.16025046      -0.00340586      -0.00340585      -0.00583281
In       0.04245338       0.04245325       5.89414735       0.67500000   -1752.90172828       0.00418757       0.00418756       0.00385583
In       2.97270778       0.03125948       8.81804892       0.67500000   -1752.87134419      -0.00301604      -0.00702016       0.00821647
In       0.03125966       2.97270760       8.81804887       0.67500000   -1752.87134417      -0.00702016      -0.00301604       0.00821648
In       3.11268094       3.11268083       5.88288496       0.67500000   -1752.84660232       0.05023933       0.05023932      -0.00591714
P        1.49646741       7.38607902       4.40534571      -0.67500000    -212.14449507       0.00028828      -0.00386339       0.00410983
P        4.45288298       7.41530206       1.47080993      -0.67500000    -212.02145833      -0.00683594      -0.01378199       0.00351337
P        1.50141440      10.36120647       1.48557523      -0.67500000    -211.99909948      -0.00484548      -0.00887820      -0.00200861
P        4.43442949      10.32851384       4.44698595      -0.67500000    -212.13027469      -0.00483577      -0.00192037      -0.00534241
In      -0.00623912       5.91786156       0.00030904       0.67500000   -1752.96161281       0.01789723       0.00221110       0.00034749
In       2.99873802       5.90408706       2.94271432       0.67500000   -1752.88891827       0.00683907      -0.01638412       0.02192789
In       0.01669150       8.86178607       2.93816420       0.67500000   -1752.96933510      -0.00122220      -0.00468672       0.00542491
In       2.99136752       8.90185751      -0.00191238       0.67500000   -1752.93014491      -0.00450156      -0.01354437       0.00137427
P        1.48823500       7.41378272      10.35624833      -0.67500000    -212.02158470       0.01336702      -0.01285898      -0.01774371
P        4.50280319       7.27694008       7.30088182      -0.67500000    -212.12167668       0.01053364       0.01012361      -0.00214633
P        1.49614975      10.33154377       7.36457339      -0.67500000    -212.14380519      -0.00223192      -0.00231167       0.00289842
P        4.45798781      10.34338454      10.28054604      -0.67500000    -211.99983641      -0.00299810       0.00394581       0.01690754
In       0.02295324       5.91989785       5.89948925       0.67500000   -1752.87681849      -0.00692168      -0.00142333      -0.00307258
In       2.99186547       5.95894500       8.86146136       0.67500000   -1752.89243209       0.01004668      -0.01680293      -0.02726567
In       0.01331656       8.86808614       8.85302241       0.67500000   -1752.96604506       0.00134010      -0.00621269       0.00173485
In       3.00280030       8.79797803       5.92917275       0.67500000   -1752.97876103      -0.00167856       0.00095988       0.00130624
P        7.38607907       1.49646736       4.40534581      -0.67500000    -212.14449506      -0.00386340       0.00028827       0.00410983
P       10.36120648       1.50141439       1.48557539      -0.67500000    -211.99909948      -0.00887820      -0.00484548      -0.00200861
P        7.41530206       4.45288297       1.47080999      -0.67500000    -212.02145833      -0.01378200      -0.00683594       0.00351337
P       10.32851388       4.43442944       4.44698606      -0.67500000    -212.13027470      -0.00192038      -0.00483577      -0.00534240
In       5.91786157      -0.00623914       0.00030914       0.67500000   -1752.96161278       0.00221110       0.01789723       0.00034750
In       8.86178613       0.01669145       2.93816436       0.67500000   -1752.96933509      -0.00468672      -0.00122220       0.00542491
In       5.90408711       2.99873798       2.94271438       0.67500000   -1752.88891828      -0.01638411       0.00683906       0.02192789
In       8.90185753       2.99136750      -0.00191226       0.67500000   -1752.93014490      -0.01354436      -0.00450156       0.00137427
P        7.41378290       1.48823483      10.35624845      -0.67500000    -212.02158470      -0.01285899       0.01336701      -0.01774371
P       10.33154389       1.49614963       7.36457355      -0.67500000    -212.14380519      -0.00231168      -0.00223192       0.00289843
P        7.27694021       4.50280305       7.30088193      -0.67500000    -212.12167668       0.01012360       0.01053364      -0.00214634
P       10.34338471       4.45798763      10.28054616      -0.67500000    -211.99983641       0.00394581      -0.00299809       0.01690754
In       5.91989796       0.02295314       5.89948935       0.67500000   -1752.87681852      -0.00142332      -0.00692168      -0.00307258
In       8.86808631       0.01331638       8.85302257       0.67500000   -1752.96604504      -0.00621267       0.00134010       0.00173485
In       5.95894518       2.99186529       8.86146144       0.67500000   -1752.89243210      -0.01680293       0.01004668      -0.02726567
In       8.79797815       3.00280018       5.92917287       0.67500000   -1752.97876103       0.00095988      -0.00167855       0.00130624
P        7.31895364       7.31895362       4.55815548      -0.67500000    -211.97110443       0.02953235       0.02953235      -0.03048870
P       10.31447329       7.37750440       1.49493637      -0.67500000    -211.99647811       0.00802842      -0.00046776      -0.00799251
P        7.37750441      10.31447329       1.49493632      -0.67500000    -211.99647810      -0.00046777       0.00802842      -0.00799251
P       10.36365059      10.36365054       4.41287742      -0.67500000    -212.01955209       0.00508590       0.00508590       0.00328566
In       5.92248010       5.92248009      -0.00059629       0.67500000   -1752.96958472      -0.00230085      -0.00230085      -0.00363790
In       8.80770505       5.93931645       3.03296007       0.67500000   -1752.96675737       0.00880569      -0.00858867      -0.01843171
In       5.93931651       8.80770502       3.03296000       0.67500000   -1752.96675736      -0.00858867       0.00880568      -0.01843171
In       8.84911552       8.84911550      -0.00072368       0.67500000   -1752.95795182      -0.00062941      -0.00062942      -0.00025273
P        7.38810857       7.38810841      10.29909621      -0.67500000    -211.99551832      -0.00065958      -0.00065958       0.00160191
P       10.34186360       7.40093881       7.37015600      -0.67500000    -212.00330400      -0.00095693      -0.00438822       0.00455936
P        7.40093891      10.34186350       7.37015595      -0.67500000    -212.00330400      -0.00438823      -0.00095693       0.00455936
P       10.33901838      10.33901821      10.33986316      -0.67500000    -211.99523120      -0.00321369      -0.00321369      -0.00361263
In       8.80622015       5.89432478       8.77050735       0.67500000   -1752.95973592       0.00851514      -0.00558654       0.01373308
In       5.89432495       8.80621996       8.77050728       0.67500000   -1752.95973590      -0.00558654       0.00851513       0.01373308
In       8.86075978       8.86075967       5.86623368       0.67500000   -1752.94138883       0.00976688       0.00976687       0.00771613
63
Lattice="11.8016818 -7.6e-06 -7.6e-06 -7.6e-06 11.8016818 -7.8e-06 -7.6e-06 -7.8e-06 11.8016816" Properties=species:S:1:pos:R:3:mulliken_charges:R:1:energies:R:1:forces:R:3 virial="-0.001343979365248383 3.847269175329341e-05 3.847269175329341e-05 3.847269175329341e-05 -0.001345261788306826 3.847269175329341e-05 3.847269175329341e-05 3.847269175329341e-05 -0.0013426969421899398" fermi_energy=3.4539138232004998 core_to_fermi_energy=15.43004959127955 config_type=Accurate_Bulk energy=-61124.33731546228 free_energy=-61124.33731546228 stress="0.0037951690770214215 0.00014519674686062415 -3.2698293485771155e-06 0.00014519674686062415 0.0037951690824236137 -3.2785417147318305e-06 -3.2698293485771155e-06 -3.2785417147318305e-06 0.0037179847361912014" pbc="T T T"
P        1.62445029       1.62445024       4.55653542      -0.67500000    -211.45095380      -0.00018807      -0.00018808      -0.00521600
P        4.42356535       1.44338786       1.46610532      -0.67500000    -212.14361407      -0.00282860       0.00765039       0.00801390
P        1.44338787       4.42356534       1.46610527      -0.67500000    -212.14361409       0.00765040      -0.00282861       0.00801389
P        4.63896373       4.63896369       4.31388671      -0.67500000    -211.44805594       0.02411219       0.02411219       0.04610163
In       0.02395404       0.02395402       0.00018286       0.67500000   -1752.95738424      -0.00704956      -0.00704956       0.00213953
In       2.94418141       0.05329808       3.03722858       0.67500000   -1752.86620635      -0.00640373      -0.00370397      -0.00614785
In       0.05329814       2.94418136       3.03722853       0.67500000   -1752.86620634      -0.00370397      -0.00640373      -0.00614786
In       2.96069864       2.96069862       0.01557002       0.67500000   -1752.96919051      -0.00264329      -0.00264328      -0.00133989
P        1.49389330       1.49389312      10.30774702      -0.67500000    -212.12912151      -0.00524497      -0.00524497       0.00464425
P        4.49510036       1.55094170       7.38707026      -0.67500000    -211.45811024      -0.01488601      -0.01155431      -0.01043980
P        1.55094180       4.49510025       7.38707020      -0.67500000    -211.45811018      -0.01155431      -0.01488601      -0.01043980
P        4.43335788       4.43335772      10.35477722      -0.67500000    -212.16025046      -0.00340586      -0.00340585      -0.00583281
In       0.06140709       0.06140697       5.86844297       0.67500000   -1752.90172828       0.00418757       0.00418756       0.00385583
In       2.96001971       0.05059068       8.78466965       0.67500000   -1752.87134419      -0.00301604      -0.00702016       0.00821647
In       0.05059086       2.96001953       8.78466961       0.67500000   -1752.87134417      -0.00702016      -0.00301604       0.00821648
In       3.26126469       3.26126457       5.92457308       0.67500000   -1752.84660232       0.05023933       0.05023932      -0.00591714
P        1.48940908       7.39301751       4.39493489      -0.67500000    -212.14449507       0.00028828      -0.00386339       0.00410983
P        4.45054885       7.43403731       1.45515133      -0.67500000    -212.02145833      -0.00683594      -0.01378199       0.00351337
P        1.50458784      10.38056035       1.50044804      -0.67500000    -211.99909948      -0.00484548      -0.00887820      -0.00200861
P        4.42591593      10.32664647       4.45915390      -0.67500000    -212.13027469      -0.00483577      -0.00192037      -0.00534241
In      -0.04346287       5.90511638      -0.00341664       0.67500000   -1752.96161281       0.01789723       0.00221110       0.00034749
In       2.95932703       5.92290282       2.89297248       0.67500000   -1752.88891827       0.00683907      -0.01638412       0.02192789
In       0.00758291       8.86013869       2.91947863       0.67500000   -1752.96933510      -0.00122220      -0.00468672       0.00542491
In       3.00325733       8.94276806      -0.00378023       0.67500000   -1752.93014491      -0.00450156      -0.01354437       0.00137427
P        1.45739873       7.44564222      10.40275330      -0.67500000    -212.02158470       0.01336702      -0.01285898      -0.01774371
P        4.46636446       7.24157069       7.31645493      -0.67500000    -212.12167668       0.01053364       0.01012361      -0.00214633
P        1.48347681      10.32986563       7.35343699      -0.67500000    -212.14380519      -0.00223192      -0.00231167       0.00289842
P        4.45431773      10.34743553      10.23365254      -0.67500000    -211.99983641      -0.00299810       0.00394581       0.01690754
In       0.02984034       5.91890163       5.89398036       0.67500000   -1752.87681849      -0.00692168      -0.00142333      -0.00307258
In       2.95355242       5.98742597       8.92772018       0.67500000   -1752.89243209       0.01004668      -0.01680293      -0.02726567
In      -0.00051971       8.87059653       8.85123879       0.67500000   -1752.96604506       0.00134010      -0.00621269       0.00173485
In       3.00235731       8.78671774       5.93794241       0.67500000   -1752.97876103      -0.00167856       0.00095988       0.00130624
P        7.39301756       1.48940903       4.39493499      -0.67500000    -212.14449506      -0.00386340       0.00028827       0.00410983
P       10.38056036       1.50458783       1.50044819      -0.67500000    -211.99909948      -0.00887820      -0.00484548      -0.00200861
P        7.43403731       4.45054885       1.45515138      -0.67500000    -212.02145833      -0.01378200      -0.00683594       0.00351337
P       10.32664651       4.42591588       4.45915401      -0.67500000    -212.13027470      -0.00192038      -0.00483577      -0.00534240
In       5.90511639      -0.04346289      -0.00341655       0.67500000   -1752.96161278       0.00221110       0.01789723       0.00034750
In       8.86013876       0.00758285       2.91947878       0.67500000   -1752.96933509      -0.00468672      -0.00122220       0.00542491
In       5.92290287       2.95932697       2.89297254       0.67500000   -1752.88891828      -0.01638411       0.00683906       0.02192789
In       8.94276807       3.00325732      -0.00378012       0.67500000   -1752.93014490      -0.01354436      -0.00450156       0.00137427
P        7.44564239       1.45739857      10.40275341      -0.67500000    -212.02158470      -0.01285899       0.01336701      -0.01774371
P       10.32986575       1.48347669       7.35343715      -0.67500000    -212.14380519      -0.00231168      -0.00223192       0.00289843
P        7.24157083       4.46636433       7.31645503      -0.67500000    -212.12167668       0.01012360       0.01053364      -0.00214634
P       10.34743571       4.45431755      10.23365265      -0.67500000    -211.99983641       0.00394581      -0.00299809       0.01690754
In       5.91890174       0.02984023       5.89398046       0.67500000   -1752.87681852      -0.00142332      -0.00692168      -0.00307258
In       8.87059669      -0.00051988       8.85123895       0.67500000   -1752.96604504      -0.00621267       0.00134010       0.00173485
In       5.98742614       2.95355225       8.92772025       0.67500000   -1752.89243210      -0.01680293       0.01004668      -0.02726567
In       8.78671786       3.00235718       5.93794252       0.67500000   -1752.97876103       0.00095988      -0.00167855       0.00130624
P        7.30829087       7.30829086       4.58965954      -0.67500000    -211.97110443       0.02953235       0.02953235      -0.03048870
P       10.28999108       7.36583492       1.50082876      -0.67500000    -211.99647811       0.00802842      -0.00046776      -0.00799251
P        7.36583494      10.28999108       1.50082870      -0.67500000    -211.99647810      -0.00046777       0.00802842      -0.00799251
P       10.37077374      10.37077369       4.39904659      -0.67500000    -212.01955209       0.00508590       0.00508590       0.00328566
In       5.91952915       5.91952914       0.00222864       0.67500000   -1752.96958472      -0.00230085      -0.00230085      -0.00363790
In       8.79367449       5.93022992       3.05638524       0.67500000   -1752.96675737       0.00880569      -0.00858867      -0.01843171
In       5.93022997       8.79367446       3.05638517       0.67500000   -1752.96675736      -0.00858867       0.00880568      -0.01843171
In       8.83350860       8.83350858      -0.00863193       0.67500000   -1752.95795182      -0.00062941      -0.00062942      -0.00025273
P        7.37686625       7.37686608      10.28287188      -0.67500000    -211.99551832      -0.00065958      -0.00065958       0.00160191
P       10.33829600       7.39593916       7.36255615      -0.67500000    -212.00330400      -0.00095693      -0.00438822       0.00455936
P        7.39593927      10.33829589       7.36255611      -0.67500000    -212.00330400      -0.00438823      -0.00095693       0.00455936
P       10.33412208      10.33412191      10.34920303      -0.67500000    -211.99523120      -0.00321369      -0.00321369      -0.00361263
In       8.78137740       5.88705273       8.73906674       0.67500000   -1752.95973592       0.00851514      -0.00558654       0.01373308
In       5.88705291       8.78137720       8.73906667       0.67500000   -1752.95973590      -0.00558654       0.00851513       0.01373308
In       8.86870489       8.86870478       5.85765905       0.67500000   -1752.94138883       0.00976688       0.00976687       0.00771613
63
Lattice="11.8016818 -7.6e-06 -7.6e-06 -7.6e-06 11.8016818 -7.8e-06 -7.6e-06 -7.8e-06 11.8016816" Properties=species:S:1:pos:R:3:mulliken_charges:R:1:energies:R:1:forces:R:3 virial="-0.001343979365248383 3.847269175329341e-05 3.847269175329341e-05 3.847269175329341e-05 -0.001345261788306826 3.847269175329341e-05 3.847269175329341e-05 3.847269175329341e-05 -0.0013426969421899398" fermi_energy=3.4539138232004998 core_to_fermi_energy=15.43004959127955 config_type=Accurate_Bulk energy=-61124.33731546228 free_energy=-61124.33731546228 stress="0.0037951690770214215 0.00014519674686062415 -3.2698293485771155e-06 0.00014519674686062415 0.0037951690824236137 -3.2785417147318305e-06 -3.2698293485771155e-06 -3.2785417147318305e-06 0.0037179847361912014" pbc="T T T"
P        1.66135323       1.66135319       4.60368024      -0.67500000    -211.45095380      -0.00018807      -0.00018808      -0.00521600
P        4.41462463       1.42095633       1.46138314      -0.67500000    -212.14361407      -0.00282860       0.00765039       0.00801390
P        1.42095633       4.41462462       1.46138309      -0.67500000    -212.14361409       0.00765040      -0.00282861       0.00801389
P        4.68506553       4.68506549       4.21975114      -0.67500000    -211.44805594       0.02411219       0.02411219       0.04610163