65
Lattice="11.801682 -8e-06 -8e-06 -8e-06 11.801682 -8e-06 -8e-06 -8e-06 11.801682" Properties=species:S:1:pos:R:3:mulliken_charges:R:1:hirshfeld_charges:R:1 fermi_energy=3.718544537463 core_to_fermi_energy=15.690571930710242 config_type=Interstitial energy=-63090.24491121211 pbc="T T T"
P        1.39918059       1.38091801       4.40294546      -0.64200000      -0.23000000
P        4.46391422       1.36047583       1.36047583      -0.45200000      -0.16000000
P        1.39918059       4.40294546       1.38091801      -0.64200000      -0.23000000
P        3.95365610       5.16050882       5.16050882      -0.66200000      -0.24000000
P        1.46343439       1.45692750      10.31608129      -0.64200000      -0.23000000
P        4.41234914       1.46072358       7.34512508      -0.67600000      -0.24000000
P        1.39920432       4.40289271       7.42490542      -0.67400000      -0.24000000
P        4.41343850       4.40292257      10.30376561      -0.67200000      -0.23000000
P        1.39920432       7.42490542       4.40289271      -0.67400000      -0.24000000
P        4.41234914       7.34512508       1.46072358      -0.67600000      -0.24000000
P        1.46343439      10.31608129       1.45692750      -0.64200000      -0.23000000
P        4.41343850      10.30376561       4.40292257      -0.67200000      -0.23000000
P        1.46344157       7.34890767      10.29143953      -0.67400000      -0.24000000
P        4.46393597       7.44542050       7.44542050      -0.68100000      -0.24000000
P        1.46344157      10.29143953       7.34890767      -0.67400000      -0.24000000
P        4.35662956      10.30377694      10.30377694      -0.66200000      -0.24000000
P        7.42365257       1.41937859       4.43170881      -0.67600000      -0.24000000
P       10.31556119       1.44566021       1.44566021      -0.67700000      -0.24000000
P        7.42365257       4.43170881       1.41937859      -0.67600000      -0.24000000
P       10.35507054       4.40292057       4.40292057      -0.67400000      -0.24000000
P        7.36353217       1.44223166      10.29153081      -0.67600000      -0.24000000
P       10.32958752       1.44182975       7.36401752      -0.68000000      -0.24000000
P        7.42366754       4.37414113       7.38648291      -0.67500000      -0.24000000
P       10.27526687       4.40291735      10.30376330      -0.67600000      -0.24000000
P        7.42366754       7.38648291       4.37414113      -0.67500000      -0.24000000
P       10.32958752       7.36401752       1.44182975      -0.68000000      -0.24000000
P        7.36353217      10.29153081       1.44223166      -0.67600000      -0.24000000
P       10.27526687      10.30376330       4.40291735      -0.67600000      -0.24000000
P        7.36354085       7.36361423      10.31600836      -0.67500000      -0.24000000
P       10.31557068       7.36017754       7.36017754      -0.67500000      -0.24000000
P        7.36354085      10.31600836       7.36361423      -0.67500000      -0.24000000
P       10.31346131      10.30375679      10.30375679      -0.67400000      -0.24000000
In      -0.00668197      -0.02760505      -0.02760505       0.67600000       0.24000000
In       2.96340178      -0.00481916       2.91231278       0.73400000       0.26000000
In       0.00573286       2.91384410       2.91384410       0.67600000       0.24000000
In       2.96340178       2.91231278      -0.00481916       0.73400000       0.26000000
In      -0.04810805      -0.07352323       5.88591726       0.65600000       0.23000000
In       2.91743711      -0.00796294       8.81380965       0.68200000       0.25000000
In      -0.04810505       2.91995699       8.87937176       0.65600000       0.23000000
In       2.78606382       2.84005106       5.96576550       0.68200000       0.25000000
In      -0.04810805       5.88591726      -0.07352323       0.65600000       0.23000000
In       2.78606382       5.96576550       2.84005106       0.68200000       0.25000000
In      -0.04810505       8.87937176       2.91995699       0.65600000       0.23000000
In       2.91743711       8.81380965      -0.00796294       0.68200000       0.25000000
In       0.00574405       5.89200623       5.89200623       0.68000000       0.24000000
In       2.96341300       5.89353514       8.81064747       0.68600000       0.24000000
In      -0.00668476       8.83346402       8.83346402       0.68000000       0.24000000
In       2.96341300       8.81064747       5.89353514       0.68600000       0.24000000
In       5.89929279      -0.09129610      -0.09129610       0.63300000       0.22000000
In       8.84671197      -0.03566107       2.90626453       0.68600000       0.24000000
In       6.09245639       2.77140822       2.77140822       0.63300000       0.22000000
In       8.84671197       2.90626453      -0.03566107       0.68600000       0.24000000
In       5.88189100      -0.02774724       5.87774270       0.68700000       0.24000000
In       8.84561489      -0.01815084       8.82401201       0.67800000       0.24000000
In       5.88188441       2.92811473       8.83359683       0.68700000       0.24000000
In       8.89474788       2.93096352       5.87488199       0.67800000       0.24000000
In       5.88189100       5.87774270      -0.02774724       0.68700000       0.24000000
In       8.89474788       5.87488199       2.93096352       0.67800000       0.24000000
In       5.88188441       8.83359683       2.92811473       0.68700000       0.24000000
In       8.84561489       8.82401201      -0.01815084       0.67800000       0.24000000
In       6.09250501       6.03449164       6.03449164       0.66100000       0.23000000
In       8.84671775       5.89959370       8.84151488       0.67900000       0.24000000
In       5.89930332       8.89719248       8.89719248       0.66100000       0.23000000
In       8.84671775       8.84151488       5.89959370       0.67900000       0.24000000
P        3.95365241       3.64547126       3.64547126      -0.45200000      -0.16000000
65
Lattice="11.801682 -8e-06 -8e-06 -8e-06 11.801682 -8e-06 -8e-06 -8e-06 11.801682" Properties=species:S:1:pos:R:3:mulliken_charges:R:1:hirshfeld_charges:R:1 fermi_energy=3.718544537463 core_to_fermi_energy=15.690571930710242 config_type=Interstitial energy=-63090.2432513139 pbc="T T T"
P        1.41080479       1.37817966       4.39291042      -0.64200000      -0.23000000
P        4.47334587       1.32644682       1.32610038      -0.45200000      -0.16000000
P        1.41080479       4.39325686       1.37783321      -0.64200000      -0.23000000
P        3.95112444       5.09516087       5.09481443      -0.66200000      -0.24000000
P        1.46648836       1.44561155      10.30531111      -0.64200000      -0.23000000
P        4.41263345       1.44619589       7.33050598      -0.67600000      -0.24000000
P        1.38908950       4.39459563       7.42026396      -0.67400000      -0.24000000
P        4.41315085       4.38696177      10.28849394      -0.67200000      -0.23000000
P        1.38908950       7.42061040       4.39424919      -0.67400000      -0.24000000
P        4.41263345       7.33085242       1.44584945      -0.67600000      -0.24000000
P        1.46648836      10.30565755       1.44526511      -0.64200000      -0.23000000
P        4.41315085      10.28884038       4.38661533      -0.67200000      -0.23000000
P        1.45902530       7.33821837      10.28274657      -0.67400000      -0.24000000
P        4.45171915       7.41361750       7.41327106      -0.68100000      -0.24000000
P        1.45902530      10.28309301       7.33787193      -0.67400000      -0.24000000
P        4.35749605      10.27690442      10.27655798      -0.66200000      -0.24000000
P        7.43075365       1.39773711       4.41405076      -0.67600000      -0.24000000
P       10.32235731       1.43248342       1.43213697      -0.67700000      -0.24000000
P        7.43075365       4.41439721       1.39739067      -0.67600000      -0.24000000
P       10.35406337       4.38816725       4.38782081      -0.67400000      -0.24000000
P        7.36832110       1.42493767      10.27199345      -0.67600000      -0.24000000
P       10.32854240       1.42566766       7.34586380      -0.68000000      -0.24000000
P        7.41607989       4.35887916       7.36544027      -0.67500000      -0.24000000
P       10.27655092       4.38803439      10.28743268      -0.67600000      -0.24000000
P        7.41607989       7.36578671       4.35853272      -0.67500000      -0.24000000
P       10.32854240       7.34621024       1.42532122      -0.68000000      -0.24000000
P        7.36832110      10.27233989       1.42459123      -0.67600000      -0.24000000
P       10.27655092      10.28777912       4.38768795      -0.67600000      -0.24000000
P        7.35880614       7.34558654      10.29690682      -0.67500000      -0.24000000
P       10.30925311       7.34732599       7.34697955      -0.67500000      -0.24000000
P        7.35880614      10.29725326       7.34524010      -0.67500000      -0.24000000
P       10.31277285      10.28953927      10.28919283      -0.67400000      -0.24000000
In      -0.00394433      -0.04288486      -0.04323130       0.67600000       0.24000000
In       2.96999525      -0.01159052       2.89876543       0.73400000       0.26000000
In       0.01141835       2.90247107       2.90212463       0.67600000       0.24000000
In       2.96999525       2.89911187      -0.01193696       0.73400000       0.26000000
In      -0.04499303      -0.08291032       5.86448710       0.65600000       0.23000000
In       2.91805862      -0.02023759       8.80181042       0.68200000       0.25000000
In      -0.05071570       2.89966442       8.86629380       0.65600000       0.23000000
In       2.78595759       2.83934152       5.96567455       0.68200000       0.25000000
In      -0.04499303       5.86483354      -0.08325676       0.65600000       0.23000000
In       2.78595759       5.96602099       2.83899508       0.68200000       0.25000000
In      -0.05071570       8.86664024       2.89931797       0.65600000       0.23000000
In       2.91805862       8.80215686      -0.02058403       0.68200000       0.25000000
In      -0.00138789       5.88010726       5.87976082       0.68000000       0.24000000
In       2.95551966       5.88139846       8.80595994       0.68600000       0.24000000
In      -0.00963588       8.81877893       8.81843249       0.68000000       0.24000000
In       2.95551966       8.80630638       5.88105202       0.68600000       0.24000000
In       5.90876752      -0.12394948      -0.12429592       0.63300000       0.22000000
In       8.85300609      -0.05398879       2.88691808       0.68600000       0.24000000
In       6.11103077       2.73511316       2.73476672       0.63300000       0.22000000
In       8.85300609       2.88726452      -0.05433523       0.68600000       0.24000000
In       5.88090871      -0.04217105       5.85950782       0.68700000       0.24000000
In       8.84548131      -0.03793120       8.80329770       0.67800000       0.24000000
In       5.88279734       2.91124018       8.81842240       0.68700000       0.24000000
In       8.89277521       2.91675576       5.85935417       0.67800000       0.24000000
In       5.88090871       5.85985426      -0.04251749       0.68700000       0.24000000
In       8.89277521       5.85970061       2.91640932       0.67800000       0.24000000
In       5.88279734       8.81876884       2.91089374       0.68700000       0.24000000
In       8.84548131       8.80364414      -0.03827764       0.67800000       0.24000000
In       6.07256442       6.00151595       6.00116951       0.66100000       0.23000000
In       8.84204588       5.88071284       8.82412257       0.67900000       0.24000000
In       5.89136854       8.86452308       8.86417664       0.66100000       0.23000000
In       8.84204588       8.82446901       5.88036640       0.67900000       0.24000000
P        3.95834287       3.58108449       3.58073804      -0.45200000      -0.16000000
65
Lattice="11.801682 -8e-06 -8e-06 -8e-06 11.801682 -8e-06 -8e-06 -8e-06 11.801682" Properties=species:S:1:pos:R:3:mulliken_charges:R:1:hirshfeld_charges:R:1 fermi_energy=3.718544537463 core_to_fermi_energy=15.690571930710242 config_type=Interstitial energy=-63090.23584736048 pbc="T T T"
P        1.42663883       1.37306595       4.37943155      -0.64200000      -0.23000000
P        4.48190145       1.28410933       1.28334535      -0.45200000      -0.16000000
P        1.42663883       4.38019553       1.37230197      -0.64200000      -0.23000000
P        3.94352655       5.01502276       5.01425878      -0.66200000      -0.24000000
P        1.46762542       1.43021638      10.28918690      -0.64200000      -0.23000000
P        4.41357682       1.42758290       7.31562255      -0.67600000      -0.24000000
P        1.37867980       4.38543714       7.41342925      -0.67400000      -0.24000000
P        4.41323768       4.36835011      10.26990115      -0.67200000      -0.23000000
P        1.37867980       7.41419323       4.38467316      -0.67400000      -0.24000000
P        4.41357682       7.31638653       1.42681892      -0.67600000      -0.24000000
P        1.46762542      10.28995088       1.42945240      -0.64200000      -0.23000000
P        4.41323768      10.27066513       4.36758613      -0.67200000      -0.23000000
P        1.45384453       7.32495187      10.27175985      -0.67400000      -0.24000000
P        4.43780538       7.37538600       7.37462202      -0.68100000      -0.24000000
P        1.45384453      10.27252383       7.32418790      -0.67400000      -0.24000000
P        4.36144280      10.24521956      10.24445558      -0.66200000      -0.24000000
P        7.43948176       1.37271777       4.39228986      -0.67600000      -0.24000000
P       10.33175730       1.41839698       1.41763300      -0.67700000      -0.24000000
P        7.43948176       4.39305384       1.37195379      -0.67600000      -0.24000000
P       10.35308493       4.37072611       4.36996213      -0.67400000      -0.24000000
P        7.37501422       1.40557386      10.24893648      -0.67600000      -0.24000000
P       10.32722351       1.40677500       7.32394935      -0.68000000      -0.24000000
P        7.40651533       4.34200689       7.33944508      -0.67500000      -0.24000000
P       10.27806741       4.37163794      10.26734462      -0.67600000      -0.24000000
P        7.40651533       7.34020906       4.34124291      -0.67500000      -0.24000000
P       10.32722351       7.32471333       1.40601102      -0.68000000      -0.24000000
P        7.37501422      10.24970046       1.40480988      -0.67600000      -0.24000000
P       10.27806741      10.26810860       4.37087396      -0.67600000      -0.24000000
P        7.35276047       7.32399449      10.27520316      -0.67500000      -0.24000000
P       10.30248775       7.33184657       7.33108259      -0.67500000      -0.24000000
P        7.35276047      10.27596714       7.32323051      -0.67500000      -0.24000000
P       10.31140262      10.27263995      10.27187597      -0.67400000      -0.24000000
In      -0.00216962      -0.06050275      -0.06126673       0.67600000       0.24000000
In       2.97692115      -0.02542553       2.87989248       0.73400000       0.26000000
In       0.02088163       2.89059941       2.88983543       0.67600000       0.24000000
In       2.97692115       2.88065646      -0.02618951       0.73400000       0.26000000
In      -0.04073580      -0.09326183       5.83853664       0.65600000       0.23000000
In       2.91940816      -0.03780637       8.78830768       0.68200000       0.25000000
In      -0.05426818       2.87764622       8.84888877       0.65600000       0.23000000
In       2.78357406       2.83384767       5.96960940       0.68200000       0.25000000
In      -0.04073580       5.83930062      -0.09402581       0.65600000       0.23000000
In       2.78357406       5.97037338       2.83308369       0.68200000       0.25000000
In      -0.05426818       8.84965274       2.87688224       0.65600000       0.23000000
In       2.91940816       8.78907166      -0.03857035       0.68200000       0.25000000
In      -0.00957687       5.86527239       5.86450841       0.68000000       0.24000000
In       2.94725528       5.86732157       8.79963558       0.68600000       0.24000000
In      -0.01317684       8.80145519       8.80069121       0.68000000       0.24000000
In       2.94725528       8.80039955       5.86655760       0.68600000       0.24000000
In       5.92252716      -0.16166236      -0.16242634       0.63300000       0.22000000
In       8.86205916      -0.07569293       2.86442818       0.68600000       0.24000000
In       6.13107224       2.69116411       2.69040013       0.63300000       0.22000000
In       8.86205916       2.86519216      -0.07645691       0.68600000       0.24000000
In       5.87990230      -0.05793457       5.83692250       0.68700000       0.24000000
In       8.84531964      -0.06115852       8.77882335       0.67800000       0.24000000
In       5.88489690       2.89242005       8.80014096       0.68700000       0.24000000
In       8.89005839       2.90026890       5.84132726       0.67800000       0.24000000
In       5.87990230       5.83768648      -0.05869855       0.68700000       0.24000000
In       8.89005839       5.84209124       2.89950492       0.67800000       0.24000000
In       5.88489690       8.80090494       2.89165607       0.68700000       0.24000000
In       8.84531964       8.77958733      -0.06192250       0.67800000       0.24000000
In       6.04460045       5.95867523       5.95791125       0.66100000       0.23000000
In       8.83575854       5.85967113       8.80319328       0.67900000       0.24000000
In       5.88326747       8.82497837       8.82421439       0.66100000       0.23000000
In       8.83575854       8.80395726       5.85890716       0.67900000       0.24000000
P        3.96126034       3.50426193       3.50349795      -0.45200000      -0.16000000
65
Lattice="11.801682 -8e-06 -8e-06 -8e-06 11.801682 -8e-06 -8e-06 -8e-06 11.801682" Properties=species:S:1:pos:R:3:mulliken_charges:R:1:hirshfeld_charges:R:1 fermi_energy=3.718544537463 core_to_fermi_energy=15.690571930710242 config_type=Interstitial energy=-63090.19499230168 pbc="T T T"
P        1.44659596       1.37706502       4.36768473      -0.64200000      -0.23000000
P        4.48376001       1.23478702       1.23366670      -0.45200000      -0.16000000
P        1.44659596       4.36880506       1.37594470      -0.64200000      -0.23000000
P        3.94748479       4.88378529       4.88266497      -0.66200000      -0.24000000
P        1.46091268       1.41436805      10.27126752      -0.64200000      -0.23000000
P        4.41044536       1.41510031       7.30777249      -0.67600000      -0.24000000
P        1.37147257       4.38862749       7.40610046      -0.67400000      -0.24000000
P        4.40944340       4.35503268      10.25741375      -0.67200000      -0.23000000
P        1.37147257       7.40722078       4.38750716      -0.67400000      -0.24000000
P        4.41044536       7.30889281       1.41397999      -0.67600000      -0.24000000
P        1.46091268      10.27238785       1.41324772      -0.64200000      -0.23000000
P        4.40944340      10.25853407       4.35391235      -0.67200000      -0.23000000
P        1.44779489       7.31883353      10.26631104      -0.67400000      -0.24000000
P        4.42399108       7.32883313       7.32771280      -0.68100000      -0.24000000
P        1.44779489      10.26743137       7.31771320      -0.67400000      -0.24000000
P        4.37600647      10.21892906      10.21780873      -0.66200000      -0.24000000
P        7.46312825       1.34700420       4.37995147      -0.67600000      -0.24000000
P       10.34032632       1.41147209       1.41035177      -0.67700000      -0.24000000
P        7.46312825       4.38107180       1.34588387      -0.67600000      -0.24000000
P       10.34594184       4.36038909       4.35926876      -0.67400000      -0.24000000
P        7.38205609       1.39775159      10.23008394      -0.67600000      -0.24000000
P       10.32573370       1.39223087       7.31145397      -0.68000000      -0.24000000
P        7.39293611       4.33502331       7.31966937      -0.67500000      -0.24000000
P       10.28796889       4.36700116      10.24754205      -0.67600000      -0.24000000
P        7.39293611       7.32078970       4.33390298      -0.67500000      -0.24000000
P       10.32573370       7.31257430       1.39111054      -0.68000000      -0.24000000
P        7.38205609      10.23120426       1.39663127      -0.67600000      -0.24000000
P       10.28796889      10.24866238       4.36588083      -0.67600000      -0.24000000
P        7.33806546       7.30595171      10.26315870      -0.67500000      -0.24000000
P       10.29133258       7.32422517       7.32310485      -0.67500000      -0.24000000
P        7.33806546      10.26427902       7.30483138      -0.67500000      -0.24000000
P       10.30361003      10.26025726      10.25913694      -0.67400000      -0.24000000
In      -0.00807952      -0.07288937      -0.07400969       0.67600000       0.24000000
In       2.97628796      -0.04548938       2.85997344       0.73400000       0.26000000
In       0.02732591       2.88807875       2.88695842       0.67600000       0.24000000
In       2.97628796       2.86109376      -0.04660971       0.73400000       0.26000000
In      -0.03223822      -0.09099790       5.81833278       0.65600000       0.23000000
In       2.92357194      -0.05645714       8.78341601       0.68200000       0.25000000
In      -0.05351570       2.86660843       8.82832874       0.65600000       0.23000000
In       2.77951016       2.83785444       5.98078742       0.68200000       0.25000000
In      -0.03223822       5.81945310      -0.09211822       0.65600000       0.23000000
In       2.77951016       5.98190775       2.83673412       0.68200000       0.25000000
In      -0.05351570       8.82944907       2.86548811       0.65600000       0.23000000
In       2.92357194       8.78453634      -0.05757747       0.68200000       0.25000000
In      -0.02682280       5.85691776       5.85579743       0.68000000       0.24000000
In       2.93803040       5.86255115       8.80010785       0.68600000       0.24000000
In      -0.01917412       8.79034600       8.78922567       0.68000000       0.24000000
In       2.93803040       8.80122818       5.86143083       0.68600000       0.24000000
In       5.94669023      -0.19137675      -0.19249708       0.63300000       0.22000000
In       8.88160909      -0.10160320       2.84998167       0.68600000       0.24000000
In       6.18366921       2.63871647       2.63759614       0.63300000       0.22000000
In       8.88160909       2.85110199      -0.10272352       0.68600000       0.24000000
In       5.87357820      -0.06048026       5.81382412       0.68700000       0.24000000
In       8.83915958      -0.07963167       8.76037421       0.67800000       0.24000000
In       5.88354775       2.88254390       8.78468782       0.68700000       0.24000000
In       8.88812336       2.89194454       5.83934797       0.67800000       0.24000000
In       5.87357820       5.81494444      -0.06160059       0.68700000       0.24000000
In       8.88812336       5.84046830       2.89082421       0.67800000       0.24000000
In       5.88354775       8.78580815       2.88142358       0.68700000       0.24000000
In       8.83915958       8.76149454      -0.08075200       0.67800000       0.24000000
In       6.00197862       5.89766834       5.89654801       0.66100000       0.23000000
In       8.82484153       5.84867013       8.79174135       0.67900000       0.24000000
In       5.87127684       8.78235063       8.78123030       0.66100000       0.23000000
In       8.82484153       8.79286168       5.84754980       0.67900000       0.24000000
P        3.97593864       3.37879072       3.37767040      -0.45200000      -0.16000000
65
Lattice="11.801682 -8e-06 -8e-06 -8e-06 11.801682 -8e-06 -8e-06 -8e-06 11.801682" Properties=species:S:1:pos:R:3:mulliken_charges:R:1:hirshfeld_charges:R:1 fermi_energy=3.718544537463 core_to_fermi_energy=15.690571930710242 config_type=Interstitial energy=-63090.052870174535 pbc="T T T"
P        1.45218045       1.38925490       4.36811615      -0.64200000      -0.23000000
P        4.44081982       1.21670437       1.21554179      -0.45200000      -0.16000000
P        1.45218045       4.36927873       1.38809232      -0.64200000      -0.23000000
P        3.99030199       4.76205183       4.76088925      -0.66200000      -0.24000000
P        1.44194550       1.40562306      10.25573095      -0.64200000      -0.23000000
P        4.40578818       1.41864946       7.31411704      -0.67600000      -0.24000000
P        1.37720266       4.39698652       7.39536639      -0.67400000      -0.24000000
P        4.40263801       4.35577969      10.25962760      -0.67200000      -0.23000000
P        1.37720266       7.39652897       4.39582394      -0.67400000      -0.24000000
P        4.40578818       7.31527961       1.41748689      -0.67600000      -0.24000000
P        1.44194550      10.25689353       1.40446048      -0.64200000      -0.23000000
P        4.40263801      10.26079018       4.35461711      -0.67200000      -0.23000000
P        1.44736132       7.32183699      10.26739313      -0.67400000      -0.24000000
P        4.42199857       7.30731107       7.30614849      -0.68100000      -0.24000000
P        1.44736132      10.26855571       7.32067442      -0.67400000      -0.24000000
P        4.39533989      10.22886676      10.22770418      -0.66200000      -0.24000000
P        7.49680955       1.33442038       4.40038889      -0.67600000      -0.24000000
P       10.33838044       1.41563783       1.41447526      -0.67700000      -0.24000000
P        7.49680955       4.40155146       1.33325780      -0.67600000      -0.24000000
P       10.33526406       4.36516022       4.36399764      -0.67400000      -0.24000000
P        7.38197289       1.40776751      10.23471690      -0.67600000      -0.24000000
P       10.32261589       1.38966715       7.32259474      -0.68000000      -0.24000000
P        7.38561683       4.34554712       7.32455600      -0.67500000      -0.24000000
P       10.30168883       4.37912057      10.24180452      -0.67600000      -0.24000000
P        7.38561683       7.32571858       4.34438454      -0.67500000      -0.24000000
P       10.32261589       7.32375731       1.38850457      -0.68000000      -0.24000000
P        7.38197289      10.23587948       1.40660493      -0.67600000      -0.24000000
P       10.30168883      10.24296710       4.37795800      -0.67600000      -0.24000000
P        7.32338835       7.30485178      10.26914598      -0.67500000      -0.24000000
P       10.28655222       7.32868726       7.32752468      -0.67500000      -0.24000000
P        7.32338835      10.27030855       7.30368920      -0.67500000      -0.24000000
P       10.29464228      10.25930333      10.25814076      -0.67400000      -0.24000000
In      -0.02086278      -0.07227920      -0.07344177       0.67600000       0.24000000
In       2.94760225      -0.07119794       2.85844658       0.73400000       0.26000000
In       0.02154035       2.89553735       2.89437478       0.67600000       0.24000000
In       2.94760225       2.85960916      -0.07236051       0.73400000       0.26000000
In      -0.02637400      -0.07578771       5.82213175       0.65600000       0.23000000
In       2.92807991      -0.06546482       8.78978592       0.68200000       0.25000000
In      -0.05092018       2.87613613       8.81403177       0.65600000       0.23000000
In       2.79054187       2.85449820       5.97836331       0.68200000       0.25000000
In      -0.02637400       5.82329433      -0.07695028       0.65600000       0.23000000
In       2.79054187       5.97952588       2.85333562       0.68200000       0.25000000
In      -0.05092018       8.81519434       2.87497355       0.65600000       0.23000000
In       2.92807991       8.79094850      -0.06662739       0.68200000       0.25000000
In      -0.03839390       5.85933344       5.85817087       0.68000000       0.24000000
In       2.93431135       5.86673445       8.80091601       0.68600000       0.24000000
In      -0.02157065       8.79225565       8.79109307       0.68000000       0.24000000
In       2.93431135       8.80207859       5.86557187       0.68600000       0.24000000
In       5.95645674      -0.16819939      -0.16936197       0.63300000       0.22000000
In       8.89867306      -0.11582027       2.85431210       0.68600000       0.24000000
In       6.26518844       2.65368100       2.65251842       0.63300000       0.22000000
In       8.89867306       2.85547468      -0.11698284       0.68600000       0.24000000
In       5.86157342      -0.04846778       5.80856834       0.68700000       0.24000000
In       8.82680328      -0.08214896       8.76516388       0.67800000       0.24000000
In       5.88143132       2.88825354       8.78639320       0.68700000       0.24000000
In       8.89366036       2.90127536       5.86526124       0.67800000       0.24000000
In       5.86157342       5.80973092      -0.04963036       0.68700000       0.24000000
In       8.89366036       5.86642382       2.90011278       0.67800000       0.24000000
In       5.88143132       8.78755577       2.88709096       0.68700000       0.24000000
In       8.82680328       8.76632646      -0.08331154       0.67800000       0.24000000
In       5.97466746       5.86000356       5.85884099       0.66100000       0.23000000
In       8.81865812       5.85787000       8.79908815       0.67900000       0.24000000
In       5.86055282       8.77422240       8.77305982       0.66100000       0.23000000
In       8.81865812       8.80025073       5.85670743       0.67900000       0.24000000